INSANE! Membrane UpperLeaflet>PSPI:POPI:POPS:YOPS:POPE:YOPE:POPC:YOPC:ERGO=6.0:14.0:21.0:9.0:9.0:21.0:12.0:48.0:60.0 LowerLeaflet>PSPI:POPI:POPS:YOPS:POPE:YOPE:POPC:YOPC:ERGO=6.0:14.0:21.0:9.0:9.0:21.0:12.0:48.0:60.0
49592
    1PSPI    C1    1  13.755   9.377  10.898 -0.0720  0.0492  0.0340
    1PSPI    C2    2  13.575   9.385  11.256 -0.0524  0.2456  0.0407
    1PSPI    C3    3  13.926   9.199  11.212 -0.1041  0.1336  0.0999
    1PSPI   PO4    4  13.512   9.346  10.712  0.0637 -0.1256  0.0077
    1PSPI   GL1    5  13.411   9.448  10.315  0.0890  0.0116 -0.0719
    1PSPI   GL2    6  13.136   9.260  10.214  0.2524  0.0151  0.0827
    1PSPI   C1A    7  13.424   9.532   9.895 -0.3692 -0.0432  0.0221
    1PSPI   C2A    8  13.435   9.618   9.426  0.0143  0.0318 -0.0529
    1PSPI   C3A    9  13.428   9.661   9.132 -0.0438  0.0717 -0.1732
    1PSPI   C4A   10  13.638   9.652   8.740 -0.1407 -0.0940  0.1700
    1PSPI   C1B   11  12.894   9.350   9.875  0.4270 -0.1799  0.0799
    1PSPI   C2B   12  13.006   9.444   9.458  0.1597  0.0102  0.0978
    1PSPI   C3B   13  12.990   9.361   9.071  0.0192 -0.2621  0.0614
    1PSPI   C4B   14  13.174   9.414   8.762  0.2218  0.2873 -0.0619
    2PSPI    C1   15   4.297  14.570  10.500  0.2164 -0.1141  0.0744
    2PSPI    C2   16   4.448  14.787  10.801 -0.0159  0.2504 -0.0654
    2PSPI    C3   17   4.065  14.671  10.810  0.1121 -0.1855  0.0202
    2PSPI   PO4   18   4.425  14.764  10.214  0.0793  0.2416 -0.0047
    2PSPI   GL1   19   4.226  15.104   9.979 -0.1442  0.1776 -0.5325
    2PSPI   GL2   20   4.303  15.325  10.151 -0.2639 -0.0159  0.0942
    2PSPI   C1A   21   4.180  15.068   9.516  0.0900  0.1764  0.1774
    2PSPI   C2A   22   4.261  15.024   9.088  0.2416  0.3290  0.1723
    2PSPI   C3A   23   4.255  14.938   8.697  0.1700 -0.0742  0.0166
    2PSPI   C4A   24   3.969  14.972   8.421 -0.2656  0.0808 -0.0310
    2PSPI   C1B   25   4.248  15.555   9.737  0.2238 -0.1187 -0.2204
    2PSPI   C2B   26   4.417  15.500   9.246 -0.2156 -0.0110  0.0723
    2PSPI   C3B   27   4.561  15.491   8.855 -0.0372  0.3823  0.0675
    2PSPI   C4B   28   4.360  15.371   8.488  0.1096 -0.0925 -0.0776
    3PSPI    C1   29   3.466  17.342  10.719  0.0260  0.1733 -0.1044
    3PSPI    C2   30   3.112  17.405  10.543  0.0233  0.0279 -0.1521
    3PSPI    C3   31   3.230  17.640  10.844 -0.1994 -0.0413 -0.0077
    3PSPI   PO4   32   3.627  17.330  10.403  0.1098  0.2141  0.0725
    3PSPI   GL1   33   3.581  17.145   9.997  0.0879  0.1407  0.0282
    3PSPI   GL2   34   3.589  16.865  10.161  0.1648  0.2687  0.0510
    3PSPI   C1A   35   3.758  17.378   9.677  0.2037  0.1236  0.0909
    3PSPI   C2A   36   3.738  17.404   9.308  0.1800  0.1888  0.2052
    3PSPI   C3A   37   3.883  17.534   8.921  0.1625  0.0397 -0.2677
    3PSPI   C4A   38   3.966  18.021   8.771 -0.0388 -0.0529  0.0044
    3PSPI   C1B   39   3.664  16.509   9.877  0.1581  0.1388  0.0608
    3PSPI   C2B   40   3.526  16.385   9.457 -0.0775  0.2812 -0.1405
    3PSPI   C3B   41   3.453  16.056   9.296 -0.0901  0.0523  0.3230
    3PSPI   C4B   42   3.286  15.731   9.111 -0.1357  0.0898  0.2385
    4PSPI    C1   43   3.519  14.753  10.179 -0.1391 -0.1371  0.0927
    4PSPI    C2   44   3.746  15.083  10.176 -0.1877 -0.1028 -0.2069
    4PSPI    C3   45   3.883  14.747  10.344 -0.0819  0.0300 -0.0233
    4PSPI   PO4   46   3.373  14.740   9.982 -0.1597 -0.1901 -0.0755
    4PSPI   GL1   47   3.509  14.460   9.674 -0.4358  0.0429 -0.0475
    4PSPI   GL2   48   3.843  14.545   9.836  0.1988  0.0870 -0.1151
    4PSPI   C1A   49   3.452  14.401   9.285  0.0650 -0.0522  0.3352
    4PSPI   C2A   50   3.310  14.732   8.985  0.0576  0.1618 -0.2155
    4PSPI   C3A   51   3.320  14.790   8.532  0.2132 -0.0421  0.0832
    4PSPI   C4A   52   3.608  14.688   8.144  0.1095  0.0409 -0.1679
    4PSPI   C1B   53   3.977  14.315   9.481 -0.0505  0.1277  0.0071
    4PSPI   C2B   54   4.165  14.037   9.205 -0.0707  0.1377  0.0255
    4PSPI   C3B   55   4.347  14.068   8.776 -0.1049 -0.0798  0.3745
    4PSPI   C4B   56   4.484  13.721   8.548  0.2420  0.0383  0.1194
    5PSPI    C1   57   7.838  13.574  10.326  0.0675  0.1069  0.0635
    5PSPI    C2   58   8.081  13.282  10.452  0.2031  0.2470  0.1308
    5PSPI    C3   59   7.805  13.434  10.699 -0.0325  0.0102  0.0189
    5PSPI   PO4   60   8.038  13.772  10.229  0.2191  0.0750 -0.1895
    5PSPI   GL1   61   8.267  13.924   9.848 -0.1540 -0.1419 -0.2018
    5PSPI   GL2   62   7.992  14.201   9.819  0.1644  0.1873 -0.0439
    5PSPI   C1A   63   8.028  13.874   9.382 -0.2445 -0.0353  0.1424
    5PSPI   C2A   64   7.924  13.958   8.940 -0.0356  0.0607  0.0004
    5PSPI   C3A   65   8.095  14.004   8.571 -0.3169 -0.1464  0.0994
    5PSPI   C4A   66   8.264  14.162   8.283  0.1583 -0.0474  0.1069
    5PSPI   C1B   67   7.585  14.201   9.621  0.1825 -0.0973  0.0676
    5PSPI   C2B   68   7.218  14.364   9.363  0.1001  0.3236 -0.0181
    5PSPI   C3B   69   7.137  14.562   8.898  0.1909 -0.3732 -0.1164
    5PSPI   C4B   70   7.291  14.611   8.473  0.0884  0.0822  0.1862
    6PSPI    C1   71   2.323   1.430  11.180  0.1323 -0.1911 -0.0587
    6PSPI    C2   72   2.565   1.707  11.336 -0.1423  0.1321 -0.1918
    6PSPI    C3   73   2.462   1.386  11.552  0.2914  0.0571 -0.0866
    6PSPI   PO4   74   2.138   1.607  11.040 -0.1770  0.4128  0.0862
    6PSPI   GL1   75   2.131   1.880  10.696 -0.3791  0.3062 -0.2562
    6PSPI   GL2   76   2.407   2.053  10.539 -0.0029 -0.1300  0.0492
    6PSPI   C1A   77   2.171   1.705  10.302 -0.2940  0.0260 -0.1715
    6PSPI   C2A   78   2.213   1.795   9.913 -0.1834 -0.1379 -0.2273
    6PSPI   C3A   79   2.092   1.864   9.477 -0.4146 -0.1482 -0.1090
    6PSPI   C4A   80   2.074   1.645   9.050 -0.1048  0.0214 -0.3670
    6PSPI   C1B   81   2.195   2.235  10.159  0.0090 -0.0185  0.1687
    6PSPI   C2B   82   2.095   2.463   9.860 -0.1505 -0.2151 -0.4547
    6PSPI   C3B   83   1.964   2.312   9.495 -0.2504  0.3817 -0.3290
    6PSPI   C4B   84   1.899   2.191   9.057  0.1461 -0.3130  0.1421
    7PSPI    C1   85  16.840  17.409  11.011  0.0914 -0.1466 -0.0803
    7PSPI    C2   86  17.143  17.659  11.086 -0.1671  0.1684 -0.0675
    7PSPI    C3   87  17.090  17.334  11.314  0.1495  0.1185 -0.0610
    7PSPI   PO4   88  16.821  17.561  10.716  0.0720  0.0176  0.0757
    7PSPI   GL1   89  16.839  17.785  10.376 -0.2425  0.0052  0.1590
    7PSPI   GL2   90  16.656  17.878  10.303 -0.2199 -0.1314  0.0520
    7PSPI   C1A   91  16.755  17.480  10.061  0.1549  0.1330  0.0013
    7PSPI   C2A   92  17.030  17.464   9.691  0.0157  0.1381  0.1582
    7PSPI   C3A   93  17.374  17.656   9.347  0.1139  0.1686  0.0898
    7PSPI   C4A   94  17.481  17.985   9.078  0.2690 -0.1296  0.1989
    7PSPI   C1B   95  16.441  17.821   9.931 -0.1720 -0.1953 -0.0727
    7PSPI   C2B   96  16.224  17.653   9.532  0.0631  0.1336  0.0609
    7PSPI   C3B   97  16.258  17.818   9.101 -0.0245 -0.0170 -0.1559
    7PSPI   C4B   98  16.361  17.948   8.761 -0.0159 -0.0645  0.1724
    8PSPI    C1   99   8.653  10.128  10.471 -0.0944 -0.2350 -0.0394
    8PSPI    C2  100   8.430   9.938  10.743  0.0099 -0.0243  0.1974
    8PSPI    C3  101   8.822   9.989  10.805 -0.0006  0.1887  0.0959
    8PSPI   PO4  102   8.685  10.095  10.221  0.2037  0.2196  0.0479
    8PSPI   GL1  103   8.694  10.213   9.818  0.2631  0.2534 -0.0244
    8PSPI   GL2  104   8.448  10.534   9.949 -0.1548 -0.0803 -0.2559
    8PSPI   C1A  105   9.029  10.009   9.554 -0.1077 -0.0224  0.1139
    8PSPI   C2A  106   8.908   9.755   9.183 -0.4076 -0.1257  0.0423
    8PSPI   C3A  107   8.657   9.569   8.941  0.3120 -0.2794 -0.3457
    8PSPI   C4A  108   8.410   9.505   8.531 -0.3269 -0.1817 -0.2438
    8PSPI   C1B  109   8.442  10.535   9.522 -0.1115 -0.0301 -0.0554
    8PSPI   C2B  110   8.405  10.521   9.140  0.1749 -0.2419  0.1631
    8PSPI   C3B  111   8.483  10.655   8.748 -0.0320  0.0530  0.0647
    8PSPI   C4B  112   8.608  11.056   8.484 -0.0646 -0.1606  0.0223
    9PSPI    C1  113  14.110   0.551  10.637 -0.0469  0.1194 -0.1107
    9PSPI    C2  114  13.817   0.280  10.662  0.1301 -0.0738 -0.0996
    9PSPI    C3  115  13.729   0.671  10.667 -0.1425 -0.1292 -0.2993
    9PSPI   PO4  116  14.252   0.461  10.425 -0.0839  0.2699 -0.0979
    9PSPI   GL1  117  14.358   0.342  10.092  0.1201 -0.1840 -0.1188
    9PSPI   GL2  118  14.341   0.550   9.830 -0.3383 -0.1417 -0.1007
    9PSPI   C1A  119  14.158   0.131   9.675 -0.0200 -0.0624  0.0122
    9PSPI   C2A  120  13.902   0.342   9.443 -0.0078 -0.1430 -0.0221
    9PSPI   C3A  121  13.754   0.497   9.058  0.0185 -0.0428  0.0310
    9PSPI   C4A  122  13.937   0.659   8.720 -0.1981 -0.2461  0.0189
    9PSPI   C1B  123  14.335   0.581   9.432  0.6439  0.3761  0.0340
    9PSPI   C2B  124  14.414   0.515   8.971 -0.2578 -0.0899  0.2325
    9PSPI   C3B  125  14.655   0.332   8.711 -0.0749  0.0335  0.2690
    9PSPI   C4B  126  14.626   0.212   8.267  0.1428  0.1065 -0.2307
   10PSPI    C1  127  10.861   3.726  10.248  0.1148  0.1733 -0.0003
   10PSPI    C2  128  10.848   3.843  10.630 -0.0202  0.1740 -0.0044
   10PSPI    C3  129  10.783   4.108  10.338  0.2124  0.2013 -0.0337
   10PSPI   PO4  130  11.055   3.704  10.095 -0.2049 -0.3440 -0.6395
   10PSPI   GL1  131  11.192   3.732   9.784 -0.0490 -0.2098 -0.0034
   10PSPI   GL2  132  11.484   3.870   9.760  0.0022  0.2640  0.2322
   10PSPI   C1A  133  11.067   3.565   9.318 -0.1843 -0.2687  0.3402
   10PSPI   C2A  134  11.105   3.506   8.893 -0.1858  0.0742 -0.0126
   10PSPI   C3A  135  10.984   3.436   8.469 -0.0862 -0.1438 -0.0251
   10PSPI   C4A  136  10.809   3.246   8.149 -0.0877 -0.3011 -0.0834
   10PSPI   C1B  137  11.507   3.828   9.390 -0.0479  0.0058  0.1087
   10PSPI   C2B  138  11.557   3.817   8.907  0.2660  0.3459 -0.1862
   10PSPI   C3B  139  11.359   3.834   8.525 -0.0765  0.2108 -0.0517
   10PSPI   C4B  140  11.515   4.012   8.204  0.2580 -0.0323 -0.0852
   11PSPI    C1  141  17.378  15.977  10.834  0.0658 -0.1484  0.3434
   11PSPI    C2  142  16.994  15.886  10.899 -0.0118 -0.1697 -0.1142
   11PSPI    C3  143  17.275  15.603  10.931 -0.0512 -0.1889  0.0715
   11PSPI   PO4  144  17.337  16.222  10.677  0.0513 -0.0468  0.2803
   11PSPI   GL1  145  17.429  16.212  10.202 -0.1052 -0.2650 -0.2739
   11PSPI   GL2  146  17.690  16.014  10.184  0.4323 -0.1433 -0.2842
   11PSPI   C1A  147  17.250  16.179   9.841 -0.0562 -0.1102  0.0160
   11PSPI   C2A  148  17.036  16.316   9.517  0.2847 -0.1223 -0.3533
   11PSPI   C3A  149  16.987  16.464   9.074 -0.1477  0.0150 -0.0227
   11PSPI   C4A  150  17.010  16.733   8.598  0.0327 -0.0207 -0.4970
   11PSPI   C1B  151  17.836  15.906   9.800 -0.2148 -0.2205  0.0999
   11PSPI   C2B  152  17.806  15.752   9.322 -0.0060 -0.1124 -0.4367
   11PSPI   C3B  153  17.795  15.840   8.881 -0.1515  0.0711  0.2475
   11PSPI   C4B  154  17.552  15.781   8.440 -0.0232 -0.1488 -0.0739
   12PSPI    C1  155   1.245   0.062  10.725  0.0013 -0.0987 -0.0331
   12PSPI    C2  156   1.504   0.366  10.700 -0.0196 -0.0678  0.1159
   12PSPI    C3  157   1.428   0.197  11.055 -0.1991 -0.0804  0.0723
   12PSPI   PO4  158   1.055   0.209  10.599 -0.2591  0.1367 -0.2285
   12PSPI   GL1  159   1.106   0.448  10.223 -0.0107  0.0138  0.0354
   12PSPI   GL2  160   0.839   0.565  10.339 -0.0764 -0.1438 -0.1519
   12PSPI   C1A  161   1.131   0.484   9.754 -0.2109  0.2363  0.2359
   12PSPI   C2A  162   1.007   0.227   9.448 -0.1683  0.1393 -0.0811
   12PSPI   C3A  163   0.961   0.080   9.016  0.1336  0.2754 -0.0673
   12PSPI   C4A  164   0.952   0.042   8.588  0.1938 -0.0546 -0.0130
   12PSPI   C1B  165   0.749   0.755   9.914 -0.3177  0.0701  0.1698
   12PSPI   C2B  166   0.765   0.751   9.461  0.0868  0.0523  0.0339
   12PSPI   C3B  167   0.902   0.567   9.064  0.0103 -0.0986  0.1632
   12PSPI   C4B  168   1.028   0.607   8.547  0.0362 -0.2081 -0.1099
   13PSPI    C1  169  12.607  11.247  10.440  0.0690 -0.0573 -0.0306
   13PSPI    C2  170  12.498  11.621  10.531  0.1709 -0.0638  0.1224
   13PSPI    C3  171  12.249  11.316  10.604  0.1070 -0.0315  0.0415
   13PSPI   PO4  172  12.675  11.248  10.211  0.1876 -0.0858  0.5082
   13PSPI   GL1  173  12.689  11.357   9.852  0.0604  0.0378 -0.1107
   13PSPI   GL2  174  12.460  11.122   9.666 -0.2384 -0.2033  0.0503
   13PSPI   C1A  175  12.922  11.435   9.469 -0.3258 -0.0128  0.2205
   13PSPI   C2A  176  12.991  11.324   9.035  0.1019 -0.4985 -0.1090
   13PSPI   C3A  177  13.225  11.304   8.663  0.0707 -0.0200 -0.0466
   13PSPI   C4A  178  13.233  11.535   8.307  0.0174  0.1710  0.0212
   13PSPI   C1B  179  12.381  10.894   9.267 -0.0211  0.0762  0.2281
   13PSPI   C2B  180  12.377  10.789   8.808 -0.1335 -0.0656  0.0419
   13PSPI   C3B  181  12.104  10.821   8.486  0.2417 -0.0056 -0.0923
   13PSPI   C4B  182  11.800  11.032   8.314  0.1692 -0.1545 -0.1882
   14PSPI    C1  183  11.223  11.960  10.596  0.2055 -0.0252  0.0226
   14PSPI    C2  184  11.229  12.320  10.770 -0.0164 -0.0242  0.0316
   14PSPI    C3  185  11.132  11.997  10.984 -0.0280 -0.0596 -0.0270
   14PSPI   PO4  186  11.034  12.000  10.392  0.1015 -0.0727 -0.2593
   14PSPI   GL1  187  10.947  11.958   9.921 -0.0481 -0.0493  0.1064
   14PSPI   GL2  188  10.978  11.721   9.977  0.1162 -0.0599 -0.0781
   14PSPI   C1A  189  10.888  12.141   9.524 -0.0360  0.0777  0.1279
   14PSPI   C2A  190  10.911  12.148   9.026 -0.0416  0.1209 -0.2107
   14PSPI   C3A  191  10.937  12.079   8.560 -0.1712  0.0037 -0.0321
   14PSPI   C4A  192  11.093  11.834   8.208 -0.0384 -0.0733 -0.1238
   14PSPI   C1B  193  11.052  11.601   9.510 -0.0024  0.0614  0.1427
   14PSPI   C2B  194  11.120  11.578   9.091 -0.1460 -0.0284  0.1271
   14PSPI   C3B  195  11.103  11.550   8.657 -0.1891  0.0838 -0.3055
   14PSPI   C4B  196  10.926  11.393   8.281  0.2853  0.3172 -0.0738
   15PSPI    C1  197  16.229  10.696  10.568 -0.1083  0.1901 -0.0305
   15PSPI    C2  198  15.909  10.815  10.775 -0.0118  0.1941  0.1182
   15PSPI    C3  199  16.275  10.925  10.893  0.0500  0.1140  0.0019
   15PSPI   PO4  200  16.104  10.578  10.293  0.1323  0.1089 -0.0448
   15PSPI   GL1  201  16.235  10.290   9.924 -0.4629 -0.0391 -0.2001
   15PSPI   GL2  202  15.913  10.202  10.047  0.0196  0.0847  0.0083
   15PSPI   C1A  203  16.421   9.963   9.697  0.0895  0.0737 -0.0671
   15PSPI   C2A  204  16.462   9.557   9.537  0.1045  0.0236 -0.1276
   15PSPI   C3A  205  16.645   9.409   9.174  0.1953 -0.2163 -0.2316
   15PSPI   C4A  206  16.791   8.925   9.020 -0.0052 -0.0934 -0.0461
   15PSPI   C1B  207  15.949   9.853   9.662 -0.2471  0.2604  0.1023
   15PSPI   C2B  208  15.998   9.549   9.351 -0.1752 -0.0471  0.2949
   15PSPI   C3B  209  15.854   9.539   8.848 -0.0136  0.1709  0.0519
   15PSPI   C4B  210  15.738   9.228   8.566 -0.0550  0.2076  0.1359
   16PSPI    C1  211   2.617  11.943  10.439 -0.2516 -0.1225 -0.0339
   16PSPI    C2  212   2.867  11.980  10.749 -0.2127  0.1258 -0.0928
   16PSPI    C3  213   2.473  12.023  10.803 -0.2289 -0.0823 -0.0338
   16PSPI   PO4  214   2.684  12.114  10.294  0.2000 -0.1084  0.1219
   16PSPI   GL1  215   2.454  12.328   9.915 -0.3623  0.0081  0.1021
   16PSPI   GL2  216   2.427  11.913   9.890 -0.0432  0.1546 -0.0579
   16PSPI   C1A  217   2.748  12.185   9.543 -0.1963 -0.2268 -0.0266
   16PSPI   C2A  218   2.737  12.230   9.036 -0.1366  0.3159  0.1925
   16PSPI   C3A  219   2.837  12.339   8.647  0.3482 -0.0816 -0.2210
   16PSPI   C4A  220   3.016  12.403   8.288 -0.1965  0.0771  0.1444
   16PSPI   C1B  221   2.340  11.747   9.561 -0.0915  0.0642 -0.1817
   16PSPI   C2B  222   2.086  11.587   9.297 -0.0485 -0.0647 -0.1527
   16PSPI   C3B  223   2.330  11.464   8.875  0.0476  0.0118 -0.2774
   16PSPI   C4B  224   2.736  11.289   8.726 -0.0392 -0.1695  0.3620
   17PSPI    C1  225   5.954  15.380  10.700  0.1165 -0.0774 -0.1044
   17PSPI    C2  226   6.131  15.514  11.033  0.1576  0.1335 -0.2099
   17PSPI    C3  227   5.776  15.661  10.921 -0.0072 -0.1655 -0.0906
   17PSPI   PO4  228   6.121  15.364  10.516 -0.1389  0.2558 -0.0078
   17PSPI   GL1  229   6.015  15.313  10.107 -0.2044 -0.3747 -0.2604
   17PSPI   GL2  230   6.231  15.155  10.004 -0.0176  0.0494 -0.3124
   17PSPI   C1A  231   5.709  15.207   9.777 -0.1322 -0.2131  0.2732
   17PSPI   C2A  232   5.652  15.349   9.300  0.3475 -0.0360  0.3449
   17PSPI   C3A  233   5.542  15.125   8.823 -0.1338 -0.0052  0.0581
   17PSPI   C4A  234   5.313  15.121   8.387 -0.1797  0.0199  0.1290
   17PSPI   C1B  235   6.112  15.258   9.576  0.1678  0.0086 -0.0563
   17PSPI   C2B  236   6.161  15.349   9.127 -0.1370 -0.0303  0.0883
   17PSPI   C3B  237   5.943  15.369   8.859 -0.0735 -0.3469 -0.0443
   17PSPI   C4B  238   5.608  15.528   8.589 -0.1698  0.1417 -0.2372
   18PSPI    C1  239  11.975  12.356  10.360  0.0632 -0.1749 -0.0108
   18PSPI    C2  240  11.828  12.346  10.733 -0.0593  0.3622 -0.0368
   18PSPI    C3  241  11.634  12.160  10.436 -0.0218  0.0290  0.1422
   18PSPI   PO4  242  11.966  12.638  10.264  0.3581  0.1036 -0.4309
   18PSPI   GL1  243  11.959  12.795   9.840 -0.0402 -0.0013  0.1606
   18PSPI   GL2  244  12.158  12.497   9.790 -0.0406  0.0212 -0.1421
   18PSPI   C1A  245  12.064  12.843   9.468 -0.1325 -0.5677 -0.4028
   18PSPI   C2A  246  12.090  12.903   9.000 -0.0993 -0.1322 -0.1133
   18PSPI   C3A  247  12.190  13.036   8.609  0.4175 -0.0525 -0.1267
   18PSPI   C4A  248  12.183  13.231   8.296 -0.2291 -0.0263  0.0977
   18PSPI   C1B  249  12.268  12.444   9.319 -0.2744 -0.0970  0.1643
   18PSPI   C2B  250  12.420  12.541   8.944 -0.2112 -0.0222 -0.0862
   18PSPI   C3B  251  12.634  12.585   8.546 -0.0738  0.2457 -0.0213
   18PSPI   C4B  252  12.663  12.337   8.291 -0.1561  0.1594 -0.3590
   19PSPI    C1  253   3.936   8.568  10.743 -0.0657 -0.2405  0.1599
   19PSPI    C2  254   3.752   8.242  10.885 -0.1035 -0.1786  0.2542
   19PSPI    C3  255   3.813   8.557  11.124  0.0846 -0.1807  0.2108
   19PSPI   PO4  256   3.847   8.628  10.500 -0.1271 -0.0572  0.1743
   19PSPI   GL1  257   3.913   8.789  10.166  0.0246 -0.2297 -0.0441
   19PSPI   GL2  258   3.813   8.456   9.975 -0.0137  0.0187  0.0241
   19PSPI   C1A  259   4.070   8.853   9.846  0.6156  0.1990 -0.0385
   19PSPI   C2A  260   4.055   8.594   9.527 -0.0544 -0.1759  0.0141
   19PSPI   C3A  261   4.086   8.632   9.033  0.0806 -0.0565  0.2669
   19PSPI   C4A  262   4.095   8.358   8.730  0.0321  0.1577  0.3295
   19PSPI   C1B  263   3.589   8.585   9.654 -0.2019  0.1048  0.3111
   19PSPI   C2B  264   3.551   8.553   9.283 -0.2033  0.2195  0.1512
   19PSPI   C3B  265   3.649   8.638   8.844  0.2188 -0.1457 -0.0330
   19PSPI   C4B  266   4.016   8.808   8.585  0.0812 -0.2372 -0.1924
   20PSPI    C1  267   1.655  16.882  10.716  0.1568 -0.1383 -0.0753
   20PSPI    C2  268   1.899  16.925  11.029  0.1572 -0.1434 -0.0749
   20PSPI    C3  269   1.730  16.570  10.955 -0.1446 -0.0485  0.1420
   20PSPI   PO4  270   1.752  16.968  10.519  0.2286 -0.0762  0.1792
   20PSPI   GL1  271   1.719  16.890  10.149  0.4706 -0.0317 -0.3783
   20PSPI   GL2  272   1.669  16.645  10.104  0.0635 -0.0640 -0.0854
   20PSPI   C1A  273   1.849  17.002   9.719 -0.4265  0.1241 -0.2519
   20PSPI   C2A  274   1.875  17.009   9.396 -0.0863 -0.1175 -0.1493
   20PSPI   C3A  275   2.096  17.022   8.948 -0.0947 -0.1510  0.1049
   20PSPI   C4A  276   2.323  17.365   8.681 -0.2249 -0.1461  0.0345
   20PSPI   C1B  277   1.513  16.586   9.665  0.4759 -0.1494 -0.1415
   20PSPI   C2B  278   1.181  16.526   9.360 -0.3472 -0.2122 -0.2317
   20PSPI   C3B  279   1.326  16.518   8.962  0.1038 -0.1279 -0.0399
   20PSPI   C4B  280   1.553  16.530   8.476  0.2346  0.0373 -0.2693
   21POPI    C1  281   7.115   6.612  10.268 -0.0102  0.0580 -0.0271
   21POPI    C2  282   7.432   6.515  10.493  0.0591  0.0196 -0.1404
   21POPI    C3  283   7.124   6.262  10.462  0.0650  0.0097 -0.1171
   21POPI   PO4  284   7.215   6.671  10.031 -0.0970 -0.1355  0.1384
   21POPI   GL1  285   7.245   6.523   9.684  0.0147 -0.2861 -0.0417
   21POPI   GL2  286   6.951   6.795   9.573  0.0618  0.1384  0.2646
   21POPI   C1A  287   7.191   6.436   9.216  0.0946  0.0261 -0.1547
   21POPI   D2A  288   7.175   6.214   8.796  0.1525 -0.0689 -0.2336
   21POPI   C3A  289   7.026   6.023   8.451 -0.1315  0.3819  0.2776
   21POPI   C4A  290   6.862   6.003   8.039 -0.0277  0.2014 -0.0171
   21POPI   C1B  291   6.816   6.818   9.220  0.1825 -0.1114 -0.1306
   21POPI   C2B  292   6.910   6.807   8.786  0.0958 -0.1825  0.0473
   21POPI   C3B  293   7.041   6.562   8.501  0.0778 -0.0939 -0.1532
   21POPI   C4B  294   6.771   6.457   8.185 -0.1178  0.0836 -0.1777
   22POPI    C1  295   5.862  16.102  10.784 -0.0244 -0.0435  0.2411
   22POPI    C2  296   5.539  16.172  11.010 -0.1329 -0.0579  0.0921
   22POPI    C3  297   5.745  16.478  10.854 -0.1881 -0.0529  0.0285
   22POPI   PO4  298   5.888  15.930  10.537 -0.1560 -0.0512  0.1377
   22POPI   GL1  299   6.103  15.768  10.203 -0.0533  0.1790  0.0200
   22POPI   GL2  300   6.285  16.029  10.170 -0.1682 -0.0263  0.0637
   22POPI   C1A  301   6.007  15.677   9.799 -0.0899  0.1807  0.0451
   22POPI   D2A  302   5.955  15.745   9.295 -0.1159  0.1028 -0.0814
   22POPI   C3A  303   5.804  15.955   8.935 -0.0465  0.2264  0.0822
   22POPI   C4A  304   5.851  16.370   8.717  0.1217  0.1960  0.1404
   22POPI   C1B  305   6.161  16.128   9.757  0.3562 -0.0208  0.0425
   22POPI   C2B  306   5.881  16.285   9.406 -0.1377  0.1176  0.0540
   22POPI   C3B  307   5.599  16.472   9.198 -0.0534 -0.1092  0.0918
   22POPI   C4B  308   5.375  16.604   8.819 -0.3759  0.0221  0.0220
   23POPI    C1  309  17.695   0.083  10.668  0.0726  0.0797  0.2018
   23POPI    C2  310  17.560  -0.203  10.913 -0.1547 -0.0041 -0.0170
   23POPI    C3  311  17.853   0.042  11.033 -0.2295 -0.0746  0.3181
   23POPI   PO4  312  17.462   0.051  10.491 -0.0014  0.4870  0.0096
   23POPI   GL1  313  17.377  -0.115  10.186  0.0613 -0.0189  0.5649
   23POPI   GL2  314  17.338  -0.477  10.104  0.0524 -0.0704 -0.0200
   23POPI   C1A  315  17.605  -0.152   9.738 -0.1409  0.1211  0.3329
   23POPI   D2A  316  17.799  -0.009   9.428  0.2016  0.2809  0.1280
   23POPI   C3A  317  17.797   0.327   9.168  0.1992  0.0340 -0.0040
   23POPI   C4A  318  17.746   0.578   8.799 -0.0379  0.0503 -0.0918
   23POPI   C1B  319  17.506  -0.626   9.742 -0.2738 -0.2150 -0.2584
   23POPI   C2B  320  17.491  -0.886   9.358 -0.0545  0.0224 -0.0544
   23POPI   C3B  321  17.748  -1.025   8.928 -0.1208 -0.1523  0.0912
   23POPI   C4B  322  17.938  -0.682   8.585 -0.2716  0.3582 -0.1453
   24POPI    C1  323  10.472  13.732  10.354 -0.0920 -0.1564  0.0638
   24POPI    C2  324  10.206  13.495  10.172  0.0325 -0.1832 -0.0845
   24POPI    C3  325  10.418  13.356  10.481 -0.0721 -0.1853 -0.0131
   24POPI   PO4  326  10.477  13.939  10.150  0.2535  0.1891  0.2297
   24POPI   GL1  327  10.743  14.132   9.840  0.1266  0.0565  0.0085
   24POPI   GL2  328  10.701  13.886   9.639 -0.0406  0.0617  0.4543
   24POPI   C1A  329  11.152  14.182   9.681  0.1441 -0.1503 -0.0155
   24POPI   D2A  330  11.439  14.137   9.405  0.1418  0.3958 -0.0876
   24POPI   C3A  331  11.457  14.023   9.069  0.0281  0.1215  0.0860
   24POPI   C4A  332  11.415  13.965   8.559 -0.0543 -0.0147 -0.1346
   24POPI   C1B  333  10.702  13.765   9.232  0.3438 -0.2703  0.0064
   24POPI   C2B  334  10.471  13.999   8.800  0.4795  0.0331  0.1379
   24POPI   C3B  335  10.424  14.231   8.496 -0.0529 -0.0947  0.0808
   24POPI   C4B  336  10.408  14.599   8.282  0.0834 -0.0236  0.1293
   25POPI    C1  337  13.186  15.834  10.450 -0.0795 -0.0253 -0.0806
   25POPI    C2  338  13.276  15.453  10.533 -0.0053  0.0077 -0.0082
   25POPI    C3  339  13.126  15.690  10.818  0.2799  0.1307  0.0434
   25POPI   PO4  340  13.080  15.809  10.246  0.0435 -0.2729  0.2895
   25POPI   GL1  341  13.258  15.808   9.901  0.1344  0.1015  0.2709
   25POPI   GL2  342  13.064  15.648   9.751 -0.1137 -0.1334  0.3840
   25POPI   C1A  343  13.490  16.031   9.651  0.0745 -0.0479  0.1217
   25POPI   D2A  344  13.380  16.195   9.290 -0.0851 -0.0319  0.0707
   25POPI   C3A  345  13.563  16.400   8.982  0.2275 -0.1985  0.3097
   25POPI   C4A  346  13.547  16.734   8.714 -0.2443  0.0671  0.0169
   25POPI   C1B  347  13.108  15.664   9.387  0.1548  0.0799  0.0139
   25POPI   C2B  348  13.194  15.813   9.034 -0.2037 -0.1677 -0.0962
   25POPI   C3B  349  13.128  16.187   8.816 -0.1150 -0.2191  0.2275
   25POPI   C4B  350  13.178  16.450   8.535  0.0238 -0.4175  0.0465
   26POPI    C1  351  16.394   6.044  11.227 -0.2575  0.0876  0.1824
   26POPI    C2  352  16.496   5.691  11.383 -0.1285 -0.0452 -0.1915
   26POPI    C3  353  16.281   5.950  11.599  0.0366 -0.2237  0.1974
   26POPI   PO4  354  16.351   6.022  10.983  0.1601 -0.1075  0.0070
   26POPI   GL1  355  16.566   6.134  10.612 -0.1257  0.1837  0.0553
   26POPI   GL2  356  16.649   6.332  10.783 -0.2216  0.1688  0.0989
   26POPI   C1A  357  16.584   6.272  10.183 -0.0700  0.0767 -0.1932
   26POPI   D2A  358  16.626   6.372   9.812  0.5546 -0.0934 -0.1724
   26POPI   C3A  359  16.255   6.293   9.596 -0.0154  0.1993 -0.0254
   26POPI   C4A  360  16.160   6.389   9.151 -0.0506  0.0390  0.1457
   26POPI   C1B  361  16.949   6.403  10.487 -0.0787  0.1250  0.1076
   26POPI   C2B  362  17.085   6.509  10.063  0.1241 -0.0516  0.0244
   26POPI   C3B  363  17.083   6.510   9.656 -0.0528 -0.2251 -0.1670
   26POPI   C4B  364  16.837   6.260   9.368 -0.0303  0.0747 -0.2298
   27POPI    C1  365   2.871  13.848  10.554  0.0173 -0.0579  0.1207
   27POPI    C2  366   2.503  13.959  10.665 -0.0728 -0.1381 -0.0930
   27POPI    C3  367   2.777  13.871  10.942 -0.2209 -0.1007  0.0673
   27POPI   PO4  368   2.856  14.003  10.320 -0.1061  0.1397 -0.1206
   27POPI   GL1  369   2.799  14.362   9.903  0.4600  0.0066  0.1492
   27POPI   GL2  370   2.505  14.445   9.949 -0.0490 -0.0973 -0.2418
   27POPI   C1A  371   2.964  14.445   9.541 -0.3396 -0.0681 -0.2358
   27POPI   D2A  372   2.937  14.458   9.126 -0.0829 -0.0667 -0.1725
   27POPI   C3A  373   2.909  14.911   9.211 -0.1529  0.0738 -0.1501
   27POPI   C4A  374   2.859  15.434   9.168 -0.0806 -0.0918  0.2055
   27POPI   C1B  375   2.465  14.427   9.500 -0.1474  0.1576 -0.2922
   27POPI   C2B  376   2.417  14.474   9.037 -0.1336  0.1471  0.1583
   27POPI   C3B  377   2.307  14.969   8.908  0.0096 -0.3081 -0.0594
   27POPI   C4B  378   2.446  15.362   8.782  0.1557 -0.1902  0.0892
   28POPI    C1  379   0.252   5.464  11.381 -0.1643  0.0241  0.0574
   28POPI    C2  380   0.633   5.342  11.371 -0.1820 -0.0214 -0.0902
   28POPI    C3  381   0.534   5.673  11.573 -0.1137 -0.1789  0.2074
   28POPI   PO4  382   0.194   5.458  11.154  0.0578  0.1501  0.3394
   28POPI   GL1  383   0.140   5.524  10.718 -0.0419 -0.3760  0.1318
   28POPI   GL2  384  -0.057   5.283  10.660  0.0846  0.1408 -0.1103
   28POPI   C1A  385  -0.190   5.823  10.490  0.0998 -0.3138 -0.1869
   28POPI   D2A  386  -0.410   6.008  10.236  0.1203  0.0294  0.1856
   28POPI   C3A  387  -0.422   5.838   9.843 -0.1526  0.3733  0.0552
   28POPI   C4A  388  -0.380   5.904   9.512 -0.2367 -0.0627  0.0760
   28POPI   C1B  389  -0.312   5.279  10.394  0.1179 -0.0346 -0.0359
   28POPI   C2B  390  -0.256   5.306   9.935 -0.1222  0.5266  0.3301
   28POPI   C3B  391  -0.251   5.341   9.442  0.0287 -0.1854  0.0059
   28POPI   C4B  392  -0.083   5.189   9.058  0.0537 -0.0351 -0.1272
   29POPI    C1  393   6.771   2.204  10.286  0.1115 -0.0361  0.0320
   29POPI    C2  394   6.836   2.471  10.577  0.0321 -0.0211  0.0361
   29POPI    C3  395   6.742   2.094  10.669 -0.5452  0.1135  0.0365
   29POPI   PO4  396   6.557   2.226  10.150 -0.1460  0.3732  0.0553
   29POPI   GL1  397   6.492   1.874   9.947  0.3306 -0.2482  0.2473
   29POPI   GL2  398   6.676   1.699   9.986  0.1353  0.2344  0.1891
   29POPI   C1A  399   6.267   1.848   9.520 -0.0209  0.1351  0.2441
   29POPI   D2A  400   5.923   1.846   9.210 -0.3633  0.1758 -0.0154
   29POPI   C3A  401   5.833   1.736   8.915 -0.0386 -0.3487  0.3203
   29POPI   C4A  402   5.897   1.400   8.617  0.1763  0.2209 -0.1221
   29POPI   C1B  403   6.799   1.623   9.584  0.0201 -0.0631  0.0358
   29POPI   C2B  404   6.889   1.509   9.087 -0.0034 -0.1569  0.1879
   29POPI   C3B  405   6.794   1.371   8.691 -0.2538  0.0337 -0.1612
   29POPI   C4B  406   6.785   1.239   8.264  0.0706 -0.2531  0.0025
   30POPI    C1  407   4.439  12.779  10.677  0.0582 -0.0201 -0.1930
   30POPI    C2  408   4.645  13.086  10.523  0.3012 -0.1079 -0.0491
   30POPI    C3  409   4.706  12.974  10.902 -0.2648  0.0833  0.1092
   30POPI   PO4  410   4.404  12.557  10.412  0.1170  0.1907  0.0559
   30POPI   GL1  411   4.223  12.686  10.035 -0.0119  0.0687  0.2811
   30POPI   GL2  412   4.312  12.443   9.833 -0.3471 -0.0475  0.0737
   30POPI   C1A  413   4.340  12.790   9.523  0.4727  0.0262 -0.1814
   30POPI   D2A  414   4.365  12.715   9.146 -0.2621 -0.0545  0.0241
   30POPI   C3A  415   4.292  12.630   8.642  0.2050 -0.3064  0.3936
   30POPI   C4A  416   4.565  12.714   8.263  0.1739  0.0705 -0.1670
   30POPI   C1B  417   4.472  12.274   9.418  0.0261  0.2963 -0.0274
   30POPI   C2B  418   4.467  12.281   9.015 -0.0114 -0.0536  0.1928
   30POPI   C3B  419   4.680  12.236   8.668 -0.0137  0.0317 -0.0814
   30POPI   C4B  420   4.714  11.881   8.395  0.0165 -0.0082 -0.3851
   31POPI    C1  421   3.788   4.843  10.636 -0.0854 -0.0872 -0.0469
   31POPI    C2  422   4.135   4.937  10.461 -0.0225 -0.2210  0.0037
   31POPI    C3  423   4.038   5.101  10.813 -0.0049 -0.1937 -0.0040
   31POPI   PO4  424   3.660   4.877  10.358  0.2118  0.1174  0.0279
   31POPI   GL1  425   3.249   4.874  10.012  0.1460  0.2472  0.2332
   31POPI   GL2  426   3.476   5.028   9.945  0.0827 -0.0097 -0.2426
   31POPI   C1A  427   3.127   4.880   9.554  0.0646 -0.0633  0.1940
   31POPI   D2A  428   2.824   4.921   9.190  0.0120 -0.2215  0.1991
   31POPI   C3A  429   2.692   4.963   8.754  0.0597  0.4434 -0.0762
   31POPI   C4A  430   2.798   5.236   8.464  0.0572 -0.0742 -0.1781
   31POPI   C1B  431   3.443   5.308   9.647 -0.2223 -0.2710 -0.0028
   31POPI   C2B  432   3.281   5.218   9.202 -0.0592 -0.1043  0.1087
   31POPI   C3B  433   3.058   5.371   8.865 -0.0509 -0.1241 -0.1041
   31POPI   C4B  434   3.042   5.800   8.707 -0.0809  0.0504  0.1563
   32POPI    C1  435   6.909   4.455  10.244 -0.0498  0.1243  0.1077
   32POPI    C2  436   6.925   4.077  10.375 -0.1585  0.0848  0.0088
   32POPI    C3  437   6.694   4.344  10.563 -0.2757  0.0405 -0.0710
   32POPI   PO4  438   6.780   4.438   9.985  0.3787 -0.0748  0.2176
   32POPI   GL1  439   6.524   4.383   9.731  0.0060 -0.0605  0.0657
   32POPI   GL2  440   6.240   4.522   9.669 -0.0348  0.3556 -0.3963
   32POPI   C1A  441   6.586   4.438   9.361 -0.0302  0.2087  0.1464
   32POPI   D2A  442   6.532   4.408   8.883  0.1532  0.0802 -0.2227
   32POPI   C3A  443   6.458   4.111   8.529 -0.3715  0.1666  0.0708
   32POPI   C4A  444   6.664   3.755   8.226  0.0089  0.0275  0.0179
   32POPI   C1B  445   6.136   4.372   9.268  0.1894 -0.2446  0.2416
   32POPI   C2B  446   6.021   4.330   8.860  0.2058  0.0766  0.0876
   32POPI   C3B  447   5.960   4.516   8.460 -0.1069  0.3500  0.1768
   32POPI   C4B  448   5.853   4.907   8.200 -0.1690 -0.2882 -0.0810
   33POPI    C1  449   0.643   6.138  11.226  0.0313  0.0608  0.0865
   33POPI    C2  450   0.281   6.074  11.070  0.0028 -0.0784  0.2087
   33POPI    C3  451   0.316   6.235  11.434  0.0673  0.1221  0.1147
   33POPI   PO4  452   0.753   6.177  11.080 -0.5238  0.1847  0.1519
   33POPI   GL1  453   0.682   6.025  10.694  0.0518  0.1702 -0.0369
   33POPI   GL2  454   0.861   5.723  10.610  0.0149  0.0938 -0.2174
   33POPI   C1A  455   0.324   5.915  10.556  0.3395 -0.0681  0.0431
   33POPI   D2A  456   0.106   5.554  10.227 -0.2793  0.0777 -0.0764
   33POPI   C3A  457   0.168   5.636   9.813 -0.2034  0.1210  0.0662
   33POPI   C4A  458   0.095   5.784   9.435 -0.0825  0.1268  0.1886
   33POPI   C1B  459   0.613   5.755  10.221 -0.0208 -0.2227  0.0234
   33POPI   C2B  460   0.632   5.606   9.881  0.3143  0.2978  0.0111
   33POPI   C3B  461   0.580   5.541   9.469  0.1063 -0.0370 -0.3542
   33POPI   C4B  462   0.868   5.557   9.051 -0.2111  0.0464  0.2125
   34POPI    C1  463  17.151  12.048  10.357 -0.1518 -0.1046  0.1726
   34POPI    C2  464  16.893  12.350  10.404 -0.1802 -0.1633  0.4079
   34POPI    C3  465  17.141  12.250  10.702  0.6095  0.3404 -0.0423
   34POPI   PO4  466  17.203  12.053  10.089 -0.0944  0.1253  0.0742
   34POPI   GL1  467  16.882  12.134   9.685  0.0597 -0.2707 -0.1270
   34POPI   GL2  468  17.022  12.404   9.775 -0.2398 -0.1319  0.0040
   34POPI   C1A  469  16.957  11.976   9.236 -0.0684  0.1901 -0.3115
   34POPI   D2A  470  17.163  11.892   8.905  0.1491 -0.3216 -0.0198
   34POPI   C3A  471  16.997  11.823   8.443 -0.0829  0.0164 -0.0139
   34POPI   C4A  472  16.610  11.836   8.165 -0.1671  0.3045 -0.1220
   34POPI   C1B  473  17.205  12.556   9.389 -0.1892 -0.2407  0.0495
   34POPI   C2B  474  17.352  12.628   8.956 -0.1028 -0.1230 -0.1247
   34POPI   C3B  475  17.408  12.668   8.500  0.1459 -0.1122  0.1590
   34POPI   C4B  476  17.358  12.982   8.079  0.0227 -0.0178 -0.1283
   35POPI    C1  477  15.420   0.722  11.050  0.0776  0.3078  0.0803
   35POPI    C2  478  15.190   0.761  11.375 -0.0499  0.0904  0.0188
   35POPI    C3  479  15.588   0.766  11.410 -0.0588  0.5262  0.1191
   35POPI   PO4  480  15.291   0.464  10.890  0.2620 -0.0529 -0.1772
   35POPI   GL1  481  15.286   0.290  10.514 -0.0005 -0.1760 -0.1505
   35POPI   GL2  482  15.627   0.294  10.486 -0.0149  0.3549 -0.1413
   35POPI   C1A  483  15.121   0.257  10.123 -0.1362 -0.4228 -0.0824
   35POPI   D2A  484  15.333   0.027   9.781  0.1950 -0.0552  0.2313
   35POPI   C3A  485  15.292  -0.002   9.360 -0.1468  0.0142 -0.0204
   35POPI   C4A  486  14.977   0.011   8.920 -0.1727 -0.1031  0.4063
   35POPI   C1B  487  15.707   0.167  10.095  0.1259  0.1193 -0.0581
   35POPI   C2B  488  15.773   0.450   9.744 -0.0545  0.0839 -0.0051
   35POPI   C3B  489  15.938   0.510   9.276 -0.3868  0.0689  0.2016
   35POPI   C4B  490  16.082   0.352   8.940  0.0417 -0.1559 -0.1219
   36POPI    C1  491  10.819  11.519  10.382 -0.0844 -0.0138  0.1240
   36POPI    C2  492  10.882  11.133  10.465 -0.1012 -0.0098  0.1554
   36POPI    C3  493  11.026  11.416  10.708  0.2229  0.0139 -0.0577
   36POPI   PO4  494  10.530  11.483  10.266 -0.2167  0.0890 -0.0365
   36POPI   GL1  495  10.326  11.529   9.964  0.2941 -0.0963  0.0535
   36POPI   GL2  496  10.491  11.818   9.694  0.1360  0.2335 -0.0822
   36POPI   C1A  497  10.597  11.287   9.584  0.1904 -0.1928  0.0658
   36POPI   D2A  498  10.822  11.142   9.366  0.0317 -0.1440  0.0134
   36POPI   C3A  499  10.789  11.250   8.968  0.1019 -0.1504  0.3812
   36POPI   C4A  500  10.719  11.126   8.649  0.3206  0.0673  0.1697
   36POPI   C1B  501  10.623  11.729   9.263 -0.3384  0.0725  0.1773
   36POPI   C2B  502  10.653  11.719   8.822 -0.1446 -0.4776  0.0762
   36POPI   C3B  503  10.564  11.724   8.477 -0.2881 -0.0415  0.0174
   36POPI   C4B  504  10.611  11.867   8.012  0.0614  0.1082  0.0396
   37POPI    C1  505   7.250  16.234  10.425 -0.0248 -0.0232  0.0759
   37POPI    C2  506   7.147  16.355  10.792 -0.0953 -0.0301  0.0586
   37POPI    C3  507   7.273  15.980  10.733  0.1638  0.0457  0.1196
   37POPI   PO4  508   7.231  16.540  10.282  0.0303  0.0400  0.5072
   37POPI   GL1  509   7.094  16.618   9.875  0.3419  0.0677  0.0637
   37POPI   GL2  510   7.424  16.801   9.905  0.1832  0.2352 -0.3315
   37POPI   C1A  511   6.632  16.774   9.915 -0.1997  0.4083  0.1668
   37POPI   D2A  512   6.315  17.066  10.092  0.2456 -0.1079  0.0454
   37POPI   C3A  513   5.900  17.000   9.931 -0.1192 -0.1382 -0.1709
   37POPI   C4A  514   5.696  16.612   9.859 -0.0122  0.1611 -0.1083
   37POPI   C1B  515   7.455  16.745   9.503  0.0882 -0.1240 -0.0726
   37POPI   C2B  516   7.475  16.793   8.964 -0.2688  0.1683  0.0843
   37POPI   C3B  517   7.625  16.764   8.506 -0.0355  0.1739 -0.0725
   37POPI   C4B  518   8.012  16.868   8.223 -0.0500 -0.0714 -0.2718
   38POPI    C1  519   6.995  13.526  10.551 -0.1822  0.1368 -0.0765
   38POPI    C2  520   7.372  13.629  10.468 -0.1293 -0.1030 -0.1413
   38POPI    C3  521   7.294  13.388  10.778 -0.2490  0.1081 -0.0051
   38POPI   PO4  522   6.926  13.419  10.296  0.2883 -0.1701  0.2035
   38POPI   GL1  523   6.765  13.524   9.855  0.0624 -0.1392 -0.1469
   38POPI   GL2  524   6.753  13.854   9.825  0.0288 -0.1306  0.1145
   38POPI   C1A  525   7.028  13.444   9.570 -0.2868  0.1406 -0.1060
   38POPI   D2A  526   7.052  13.424   9.095 -0.3118  0.0906 -0.1907
   38POPI   C3A  527   7.183  13.705   8.624  0.3840  0.1135 -0.2230
   38POPI   C4A  528   7.255  13.688   8.095  0.4244  0.2013 -0.0619
   38POPI   C1B  529   6.783  13.820   9.333  0.0070 -0.1118 -0.0172
   38POPI   C2B  530   6.732  13.854   8.835  0.1105 -0.1286 -0.0307
   38POPI   C3B  531   6.738  13.821   8.411  0.0324  0.1351 -0.2405
   38POPI   C4B  532   6.528  13.618   8.104  0.0738 -0.0355  0.1374
   39POPI    C1  533   9.620  15.885  10.280  0.1455 -0.0022 -0.0457
   39POPI    C2  534   9.666  15.908  10.677 -0.2105 -0.1699  0.0086
   39POPI    C3  535   9.724  15.560  10.489  0.2378 -0.0268 -0.1295
   39POPI   PO4  536   9.796  16.007  10.151 -0.0428 -0.0448  0.3073
   39POPI   GL1  537  10.063  15.861   9.857 -0.3751 -0.0911  0.0188
   39POPI   GL2  538  10.186  15.516   9.849  0.3110 -0.3434  0.1406
   39POPI   C1A  539   9.755  15.581   9.554 -0.0625 -0.0351  0.0127
   39POPI   D2A  540   9.568  15.668   9.197 -0.0778 -0.2387  0.0134
   39POPI   C3A  541   9.804  15.547   8.774  0.0402 -0.0925 -0.3108
   39POPI   C4A  542  10.007  15.433   8.391  0.1316 -0.0139 -0.0059
   39POPI   C1B  543  10.205  15.608   9.468 -0.1340  0.0512 -0.1784
   39POPI   C2B  544  10.262  15.682   9.026 -0.0826 -0.0116  0.0926
   39POPI   C3B  545  10.284  15.914   8.619 -0.1222  0.0891 -0.2002
   39POPI   C4B  546  10.130  16.217   8.254 -0.3433  0.1294 -0.3884
   40POPI    C1  547   7.282   7.383  10.431  0.0218 -0.1237 -0.1755
   40POPI    C2  548   7.438   7.030  10.326  0.0445 -0.0960 -0.2355
   40POPI    C3  549   7.070   7.048  10.482  0.1215 -0.1676 -0.0422
   40POPI   PO4  550   7.379   7.516  10.223 -0.2847  0.1480 -0.2457
   40POPI   GL1  551   7.348   7.598   9.800 -0.1992  0.0265 -0.3019
   40POPI   GL2  552   7.340   7.479   9.630 -0.1366  0.1261 -0.2289
   40POPI   C1A  553   7.531   7.939   9.463 -0.0610 -0.1116  0.0468
   40POPI   D2A  554   7.774   7.893   9.241  0.0967  0.3648  0.1094
   40POPI   C3A  555   7.951   7.895   8.909 -0.3130 -0.1009  0.0543
   40POPI   C4A  556   8.307   7.959   8.535 -0.0604 -0.0206  0.2380
   40POPI   C1B  557   7.480   7.472   9.181 -0.1582  0.0006 -0.0036
   40POPI   C2B  558   7.538   7.499   8.752 -0.1893  0.0130 -0.0950
   40POPI   C3B  559   7.533   7.446   8.362 -0.1008  0.2326  0.1076
   40POPI   C4B  560   7.585   7.557   7.931 -0.2129 -0.3273  0.0308
   41POPI    C1  561  16.006  13.570  10.317  0.1700  0.0507  0.0316
   41POPI    C2  562  15.999  13.746  10.676 -0.2040 -0.0946  0.1004
   41POPI    C3  563  16.348  13.640  10.511 -0.0218  0.0813  0.3656
   41POPI   PO4  564  15.809  13.357  10.296  0.0510  0.0798  0.3650
   41POPI   GL1  565  15.939  13.183   9.943  0.2894  0.3782  0.2629
   41POPI   GL2  566  15.773  12.887   9.774  0.0913  0.0179 -0.1660
   41POPI   C1A  567  16.052  13.237   9.481 -0.1451  0.2601  0.2026
   41POPI   D2A  568  15.871  13.169   9.032 -0.0023  0.3659 -0.1224
   41POPI   C3A  569  16.022  13.330   8.635  0.0419 -0.1246  0.0821
   41POPI   C4A  570  15.831  13.601   8.278 -0.0342  0.0612  0.2390
   41POPI   C1B  571  15.773  12.650   9.315 -0.0005 -0.1464 -0.0878
   41POPI   C2B  572  15.854  12.685   8.891  0.1723  0.1953 -0.1370
   41POPI   C3B  573  16.052  12.840   8.554  0.0630 -0.2064  0.2965
   41POPI   C4B  574  16.441  12.895   8.403 -0.1094  0.0951 -0.0767
   42POPI    C1  575   5.690   8.036  10.478 -0.0442 -0.0675 -0.0635
   42POPI    C2  576   5.961   8.182  10.734 -0.0610 -0.3410  0.1142
   42POPI    C3  577   5.585   8.317  10.743  0.0048 -0.1493  0.0436
   42POPI   PO4  578   5.715   8.077  10.271 -0.1430  0.3501  0.1905
   42POPI   GL1  579   6.017   8.134   9.935  0.1380  0.1065 -0.0143
   42POPI   GL2  580   5.818   8.341   9.847 -0.1434  0.1489  0.1898
   42POPI   C1A  581   5.876   7.923   9.552  0.1729 -0.1292  0.0275
   42POPI   D2A  582   5.638   7.509   9.524 -0.2574 -0.2048 -0.0366
   42POPI   C3A  583   5.605   7.395   9.136 -0.0445 -0.1520 -0.0787
   42POPI   C4A  584   5.508   7.290   8.715  0.3039 -0.0453 -0.3405
   42POPI   C1B  585   5.720   8.314   9.344 -0.0157 -0.0999  0.2032
   42POPI   C2B  586   5.681   8.289   8.876 -0.1538  0.0445 -0.1428
   42POPI   C3B  587   5.385   8.221   8.516  0.1118  0.4124 -0.2607
   42POPI   C4B  588   5.114   8.003   8.299  0.0902  0.3096  0.0175
   43POPI    C1  589  10.981   6.664  10.386 -0.3172  0.3006 -0.0378
   43POPI    C2  590  11.208   6.390  10.571 -0.2530  0.3134 -0.0974
   43POPI    C3  591  11.375   6.723  10.424 -0.2635  0.1916 -0.3923
   43POPI   PO4  592  10.886   6.600  10.258  0.0765 -0.0869 -0.1066
   43POPI   GL1  593  10.800   6.649   9.822 -0.1449 -0.0986 -0.2024
   43POPI   GL2  594  10.610   6.393   9.898  0.1168 -0.2459  0.3615
   43POPI   C1A  595  10.501   6.818   9.634 -0.2099  0.2853 -0.2720
   43POPI   D2A  596  10.658   6.766   9.250  0.0066 -0.1075  0.3174
   43POPI   C3A  597  10.602   6.871   8.868 -0.1883 -0.2696 -0.3894
   43POPI   C4A  598  10.562   6.994   8.450 -0.0721  0.1405  0.1338
   43POPI   C1B  599  10.858   6.322   9.466 -0.3508 -0.0557  0.0179
   43POPI   C2B  600  10.974   6.193   9.183 -0.0751  0.0948  0.1182
   43POPI   C3B  601  10.971   6.193   8.810 -0.0247 -0.1737 -0.0734
   43POPI   C4B  602  10.727   6.492   8.542 -0.4232 -0.2174 -0.0723
   44POPI    C1  603   5.908  13.052  10.530  0.3067  0.1124  0.1749
   44POPI    C2  604   6.220  13.192  10.737  0.1590  0.1136  0.4004
   44POPI    C3  605   5.848  13.247  10.874  0.0734 -0.1056  0.2615
   44POPI   PO4  606   6.007  13.060  10.296  0.0928  0.0367 -0.0912
   44POPI   GL1  607   6.153  13.116   9.831 -0.0563  0.1909  0.3338
   44POPI   GL2  608   5.968  13.295   9.583  0.3528 -0.0397  0.0771
   44POPI   C1A  609   6.311  12.886   9.501 -0.2059  0.1662 -0.0048
   44POPI   D2A  610   6.417  12.982   9.107  0.0301  0.3420 -0.0428
   44POPI   C3A  611   6.322  12.874   8.703  0.1503  0.2996 -0.0139
   44POPI   C4A  612   6.125  12.830   8.313  0.0967 -0.2609  0.0866
   44POPI   C1B  613   5.982  13.128   9.167  0.4555  0.1166  0.1757
   44POPI   C2B  614   5.924  13.131   8.679  0.1354 -0.0438 -0.2043
   44POPI   C3B  615   5.874  13.584   8.488  0.1053 -0.0123  0.1433
   44POPI   C4B  616   5.946  13.856   8.184 -0.0830 -0.1287  0.0444
   45POPI    C1  617   0.983   1.531  10.798  0.1139  0.0105  0.1020
   45POPI    C2  618   0.711   1.349  11.028  0.0386  0.1509  0.1249
   45POPI    C3  619   0.948   1.631  11.183 -0.0592  0.2954  0.0151
   45POPI   PO4  620   1.210   1.439  10.752  0.1728  0.1333 -0.0096
   45POPI   GL1  621   1.554   1.088  10.672 -0.1170 -0.0203 -0.0483
   45POPI   GL2  622   1.846   1.355  10.672 -0.0197  0.0697  0.1689
   45POPI   C1A  623   1.636   0.936  10.232  0.0024 -0.0601  0.2605
   45POPI   D2A  624   1.741   1.124   9.900  0.1627  0.2808  0.0433
   45POPI   C3A  625   1.678   0.971   9.494  0.1725  0.0736  0.4338
   45POPI   C4A  626   1.633   0.915   8.956 -0.0625 -0.0150 -0.4683
   45POPI   C1B  627   1.677   1.538  10.279  0.1419  0.0082 -0.1677
   45POPI   C2B  628   1.295   1.539  10.046  0.3662  0.0375 -0.1059
   45POPI   C3B  629   1.274   1.465   9.635 -0.0264 -0.0326  0.2175
   45POPI   C4B  630   1.376   1.315   9.137  0.1439 -0.2565 -0.0495
   46POPI    C1  631  10.014   3.276  10.173 -0.1137  0.0700 -0.0249
   46POPI    C2  632  10.117   3.201  10.552 -0.3365  0.1883  0.0603
   46POPI    C3  633   9.898   2.936  10.348 -0.1193  0.0721 -0.0245
   46POPI   PO4  634  10.332   3.283  10.000 -0.1470  0.0197 -0.0581
   46POPI   GL1  635  10.633   3.274   9.580  0.3668  0.3088  0.1682
   46POPI   GL2  636  10.715   3.517   9.707 -0.0937 -0.3609  0.2417
   46POPI   C1A  637  10.312   3.077   9.309  0.1001  0.1641 -0.1856
   46POPI   D2A  638  10.189   3.081   8.872  0.2240 -0.0515 -0.0972
   46POPI   C3A  639   9.803   2.811   8.918 -0.0062  0.0232 -0.1505
   46POPI   C4A  640   9.413   2.860   9.076  0.0699  0.1580 -0.3361
   46POPI   C1B  641  10.624   3.667   9.249 -0.0062  0.0944  0.1887
   46POPI   C2B  642  10.606   3.665   8.829  0.2282  0.2482  0.2154
   46POPI   C3B  643  10.522   3.708   8.358 -0.2229 -0.5306  0.0674
   46POPI   C4B  644  10.358   3.760   7.982 -0.1958  0.0466  0.0246
   47POPI    C1  645  17.817  11.846  10.463 -0.0005  0.3104  0.0894
   47POPI    C2  646  17.734  11.455  10.441 -0.2552  0.3683 -0.0147
   47POPI    C3  647  18.073  11.578  10.613 -0.0789  0.0923 -0.1582
   47POPI   PO4  648  17.692  11.895  10.125  0.1061  0.0279 -0.2602
   47POPI   GL1  649  17.460  11.781   9.768 -0.2603  0.0418  0.1642
   47POPI   GL2  650  17.374  12.050   9.575  0.0428  0.3687 -0.1710
   47POPI   C1A  651  17.288  11.584   9.325 -0.0227  0.0248 -0.0873
   47POPI   D2A  652  16.826  11.465   9.340  0.0881 -0.0009 -0.2905
   47POPI   C3A  653  16.576  11.430   9.015  0.0816 -0.0509 -0.0563
   47POPI   C4A  654  16.528  11.567   8.599 -0.0220 -0.0997  0.0660
   47POPI   C1B  655  17.468  12.201   9.144 -0.2475 -0.1595  0.3275
   47POPI   C2B  656  17.492  12.182   8.676 -0.2689  0.1563 -0.1235
   47POPI   C3B  657  17.563  12.127   8.261  0.1959  0.1496 -0.0354
   47POPI   C4B  658  17.638  11.698   8.142 -0.1576 -0.2791  0.0012
   48POPI    C1  659  13.878  12.003  10.361  0.0299  0.0211 -0.2228
   48POPI    C2  660  14.120  11.879  10.655  0.0548  0.1349 -0.1948
   48POPI    C3  661  13.913  11.613  10.440 -0.1045  0.0612  0.0468
   48POPI   PO4  662  14.020  12.257  10.227 -0.1406  0.3046  0.3878
   48POPI   GL1  663  13.848  12.544   9.849 -0.0737  0.0427 -0.2090
   48POPI   GL2  664  13.770  12.221   9.825  0.2832  0.5346  0.1131
   48POPI   C1A  665  13.896  12.540   9.431  0.3966 -0.0886  0.1241
   48POPI   D2A  666  13.933  12.366   9.018 -0.1597 -0.0637 -0.1545
   48POPI   C3A  667  13.978  12.547   8.720  0.1267 -0.1727 -0.2815
   48POPI   C4A  668  14.276  12.582   8.335 -0.1537  0.1522 -0.0829
   48POPI   C1B  669  13.718  11.997   9.510  0.0468  0.2562  0.0033
   48POPI   C2B  670  13.832  11.908   8.987 -0.0258  0.2488 -0.0589
   48POPI   C3B  671  14.112  12.022   8.622  0.0707 -0.1951 -0.0473
   48POPI   C4B  672  14.256  12.073   8.263  0.0638 -0.2675 -0.1264
   49POPI    C1  673  13.317   3.812  10.890  0.0650  0.1532 -0.0337
   49POPI    C2  674  13.715   3.833  10.926  0.0425  0.1149  0.2684
   49POPI    C3  675  13.488   4.141  11.041 -0.0177  0.1239  0.1268
   49POPI   PO4  676  13.271   3.692  10.638 -0.1964  0.3332 -0.0685
   49POPI   GL1  677  13.513   3.761  10.389  0.0898 -0.1861 -0.0724
   49POPI   GL2  678  13.620   4.034  10.335 -0.0731 -0.2081 -0.0614
   49POPI   C1A  679  13.656   3.660   9.971  0.1949  0.3848 -0.0058
   49POPI   D2A  680  13.554   3.653   9.563 -0.0221  0.0962 -0.3875
   49POPI   C3A  681  13.741   3.757   9.157 -0.0482 -0.2313 -0.0575
   49POPI   C4A  682  13.676   3.762   8.703 -0.0292  0.2634 -0.3008
   49POPI   C1B  683  13.963   4.018  10.103  0.3744  0.2775 -0.0718
   49POPI   C2B  684  14.142   4.247   9.738  0.1634 -0.2202 -0.1519
   49POPI   C3B  685  14.120   4.426   9.379 -0.1692 -0.1878 -0.0924
   49POPI   C4B  686  14.065   4.695   9.120 -0.1430 -0.1028 -0.0380
   50POPI    C1  687   9.045   5.457  10.348  0.2234  0.0681 -0.0749
   50POPI    C2  688   9.081   5.466  10.747  0.0368 -0.1988 -0.0495
   50POPI    C3  689   8.840   5.197  10.573  0.0689 -0.0441 -0.3400
   50POPI   PO4  690   9.274   5.581  10.197 -0.0369  0.0475  0.1864
   50POPI   GL1  691   9.443   5.625   9.805  0.0997  0.0865  0.2797
   50POPI   GL2  692   9.463   5.947   9.833 -0.0448  0.0961  0.3183
   50POPI   C1A  693   9.433   5.579   9.324  0.1457  0.2545 -0.0830
   50POPI   D2A  694   9.584   5.520   8.924  0.1692  0.2894  0.0685
   50POPI   C3A  695   9.314   5.160   9.030 -0.2460 -0.1362 -0.0560
   50POPI   C4A  696   9.413   4.771   9.199  0.1658  0.2037  0.1719
   50POPI   C1B  697   9.494   6.048   9.411 -0.0378 -0.2481  0.4072
   50POPI   C2B  698   9.394   5.972   8.939 -0.1609 -0.0923  0.0108
   50POPI   C3B  699   9.367   5.945   8.496  0.0463  0.0647  0.2521
   50POPI   C4B  700   9.445   6.040   8.036  0.3003 -0.0552 -0.1476
   51POPI    C1  701   8.531  11.679  10.431  0.0785 -0.2997 -0.2392
   51POPI    C2  702   8.217  11.886  10.295  0.2712  0.2075  0.0568
   51POPI    C3  703   8.190  11.685  10.640  0.2328  0.1406  0.0150
   51POPI   PO4  704   8.578  11.551  10.165 -0.1503  0.1517  0.3555
   51POPI   GL1  705   8.675  11.418   9.790  0.2483 -0.1356  0.1743
   51POPI   GL2  706   8.435  11.635   9.705 -0.1577  0.2220  0.4586
   51POPI   C1A  707   8.780  11.368   9.316  0.3983  0.0005  0.3647
   51POPI   D2A  708   8.707  11.327   8.878  0.0867  0.3213  0.2985
   51POPI   C3A  709   8.924  10.912   8.802 -0.4431  0.3757 -0.0947
   51POPI   C4A  710   9.177  10.502   8.742 -0.1237 -0.0403 -0.1745
   51POPI   C1B  711   8.363  11.828   9.251 -0.2585 -0.0402  0.2485
   51POPI   C2B  712   8.421  11.784   8.817  0.0578 -0.2225  0.1525
   51POPI   C3B  713   8.622  11.590   8.457 -0.3299  0.0163  0.1815
   51POPI   C4B  714   8.914  11.310   8.173  0.1127 -0.3580 -0.2811
   52POPI    C1  715   8.561   0.699  10.461  0.0119  0.0408 -0.0661
   52POPI    C2  716   8.243   0.920  10.560  0.0006 -0.0675  0.1449
   52POPI    C3  717   8.612   1.065  10.612 -0.0110  0.0059  0.0268
   52POPI   PO4  718   8.437   0.627  10.204 -0.1629  0.0987 -0.0367
   52POPI   GL1  719   8.531   0.737   9.821  0.0442 -0.0221 -0.3393
   52POPI   GL2  720   8.234   0.670   9.739 -0.0413 -0.0007 -0.1545
   52POPI   C1A  721   8.623   0.605   9.365  0.1117  0.1508 -0.3767
   52POPI   D2A  722   8.442   0.508   8.962 -0.1293 -0.1328 -0.1213
   52POPI   C3A  723   8.648   0.634   8.617 -0.1169 -0.0569  0.0660
   52POPI   C4A  724   9.016   0.827   8.551 -0.2782  0.0499 -0.0473
   52POPI   C1B  725   8.119   0.770   9.351  0.2851  0.1331 -0.0563
   52POPI   C2B  726   8.036   0.788   8.851  0.0248  0.0117 -0.0472
   52POPI   C3B  727   8.245   0.859   8.493 -0.0565 -0.0148 -0.4693
   52POPI   C4B  728   8.184   0.584   8.094  0.0957  0.1830 -0.1284
   53POPI    C1  729   0.909  12.011  10.231 -0.0736 -0.1831 -0.0487
   53POPI    C2  730   1.260  11.848  10.333 -0.1074 -0.2514 -0.0409
   53POPI    C3  731   0.987  11.926  10.615  0.0633  0.1902  0.0101
   53POPI   PO4  732   1.019  12.141   9.991 -0.0180  0.0884 -0.3895
   53POPI   GL1  733   1.079  11.991   9.495 -0.0961  0.1792  0.1433
   53POPI   GL2  734   1.343  11.788   9.603  0.0036 -0.3032  0.0690
   53POPI   C1A  735   1.308  12.076   9.110  0.0226  0.0422 -0.2658
   53POPI   D2A  736   1.339  12.397   8.852  0.1334 -0.0730 -0.0060
   53POPI   C3A  737   1.481  12.526   8.510  0.1604  0.3346  0.0507
   53POPI   C4A  738   1.582  12.627   8.170 -0.1155 -0.1851  0.0751
   53POPI   C1B  739   1.213  11.574   9.180  0.3591  0.0545  0.0766
   53POPI   C2B  740   1.212  11.449   8.785  0.0276 -0.0229 -0.0982
   53POPI   C3B  741   1.468  11.392   8.409  0.2423  0.1477 -0.2145
   53POPI   C4B  742   1.532  11.610   8.112  0.0618 -0.1269  0.2191
   54POPI    C1  743  10.256  17.388  10.323  0.0660  0.1260 -0.0113
   54POPI    C2  744  10.546  17.318  10.590  0.1671 -0.0722 -0.1701
   54POPI    C3  745  10.204  17.111  10.607  0.2548 -0.2319 -0.3167
   54POPI   PO4  746  10.436  17.387  10.132  0.2282  0.1655  0.2807
   54POPI   GL1  747  10.571  17.510   9.707  0.0988  0.2212  0.0604
   54POPI   GL2  748  10.511  17.678   9.443 -0.1752 -0.3439 -0.0225
   54POPI   C1A  749  10.600  17.182   9.425 -0.0180 -0.0123  0.1514
   54POPI   D2A  750  10.604  16.804   9.125  0.1825 -0.1183 -0.2629
   54POPI   C3A  751  10.601  16.891   8.699  0.0788  0.2393 -0.2165
   54POPI   C4A  752  10.478  17.022   8.296 -0.0232  0.0829  0.1684
   54POPI   C1B  753  10.688  17.914   9.149  0.0029 -0.1600  0.3390
   54POPI   C2B  754  10.544  18.175   8.803  0.1611  0.3668 -0.4513
   54POPI   C3B  755  10.481  17.904   8.382  0.2483  0.0219  0.0901
   54POPI   C4B  756  10.350  17.577   8.097 -0.3347 -0.0699  0.3377
   55POPI    C1  757  14.906   9.182  10.906 -0.0956 -0.1430  0.0614
   55POPI    C2  758  14.974   9.566  10.993  0.1386 -0.1934  0.1073
   55POPI    C3  759  14.664   9.376  11.159  0.0028 -0.0168  0.0596
   55POPI   PO4  760  15.092   9.193  10.608  0.1225 -0.1449  0.0605
   55POPI   GL1  761  15.242   9.039  10.290 -0.0816 -0.1773  0.0159
   55POPI   GL2  762  14.970   9.101  10.091  0.0600  0.0347  0.0623
   55POPI   C1A  763  15.529   9.218   9.981  0.0875 -0.0393 -0.0385
   55POPI   D2A  764  15.540   9.334   9.572  0.1593  0.0889 -0.1210
   55POPI   C3A  765  15.479   9.200   9.110  0.1151  0.0349  0.0467
   55POPI   C4A  766  15.305   9.506   8.809  0.0569 -0.1011 -0.0966
   55POPI   C1B  767  15.199   8.839   9.826  0.1030  0.0866 -0.1513
   55POPI   C2B  768  15.411   8.788   9.441 -0.0998 -0.0638 -0.4629
   55POPI   C3B  769  15.460   8.675   8.996 -0.1610 -0.2830  0.1141
   55POPI   C4B  770  15.348   8.926   8.684 -0.2412  0.2309 -0.2009
   56POPI    C1  771  17.506  14.845  10.873 -0.0966 -0.0274 -0.0812
   56POPI    C2  772  17.258  15.067  11.095  0.0820  0.0630  0.0296
   56POPI    C3  773  17.481  14.783  11.267  0.2633  0.1718 -0.0233
   56POPI   PO4  774  17.379  14.706  10.551  0.0263 -0.1143  0.1381
   56POPI   GL1  775  17.351  14.446  10.193 -0.3370  0.1404 -0.1158
   56POPI   GL2  776  17.566  14.431  10.113  0.1780 -0.3477  0.1520
   56POPI   C1A  777  17.224  14.593   9.838  0.1268  0.2715 -0.2417
   56POPI   D2A  778  17.026  14.797   9.527 -0.1457  0.0116 -0.1694
   56POPI   C3A  779  16.986  14.775   9.129  0.2105 -0.0709  0.2560
   56POPI   C4A  780  16.937  14.735   8.695 -0.0548  0.1153 -0.0147
   56POPI   C1B  781  17.639  14.235   9.703  0.1254 -0.1207 -0.2684
   56POPI   C2B  782  17.622  14.229   9.271 -0.0467 -0.0867 -0.0354
   56POPI   C3B  783  17.753  14.208   8.892 -0.0431 -0.2383  0.2150
   56POPI   C4B  784  18.068  13.959   8.587  0.4135  0.0728 -0.1823
   57POPI    C1  785  10.432   6.697  10.466 -0.0963 -0.0217 -0.0547
   57POPI    C2  786  10.421   6.809  10.850 -0.1978  0.1558 -0.1080
   57POPI    C3  787  10.703   6.955  10.607  0.0709 -0.2113 -0.0253
   57POPI   PO4  788  10.299   6.381  10.473 -0.2044 -0.0556  0.2655
   57POPI   GL1  789  10.063   6.065  10.112 -0.0800  0.0379  0.2088
   57POPI   GL2  790  10.406   5.926  10.027 -0.0575  0.0155  0.0119
   57POPI   C1A  791  10.173   6.317   9.727  0.3260 -0.0973 -0.2311
   57POPI   D2A  792  10.348   6.341   9.303  0.2040 -0.4539 -0.2299
   57POPI   C3A  793  10.489   6.349   8.931 -0.1057  0.3318 -0.0021
   57POPI   C4A  794  10.248   6.327   8.492  0.0617  0.1973  0.0526
   57POPI   C1B  795  10.507   5.934   9.641  0.1040  0.0263 -0.0608
   57POPI   C2B  796  10.584   5.910   9.198 -0.0958  0.2004  0.3189
   57POPI   C3B  797  10.421   5.878   8.761 -0.2650 -0.0199  0.1002
   57POPI   C4B  798  10.630   5.542   8.419 -0.2287 -0.1207  0.0826
   58POPI    C1  799  11.131   7.897  10.625 -0.0225 -0.0852 -0.0204
   58POPI    C2  800  11.197   7.987  11.009 -0.0115 -0.0793 -0.0236
   58POPI    C3  801  10.824   7.925  10.880 -0.0284  0.0580 -0.0423
   58POPI   PO4  802  11.249   8.063  10.481  0.1124 -0.5186 -0.1085
   58POPI   GL1  803  11.120   8.168  10.091 -0.0347  0.0939  0.2815
   58POPI   GL2  804  11.330   8.438   9.991  0.1519 -0.0686  0.1851
   58POPI   C1A  805  11.173   7.856   9.711 -0.2146  0.0054 -0.1312
   58POPI   D2A  806  11.263   7.543   9.504  0.2121  0.1200  0.0447
   58POPI   C3A  807  11.302   7.570   9.112 -0.0356  0.0708  0.3044
   58POPI   C4A  808  11.232   7.581   8.728 -0.1095  0.1016  0.0698
   58POPI   C1B  809  11.352   8.397   9.537  0.0632 -0.0904 -0.0162
   58POPI   C2B  810  11.254   8.245   9.138  0.0310 -0.1098 -0.0409
   58POPI   C3B  811  11.196   8.110   8.833  0.1196  0.1178 -0.0115
   58POPI   C4B  812  11.178   8.018   8.428 -0.1955  0.0901 -0.0606
   59POPI    C1  813  15.550   7.121  11.090  0.1621  0.4413 -0.0610
   59POPI    C2  814  15.806   7.165  11.394  0.3443 -0.2085 -0.1046
   59POPI    C3  815  15.441   7.016  11.460  0.0933  0.3797 -0.0987
   59POPI   PO4  816  15.558   7.313  10.894  0.0923  0.2797  0.0490
   59POPI   GL1  817  15.434   7.378  10.382  0.0301  0.0271 -0.1348
   59POPI   GL2  818  15.385   7.009  10.293 -0.0888 -0.1734  0.1890
   59POPI   C1A  819  15.063   7.522  10.107  0.0454 -0.2172  0.0747
   59POPI   D2A  820  14.784   7.511   9.743  0.2574 -0.1855 -0.0840
   59POPI   C3A  821  14.632   7.201   9.449 -0.0205 -0.1634  0.2673
   59POPI   C4A  822  14.855   6.925   9.179 -0.1447  0.0935  0.1090
   59POPI   C1B  823  15.218   7.129   9.919 -0.2518  0.0969  0.1091
   59POPI   C2B  824  15.171   7.233   9.462 -0.0003 -0.1800 -0.0523
   59POPI   C3B  825  14.984   7.366   9.036 -0.0175  0.3454  0.0990
   59POPI   C4B  826  14.676   7.643   8.693  0.0972 -0.1846  0.1409
   60POPI    C1  827  10.963   1.538  10.127 -0.2479  0.2273  0.0439
   60POPI    C2  828  11.150   1.890  10.097  0.1315  0.0265 -0.0104
   60POPI    C3  829  11.291   1.609  10.344 -0.1609 -0.0953  0.0225
   60POPI   PO4  830  10.863   1.490   9.857 -0.0235  0.0519  0.0198
   60POPI   GL1  831  10.751   1.662   9.514 -0.0882  0.0233 -0.0015
   60POPI   GL2  832  11.049   1.904   9.540 -0.0841  0.0062  0.1646
   60POPI   C1A  833  10.681   1.739   9.061 -0.0577  0.1045  0.2007
   60POPI   D2A  834  10.823   1.761   8.673  0.1154 -0.0260 -0.2352
   60POPI   C3A  835  11.146   1.986   8.460 -0.2037 -0.1500 -0.2052
   60POPI   C4A  836  11.306   2.011   8.121  0.2037  0.2413  0.0845
   60POPI   C1B  837  11.228   1.844   9.139 -0.1549 -0.0751 -0.1628
   60POPI   C2B  838  11.536   1.962   8.807 -0.1519  0.4087  0.0431
   60POPI   C3B  839  11.610   1.761   8.502  0.1612  0.1444 -0.1722
   60POPI   C4B  840  11.817   1.629   8.151 -0.1156  0.0006 -0.3791
   61POPI    C1  841  12.296   0.791  10.581 -0.0653 -0.0800 -0.0828
   61POPI    C2  842  12.436   0.432  10.474 -0.0917 -0.1064 -0.0287
   61POPI    C3  843  12.284   0.487  10.840 -0.2270 -0.0791 -0.0884
   61POPI   PO4  844  12.277   0.883  10.275 -0.2039 -0.1649  0.0151
   61POPI   GL1  845  12.395   0.948   9.853  0.0165 -0.1588  0.2978
   61POPI   GL2  846  12.687   1.046   9.935  0.0083 -0.3233 -0.0558
   61POPI   C1A  847  12.351   0.915   9.463 -0.0834 -0.1890 -0.1080
   61POPI   D2A  848  12.724   0.905   9.098 -0.3165  0.0949  0.0994
   61POPI   C3A  849  12.598   0.972   8.650  0.1410  0.0179  0.2080
   61POPI   C4A  850  12.664   0.759   8.274  0.0479  0.1114  0.1725
   61POPI   C1B  851  12.871   1.144   9.486 -0.0875 -0.1411 -0.0125
   61POPI   C2B  852  13.043   1.367   9.176 -0.3432 -0.0759  0.1812
   61POPI   C3B  853  13.090   1.330   8.827  0.0876 -0.0171 -0.0338
   61POPI   C4B  854  13.012   1.292   8.394  0.1306  0.1450  0.5503
   62POPI    C1  855   9.921   5.593  10.338 -0.2702 -0.0211 -0.0329
   62POPI    C2  856   9.943   5.527  10.732 -0.0940 -0.0974 -0.0544
   62POPI    C3  857   9.598   5.468  10.539 -0.1536 -0.1615  0.0700
   62POPI   PO4  858  10.157   5.415  10.236  0.0561 -0.0029  0.0241
   62POPI   GL1  859  10.180   5.208   9.848 -0.4014  0.3628  0.4233
   62POPI   GL2  860  10.427   5.416   9.805  0.2223  0.2094  0.0809
   62POPI   C1A  861  10.569   4.935   9.734  0.0055 -0.1247  0.3177
   62POPI   D2A  862  10.778   4.945   9.264 -0.0253  0.1089 -0.2937
   62POPI   C3A  863  11.084   5.074   8.969 -0.1815  0.0106  0.3261
   62POPI   C4A  864  11.185   5.225   8.531 -0.0551  0.3491 -0.1031
   62POPI   C1B  865  10.645   5.399   9.460  0.1535 -0.2852 -0.0129
   62POPI   C2B  866  10.590   5.419   8.981 -0.2698  0.0257 -0.0377
   62POPI   C3B  867  10.693   5.124   8.670 -0.0640  0.2317 -0.0081
   62POPI   C4B  868  10.534   5.112   8.191 -0.2537  0.1654 -0.1666
   63POPI    C1  869   6.992  11.479  10.574  0.1542 -0.1700  0.0161
   63POPI    C2  870   7.177  11.657  10.880  0.2141  0.1714 -0.2133
   63POPI    C3  871   7.355  11.355  10.688  0.2035 -0.0018  0.0440
   63POPI   PO4  872   6.837  11.586  10.424  0.0195  0.1663  0.0157
   63POPI   GL1  873   6.473  11.507  10.134  0.2284  0.2381 -0.1526
   63POPI   GL2  874   6.469  11.853  10.071 -0.1816  0.0100 -0.4449
   63POPI   C1A  875   6.538  11.303   9.830  0.2871 -0.3077  0.6356
   63POPI   D2A  876   6.657  11.104   9.525  0.0442 -0.2097 -0.2887
   63POPI   C3A  877   6.450  11.085   9.179 -0.0026 -0.2755 -0.1332
   63POPI   C4A  878   6.421  11.124   8.756  0.0516  0.0497 -0.3428
   63POPI   C1B  879   6.422  11.828   9.746  0.0455  0.1302  0.0567
   63POPI   C2B  880   6.462  11.571   9.406  0.1595 -0.1386  0.2125
   63POPI   C3B  881   6.372  11.568   9.025 -0.0026  0.0379  0.0766
   63POPI   C4B  882   6.392  11.677   8.577 -0.1393 -0.3553 -0.1402
   64POPI    C1  883  12.126   7.071  10.915 -0.0019 -0.0302  0.0291
   64POPI    C2  884  12.348   7.169  11.233  0.0153 -0.1894  0.0672
   64POPI    C3  885  12.181   6.806  11.210  0.0310 -0.1860 -0.1152
   64POPI   PO4  886  12.352   7.181  10.689  0.0279 -0.1511  0.0694
   64POPI   GL1  887  12.723   6.948  10.390  0.3081  0.0662 -0.1850
   64POPI   GL2  888  12.892   6.737  10.550 -0.0764 -0.0739 -0.0039
   64POPI   C1A  889  12.643   6.746   9.897  0.0773 -0.1809  0.1723
   64POPI   D2A  890  12.981   6.642   9.557  0.0213  0.1766 -0.0903
   64POPI   C3A  891  12.947   6.422   9.180 -0.0153  0.1849 -0.2476
   64POPI   C4A  892  12.957   6.283   8.797 -0.3525 -0.2355  0.2292
   64POPI   C1B  893  13.009   6.568  10.208 -0.2082  0.3237  0.1521
   64POPI   C2B  894  13.326   6.440   9.899 -0.2143  0.0747 -0.0017
   64POPI   C3B  895  13.505   6.392   9.392 -0.0921 -0.1094  0.0109
   64POPI   C4B  896  13.489   6.385   8.967 -0.0707  0.2032 -0.0931
   65POPI    C1  897  15.486   1.191  10.786  0.0846 -0.2341  0.1510
   65POPI    C2  898  15.132   1.172  10.972 -0.0063 -0.0868 -0.0050
   65POPI    C3  899  15.470   1.174  11.186 -0.1038 -0.1011  0.1505
   65POPI   PO4  900  15.424   1.432  10.633 -0.0147 -0.2147 -0.0085
   65POPI   GL1  901  15.275   1.592  10.340 -0.0741 -0.1299 -0.0199
   65POPI   GL2  902  15.592   1.748  10.254 -0.1247 -0.1085 -0.1794
   65POPI   C1A  903  15.421   1.341   9.977 -0.4816 -0.3647 -0.1896
   65POPI   D2A  904  15.427   1.352   9.618  0.0742 -0.1505 -0.0266
   65POPI   C3A  905  15.510   1.514   9.246  0.2450 -0.1915  0.2624
   65POPI   C4A  906  15.660   1.871   8.986  0.2830 -0.1019 -0.0004
   65POPI   C1B  907  15.654   1.763   9.769  0.0803  0.0429 -0.0732
   65POPI   C2B  908  15.985   1.644   9.538 -0.0352  0.0821 -0.1936
   65POPI   C3B  909  16.236   1.715   9.251  0.1035 -0.1276 -0.1279
   65POPI   C4B  910  16.465   2.032   9.036  0.0175  0.2011 -0.2061
   66POPI    C1  911   8.729   8.460  10.491  0.2871 -0.0884  0.1070
   66POPI    C2  912   8.736   8.642  10.847 -0.3625  0.2563 -0.0424
   66POPI    C3  913   8.511   8.315  10.793  0.1067 -0.0801 -0.0178
   66POPI   PO4  914   8.776   8.692  10.334 -0.1457 -0.1999 -0.0086
   66POPI   GL1  915   8.861   8.674   9.875 -0.0753 -0.1655  0.0312
   66POPI   GL2  916   8.655   8.868   9.729  0.0357  0.3925 -0.1842
   66POPI   C1A  917   9.055   8.748   9.487  0.2662  0.1518  0.0817
   66POPI   D2A  918   9.263   8.935   8.989 -0.1869 -0.0742  0.1239
   66POPI   C3A  919   9.429   8.818   8.641  0.1854 -0.4041  0.1628
   66POPI   C4A  920   9.577   9.058   8.279  0.1063  0.2177 -0.2439
   66POPI   C1B  921   8.566   9.292   9.703  0.0750  0.4025 -0.0922
   66POPI   C2B  922   8.495   9.763   9.622 -0.2125 -0.1048 -0.0736
   66POPI   C3B  923   8.529  10.062   9.375 -0.1964 -0.1079 -0.0443
   66POPI   C4B  924   8.711  10.183   8.946 -0.0010 -0.0549  0.0332
   67POPI    C1  925   7.859  15.934  10.683  0.0945 -0.1850  0.1622
   67POPI    C2  926   7.671  16.257  10.824 -0.1485 -0.2139 -0.0876
   67POPI    C3  927   8.039  16.168  10.953 -0.1751  0.0258  0.1628
   67POPI   PO4  928   7.821  16.011  10.391 -0.0513 -0.0533 -0.0058
   67POPI   GL1  929   7.571  15.957   9.994 -0.1225 -0.3001  0.1470
   67POPI   GL2  930   7.623  16.320  10.003  0.0837 -0.3171  0.0645
   67POPI   C1A  931   7.813  16.002   9.547 -0.1835  0.0453  0.1089
   67POPI   D2A  932   7.947  16.035   9.072 -0.1102 -0.0427 -0.1150
   67POPI   C3A  933   8.100  15.883   8.740 -0.0990  0.0042  0.2579
   67POPI   C4A  934   7.762  16.041   8.365 -0.1289  0.2224 -0.2269
   67POPI   C1B  935   7.329  16.267   9.652  0.3017 -0.1119 -0.1145
   67POPI   C2B  936   7.290  16.262   9.213 -0.1821  0.0963 -0.2511
   67POPI   C3B  937   7.083  16.388   8.801  0.0524  0.1599 -0.4703
   67POPI   C4B  938   6.814  16.553   8.508 -0.2113  0.3415 -0.1392
   68POPS   CNO  939   3.667   1.077  10.146 -0.1623 -0.1077 -0.2384
   68POPS   PO4  940   3.643   1.325  10.544 -0.1840  0.0762 -0.0982
   68POPS   GL1  941   3.187   1.347  10.276  0.1232 -0.1534 -0.0273
   68POPS   GL2  942   3.123   1.187  10.060  0.0403  0.0402  0.0961
   68POPS   C1A  943   2.918   1.580   9.907  0.1103  0.1127  0.2202
   68POPS   D2A  944   2.556   1.671   9.628 -0.1782 -0.0548  0.1330
   68POPS   C3A  945   2.526   1.555   9.237 -0.3256  0.0091 -0.2292
   68POPS   C4A  946   2.545   1.298   8.843  0.0381  0.1328  0.1430
   68POPS   C1B  947   3.374   1.204   9.783 -0.0616  0.0380  0.2688
   68POPS   C2B  948   3.580   1.412   9.439 -0.0236 -0.1438  0.0281
   68POPS   C3B  949   3.780   1.273   9.094 -0.1706 -0.3057  0.1107
   68POPS   C4B  950   4.161   1.183   8.934  0.0403 -0.0860  0.0193
   69POPS   CNO  951  17.792  12.843  10.310 -0.2765 -0.0170  0.3494
   69POPS   PO4  952  18.149  13.070  10.049 -0.0419  0.3861  0.0284
   69POPS   GL1  953  18.116  12.928   9.598  0.4047  0.4188  0.0639
   69POPS   GL2  954  18.370  13.122   9.557  0.1703 -0.4311 -0.0980
   69POPS   C1A  955  17.959  12.809   9.131 -0.2350  0.1099  0.0907
   69POPS   D2A  956  17.988  12.964   8.729  0.0117  0.1845  0.3406
   69POPS   C3A  957  17.970  13.307   8.401  0.1303 -0.0255  0.2996
   69POPS   C4A  958  18.076  13.737   8.189  0.2330  0.0840 -0.0752
   69POPS   C1B  959  18.317  13.125   9.133 -0.1915  0.1667 -0.0228
   69POPS   C2B  960  18.438  12.789   8.899  0.1399 -0.1284 -0.0125
   69POPS   C3B  961  18.489  12.510   8.473  0.1754  0.0177 -0.0832
   69POPS   C4B  962  18.707  12.123   8.316  0.0066  0.1143 -0.0062
   70POPS   CNO  963  10.579   7.015  10.116  0.1063 -0.0118  0.2876
   70POPS   PO4  964  10.686   7.383  10.237 -0.1701 -0.1598 -0.1371
   70POPS   GL1  965  10.744   7.506   9.862  0.1527  0.1418 -0.0800
   70POPS   GL2  966  10.897   7.266   9.684  0.0603  0.0599  0.2729
   70POPS   C1A  967  10.771   7.699   9.457 -0.0951  0.1506  0.1686
   70POPS   D2A  968  10.869   7.834   9.061  0.1133 -0.0382  0.1853
   70POPS   C3A  969  10.604   7.978   8.626  0.1785  0.2872 -0.0143
   70POPS   C4A  970  10.234   7.995   8.366 -0.1199 -0.1104 -0.0184
   70POPS   C1B  971  11.047   7.071   9.311  0.0490 -0.1824  0.0346
   70POPS   C2B  972  11.149   7.088   8.907  0.0106 -0.1801  0.0673
   70POPS   C3B  973  11.148   7.010   8.534 -0.1350  0.1042 -0.1595
   70POPS   C4B  974  10.908   6.833   8.106  0.0286  0.3042  0.3363
   71POPS   CNO  975   7.012  15.585  10.684  0.2152 -0.4630  0.1336
   71POPS   PO4  976   7.087  15.252  10.455  0.3964 -0.0975  0.2320
   71POPS   GL1  977   7.147  15.452  10.005 -0.0977  0.1000  0.1298
   71POPS   GL2  978   7.452  15.400   9.964 -0.1980 -0.0498 -0.0624
   71POPS   C1A  979   6.982  15.398   9.650 -0.1177  0.0830  0.2399
   71POPS   D2A  980   6.770  15.341   9.238 -0.3209 -0.2403 -0.2055
   71POPS   C3A  981   6.597  15.707   9.055  0.0761  0.1793 -0.0894
   71POPS   C4A  982   6.268  15.767   8.844  0.0218  0.0992  0.0184
   71POPS   C1B  983   7.439  15.688   9.573  0.0379  0.0236  0.2832
   71POPS   C2B  984   7.528  15.808   9.127  0.0895  0.0645  0.0519
   71POPS   C3B  985   7.553  15.669   8.634 -0.0418  0.2658  0.1198
   71POPS   C4B  986   7.653  15.539   8.285 -0.1429  0.1753  0.0768
   72POPS   CNO  987  10.242   0.334  10.125 -0.3606  0.0910 -0.3238
   72POPS   PO4  988  10.637   0.246  10.177 -0.1262 -0.2861 -0.2030
   72POPS   GL1  989  10.535   0.059   9.695  0.2624 -0.3167 -0.0863
   72POPS   GL2  990  10.848  -0.076   9.702 -0.0286 -0.2109  0.3113
   72POPS   C1A  991  10.501   0.297   9.301 -0.0315 -0.0219 -0.2232
   72POPS   D2A  992  10.167   0.382   9.012 -0.1590  0.2251  0.3839
   72POPS   C3A  993  10.141   0.273   8.531  0.3256 -0.0165  0.1010
   72POPS   C4A  994  10.171   0.110   8.061  0.3148 -0.0620  0.0221
   72POPS   C1B  995  11.219  -0.104   9.352  0.0259  0.0653 -0.0864
   72POPS   C2B  996  11.408  -0.277   8.967  0.2796  0.3237  0.0414
   72POPS   C3B  997  11.384  -0.229   8.594  0.0446  0.2243 -0.1913
   72POPS   C4B  998  11.388   0.012   8.306  0.0490 -0.0196  0.2207
   73POPS   CNO  999   4.374  15.599  10.583  0.0400  0.1781 -0.0739
   73POPS   PO4 1000   4.610  15.971  10.537  0.0719  0.1133  0.2669
   73POPS   GL1 1001   4.461  15.828  10.098  0.0678 -0.0232  0.1945
   73POPS   GL2 1002   4.206  15.920  10.177 -0.0688 -0.4336 -0.0757
   73POPS   C1A 1003   4.720  15.519   9.875  0.0382 -0.3006 -0.1378
   73POPS   D2A 1004   4.862  15.493   9.428 -0.1127  0.0821 -0.0434
   73POPS   C3A 1005   4.784  15.808   9.156 -0.0337  0.1136  0.2967
   73POPS   C4A 1006   4.868  15.946   8.793 -0.0503  0.2680  0.1864
   73POPS   C1B 1007   4.294  16.205   9.821  0.0601  0.0086 -0.0155
   73POPS   C2B 1008   4.388  16.116   9.397 -0.0234 -0.2104 -0.1368
   73POPS   C3B 1009   4.412  16.038   8.960 -0.1017 -0.2892  0.0133
   73POPS   C4B 1010   4.259  15.816   8.684 -0.0052 -0.0382  0.1354
   74POPS   CNO 1011   0.828   8.245  10.864  0.0887  0.0782  0.0689
   74POPS   PO4 1012   1.143   8.372  10.778  0.0489  0.0135  0.3692
   74POPS   GL1 1013   1.192   8.003  10.450 -0.1210 -0.2377 -0.0294
   74POPS   GL2 1014   1.345   8.137  10.186 -0.1650 -0.0397  0.0083
   74POPS   C1A 1015   1.064   7.599  10.197 -0.0214  0.0249  0.0156
   74POPS   D2A 1016   1.128   7.097  10.140  0.0993  0.0673  0.0965
   74POPS   C3A 1017   1.043   6.927   9.806 -0.2945  0.2979 -0.3265
   74POPS   C4A 1018   0.854   7.099   9.436  0.1631 -0.0738  0.0073
   74POPS   C1B 1019   1.301   7.983   9.808  0.1388  0.1413  0.0056
   74POPS   C2B 1020   1.538   7.710   9.533  0.0889 -0.0605  0.0297
   74POPS   C3B 1021   1.590   7.381   9.313 -0.1581 -0.3761  0.2095
   74POPS   C4B 1022   1.294   6.984   9.270 -0.3795 -0.1785  0.1930
   75POPS   CNO 1023  15.079  15.043  10.305 -0.1987 -0.0345 -0.2083
   75POPS   PO4 1024  14.604  14.956  10.321  0.6305 -0.1408 -0.1406
   75POPS   GL1 1025  14.667  15.011   9.890  0.3717 -0.1649  0.0096
   75POPS   GL2 1026  14.295  15.006   9.651 -0.0923 -0.1161  0.0944
   75POPS   C1A 1027  14.851  14.904   9.543 -0.0232 -0.0477 -0.2278
   75POPS   D2A 1028  14.896  15.012   9.170  0.1639  0.2031  0.1743
   75POPS   C3A 1029  14.690  14.640   8.993 -0.1077 -0.2392 -0.1664
   75POPS   C4A 1030  14.658  14.435   8.567 -0.2368  0.2153 -0.2254
   75POPS   C1B 1031  14.478  15.196   9.302  0.1657  0.0473  0.0846
   75POPS   C2B 1032  14.552  15.144   8.852  0.3216  0.0402 -0.2908
   75POPS   C3B 1033  14.763  15.323   8.557 -0.1331 -0.2983 -0.0737
   75POPS   C4B 1034  14.951  15.558   8.206  0.2827 -0.3244 -0.0610
   76POPS   CNO 1035   3.111   9.499  10.269 -0.0947  0.2702  0.1776
   76POPS   PO4 1036   2.695   9.514  10.475 -0.3091  0.1872 -0.2719
   76POPS   GL1 1037   2.507   9.481  10.053 -0.0798  0.0033 -0.0868
   76POPS   GL2 1038   2.529   9.789   9.908 -0.3643 -0.0003 -0.3136
   76POPS   C1A 1039   2.495   9.416   9.640  0.1312  0.2788  0.1861
   76POPS   D2A 1040   2.513   9.273   9.148 -0.2029 -0.1639 -0.1721
   76POPS   C3A 1041   2.383   9.199   8.731 -0.0087 -0.0006 -0.1213
   76POPS   C4A 1042   2.581   9.491   8.338  0.1493 -0.2018 -0.0008
   76POPS   C1B 1043   2.816   9.815   9.604 -0.1206  0.0391 -0.2451
   76POPS   C2B 1044   2.814   9.733   9.124 -0.2050 -0.1246 -0.0074
   76POPS   C3B 1045   2.927   9.458   8.781  0.1640 -0.2035  0.1090
   76POPS   C4B 1046   2.888   9.110   8.496  0.0885  0.3010  0.4630
   77POPS   CNO 1047  17.719   2.257  11.056 -0.0425 -0.0751  0.0397
   77POPS   PO4 1048  17.580   2.430  10.760  0.2634  0.1636  0.0172
   77POPS   GL1 1049  17.538   2.602  10.427 -0.1376  0.3473  0.0768
   77POPS   GL2 1050  17.857   2.745  10.278  0.1472  0.0553  0.0767
   77POPS   C1A 1051  17.476   2.763   9.983  0.3400  0.0921  0.1000
   77POPS   D2A 1052  17.311   2.867   9.493 -0.0985  0.3024 -0.1027
   77POPS   C3A 1053  17.561   2.983   9.187  0.1150  0.2126 -0.2974
   77POPS   C4A 1054  17.996   2.982   9.126 -0.1789 -0.1294 -0.2724
   77POPS   C1B 1055  18.199   2.825  10.033 -0.0864  0.0351 -0.0784
   77POPS   C2B 1056  18.714   2.831   9.838  0.1456 -0.2918 -0.0293
   77POPS   C3B 1057  18.798   3.026   9.441  0.0704 -0.0022 -0.0345
   77POPS   C4B 1058  18.666   3.228   9.067  0.0716 -0.2063  0.4314
   78POPS   CNO 1059   4.984  16.866  11.001 -0.1502  0.1738  0.0920
   78POPS   PO4 1060   5.073  16.405  10.861 -0.1385 -0.0475 -0.1806
   78POPS   GL1 1061   4.963  16.322  10.402 -0.1347 -0.2284  0.0109
   78POPS   GL2 1062   5.242  16.431  10.125  0.0023  0.0400  0.3362
   78POPS   C1A 1063   4.775  16.205  10.006 -0.0473 -0.1496 -0.2516
   78POPS   D2A 1064   4.808  15.942   9.669  0.1735 -0.1783 -0.1186
   78POPS   C3A 1065   4.880  16.259   9.395 -0.0497  0.1511 -0.0669
   78POPS   C4A 1066   4.952  16.395   9.009 -0.0887  0.0208  0.1187
   78POPS   C1B 1067   5.167  16.475   9.792 -0.0690 -0.1541 -0.0090
   78POPS   C2B 1068   5.186  16.617   9.389  0.0096 -0.1533  0.0486
   78POPS   C3B 1069   5.228  17.032   9.085 -0.1876 -0.3381 -0.1243
   78POPS   C4B 1070   5.399  17.439   8.943  0.0352 -0.2580 -0.0183
   79POPS   CNO 1071   9.064  16.117  10.185 -0.0656 -0.0466  0.2076
   79POPS   PO4 1072   9.089  16.495  10.240 -0.1688 -0.2847 -0.1185
   79POPS   GL1 1073   8.832  16.473   9.811 -0.4304 -0.0997 -0.5828
   79POPS   GL2 1074   8.982  16.255   9.686  0.3892  0.0058 -0.1674
   79POPS   C1A 1075   8.602  16.576   9.470  0.1049  0.1161  0.4253
   79POPS   D2A 1076   8.312  16.351   9.205 -0.1640  0.0978  0.0816
   79POPS   C3A 1077   8.445  16.256   8.741 -0.1629 -0.0408  0.1076
   79POPS   C4A 1078   8.309  16.008   8.301  0.0176 -0.0095  0.2705
   79POPS   C1B 1079   9.235  16.127   9.358 -0.2526  0.1086 -0.1743
   79POPS   C2B 1080   9.305  16.089   8.956 -0.0820  0.2210 -0.0876
   79POPS   C3B 1081   9.362  15.775   8.741 -0.0757  0.2253  0.1025
   79POPS   C4B 1082   9.503  15.447   8.447  0.1710 -0.0749  0.3592
   80POPS   CNO 1083   3.025  12.274   9.941  0.1351 -0.0174 -0.0287
   80POPS   PO4 1084   3.407  12.510  10.078 -0.1038 -0.0427  0.0515
   80POPS   GL1 1085   3.419  12.341   9.634  0.0212 -0.2623 -0.1914
   80POPS   GL2 1086   3.222  12.420   9.379  0.0850  0.1454 -0.0245
   80POPS   C1A 1087   3.628  12.052   9.449 -0.2464  0.1044  0.2221
   80POPS   D2A 1088   3.597  11.996   9.039 -0.0425  0.0239  0.1521
   80POPS   C3A 1089   3.866  11.898   8.703 -0.1019 -0.2248 -0.3591
   80POPS   C4A 1090   4.194  12.119   8.655  0.2034 -0.0216  0.0764
   80POPS   C1B 1091   3.163  12.076   9.279 -0.0496  0.1094 -0.0799
   80POPS   C2B 1092   3.133  11.796   8.970 -0.1517  0.0299  0.1104
   80POPS   C3B 1093   3.111  11.514   8.533  0.1849  0.2938 -0.2903
   80POPS   C4B 1094   3.266  11.153   8.251 -0.0704 -0.0369  0.0177
   81POPS   CNO 1095  14.313  11.351  10.246  0.0496 -0.0337  0.0567
   81POPS   PO4 1096  14.721  11.545  10.214 -0.0526 -0.1641  0.1851
   81POPS   GL1 1097  14.683  11.525   9.762  0.0269  0.2771 -0.1793
   81POPS   GL2 1098  14.446  11.680   9.743 -0.1311  0.1750  0.1815
   81POPS   C1A 1099  14.546  11.440   9.286 -0.0200 -0.0117 -0.2357
   81POPS   D2A 1100  14.532  11.410   8.926 -0.0082 -0.0565 -0.0649
   81POPS   C3A 1101  14.219  11.532   8.618 -0.2900  0.1733  0.0347
   81POPS   C4A 1102  13.922  11.345   8.307 -0.1453 -0.1699  0.0808
   81POPS   C1B 1103  14.119  11.655   9.436 -0.0847 -0.3079 -0.0547
   81POPS   C2B 1104  14.002  11.437   9.046  0.0037 -0.2507 -0.1065
   81POPS   C3B 1105  13.780  11.130   8.821  0.0642  0.1575 -0.2341
   81POPS   C4B 1106  13.644  10.898   8.415 -0.2577 -0.2562  0.0914
   82POPS   CNO 1107   8.036   3.402  10.434 -0.1733 -0.0094 -0.0936
   82POPS   PO4 1108   8.010   3.149  10.086 -0.0622 -0.2959 -0.0526
   82POPS   GL1 1109   8.133   2.848   9.820 -0.1283  0.0598  0.1142
   82POPS   GL2 1110   7.831   2.955   9.661 -0.0920 -0.2655  0.1486
   82POPS   C1A 1111   8.344   2.534   9.594 -0.0138  0.2287  0.1569
   82POPS   D2A 1112   8.516   2.425   9.210  0.2761  0.1794 -0.0816
   82POPS   C3A 1113   8.754   2.201   8.862  0.2000 -0.0262  0.0069
   82POPS   C4A 1114   9.104   2.147   8.643  0.0479  0.3802 -0.0615
   82POPS   C1B 1115   7.914   2.654   9.388  0.1295  0.0021  0.1260
   82POPS   C2B 1116   8.080   2.610   9.012  0.0862 -0.1675  0.1176
   82POPS   C3B 1117   8.303   2.580   8.662 -0.0668 -0.0938 -0.4698
   82POPS   C4B 1118   8.211   2.851   8.338 -0.5161  0.2474  0.0690
   83POPS   CNO 1119   5.990   5.226  10.324 -0.0362 -0.0859 -0.1845
   83POPS   PO4 1120   5.708   5.511  10.372  0.1413  0.1800  0.1270
   83POPS   GL1 1121   5.704   5.716   9.997 -0.0184  0.1141  0.0942
   83POPS   GL2 1122   5.951   5.491   9.902 -0.1268  0.0109 -0.0562
   83POPS   C1A 1123   5.871   5.981   9.731  0.0793  0.0217 -0.0141
   83POPS   D2A 1124   5.876   6.044   9.299 -0.3724 -0.0837  0.2246
   83POPS   C3A 1125   5.868   5.718   8.969 -0.1534 -0.0265  0.1585
   83POPS   C4A 1126   5.868   5.458   8.708  0.1018  0.2434  0.2410
   83POPS   C1B 1127   5.893   5.571   9.444 -0.3197  0.4433 -0.1970
   83POPS   C2B 1128   5.617   5.351   9.145  0.0831  0.2523  0.0774
   83POPS   C3B 1129   5.432   5.209   8.723  0.1040  0.0233  0.2350
   83POPS   C4B 1130   5.440   5.168   8.382  0.2640 -0.0524  0.3320
   84POPS   CNO 1131   7.654  13.206  10.035  0.1432 -0.0139  0.1124
   84POPS   PO4 1132   7.224  13.089  10.166  0.1761 -0.1171  0.0413
   84POPS   GL1 1133   7.270  13.033   9.778  0.1275 -0.0455  0.0847
   84POPS   GL2 1134   7.156  12.707   9.708  0.1704  0.4269  0.1072
   84POPS   C1A 1135   7.386  13.130   9.354  0.0806 -0.1181  0.2945
   84POPS   D2A 1136   7.404  12.922   9.046 -0.0827 -0.0442  0.1443
   84POPS   C3A 1137   7.314  13.137   8.713 -0.0941 -0.3510 -0.1930
   84POPS   C4A 1138   7.386  13.223   8.291  0.0081 -0.0890  0.4487
   84POPS   C1B 1139   7.162  12.531   9.376 -0.0410  0.0358  0.2255
   84POPS   C2B 1140   7.082  12.491   8.978  0.0527 -0.1659  0.0085
   84POPS   C3B 1141   7.236  12.234   8.700 -0.2076  0.0430 -0.3032
   84POPS   C4B 1142   7.706  12.166   8.555  0.0536  0.1560 -0.0855
   85POPS   CNO 1143   1.286  16.608  10.555  0.2647 -0.0706  0.0990
   85POPS   PO4 1144   1.025  16.868  10.805  0.0187  0.2796  0.1381
   85POPS   GL1 1145   0.773  16.906  10.455 -0.0091  0.0750 -0.0649
   85POPS   GL2 1146   0.603  17.113  10.271 -0.0685  0.2051  0.0319
   85POPS   C1A 1147   0.494  16.597  10.115  0.0336 -0.0898 -0.1763
   85POPS   D2A 1148   0.035  16.424  10.117 -0.2535  0.1469  0.0577
   85POPS   C3A 1149  -0.231  16.480   9.779 -0.0251  0.1482 -0.0977
   85POPS   C4A 1150  -0.303  16.256   9.442  0.0018  0.0873  0.0706
   85POPS   C1B 1151   0.697  16.956   9.840  0.3379  0.1467  0.0748
   85POPS   C2B 1152   0.749  16.857   9.438  0.0014 -0.1734 -0.1889
   85POPS   C3B 1153   0.976  16.881   9.106  0.0908 -0.0529 -0.0418
   85POPS   C4B 1154   1.109  16.858   8.677 -0.0990  0.1487 -0.1016
   86POPS   CNO 1155   5.109   5.869  10.415 -0.0450  0.0065  0.3226
   86POPS   PO4 1156   4.732   5.735  10.286 -0.1525 -0.1617  0.0309
   86POPS   GL1 1157   4.791   5.502   9.932 -0.0965 -0.2490 -0.2366
   86POPS   GL2 1158   4.578   5.602   9.710 -0.0124  0.2615 -0.1290
   86POPS   C1A 1159   4.902   5.372   9.401 -0.1501  0.0512 -0.1816
   86POPS   D2A 1160   5.127   5.411   9.168  0.0486 -0.1755  0.2389
   86POPS   C3A 1161   4.999   5.070   8.835  0.3274 -0.1006  0.0826
   86POPS   C4A 1162   4.925   4.854   8.471 -0.0076 -0.2028  0.1156
   86POPS   C1B 1163   4.337   5.643   9.261  0.3762  0.1242 -0.0049
   86POPS   C2B 1164   4.248   5.528   8.827  0.1053 -0.1034  0.0808
   86POPS   C3B 1165   4.594   5.286   8.526 -0.0194 -0.0469 -0.0908
   86POPS   C4B 1166   4.836   5.319   8.189  0.0786 -0.2296 -0.0546
   87POPS   CNO 1167   8.585   4.198  10.311  0.0602  0.1958  0.4392
   87POPS   PO4 1168   8.249   4.171  10.036  0.0630  0.1621  0.0739
   87POPS   GL1 1169   8.295   4.106   9.600 -0.1862  0.1641 -0.1219
   87POPS   GL2 1170   8.237   4.306   9.386 -0.0328 -0.0565  0.0295
   87POPS   C1A 1171   8.524   3.934   9.259 -0.1351  0.0321 -0.0265
   87POPS   D2A 1172   8.642   3.860   8.819  0.1438 -0.3762  0.2917
   87POPS   C3A 1173   8.444   4.039   8.543 -0.2332  0.0150 -0.2499
   87POPS   C4A 1174   8.468   3.990   8.175  0.0588  0.3494  0.0984
   87POPS   C1B 1175   8.163   4.228   8.979 -0.1412  0.0432  0.0689
   87POPS   C2B 1176   8.012   4.239   8.541 -0.1566  0.0772 -0.0559
   87POPS   C3B 1177   7.793   4.584   8.346 -0.1486 -0.0474  0.1281
   87POPS   C4B 1178   8.000   4.843   7.982 -0.1536  0.1441 -0.0486
   88POPS   CNO 1179  13.511  12.381  10.215 -0.0323  0.2179  0.2464
   88POPS   PO4 1180  13.303  11.954  10.182  0.0195  0.2678  0.1223
   88POPS   GL1 1181  13.597  11.698   9.934  0.2209  0.2638 -0.0967
   88POPS   GL2 1182  13.922  11.728   9.931 -0.0861  0.1160 -0.3746
   88POPS   C1A 1183  13.696  11.441   9.618  0.0239 -0.0403 -0.0324
   88POPS   D2A 1184  13.662  11.174   9.339 -0.4150 -0.3252 -0.0563
   88POPS   C3A 1185  13.323  10.986   9.162  0.2031  0.1601 -0.0664
   88POPS   C4A 1186  13.319  10.729   8.819 -0.0402  0.3276 -0.1613
   88POPS   C1B 1187  14.138  11.273   9.744 -0.0363 -0.0505  0.1718
   88POPS   C2B 1188  14.210  11.073   9.339  0.2252 -0.1629 -0.0987
   88POPS   C3B 1189  14.219  10.938   9.003  0.0530  0.0757  0.0915
   88POPS   C4B 1190  14.275  11.028   8.648  0.0055  0.0274 -0.1521
   89POPS   CNO 1191  14.696  12.808  10.482 -0.1283 -0.1063 -0.2060
   89POPS   PO4 1192  14.703  12.457  10.147 -0.1714 -0.0164  0.0262
   89POPS   GL1 1193  14.709  12.674   9.716  0.3688 -0.1295 -0.1384
   89POPS   GL2 1194  14.379  12.814   9.685  0.0986 -0.0436 -0.1172
   89POPS   C1A 1195  14.742  12.397   9.285 -0.0089  0.0709 -0.1807
   89POPS   D2A 1196  14.897  12.373   8.896 -0.1720 -0.2117  0.0139
   89POPS   C3A 1197  14.910  12.795   8.898  0.1792 -0.0504  0.0440
   89POPS   C4A 1198  15.105  12.969   8.459  0.0206 -0.0819 -0.0333
   89POPS   C1B 1199  14.317  12.618   9.158  0.0978  0.1035 -0.1155
   89POPS   C2B 1200  14.446  12.491   8.824  0.0838 -0.2170 -0.2232
   89POPS   C3B 1201  14.762  12.451   8.452 -0.1246 -0.4984  0.0983
   89POPS   C4B 1202  14.783  12.726   8.155  0.0311  0.3756  0.0017
   90POPS   CNO 1203   5.927   1.873  10.617 -0.0893 -0.2461  0.1641
   90POPS   PO4 1204   5.593   1.769  10.389  0.1249 -0.0649  0.0815
   90POPS   GL1 1205   5.564   1.971   9.969  0.2516 -0.3194 -0.2727
   90POPS   GL2 1206   5.669   2.339   9.866 -0.2064  0.0720  0.1111
   90POPS   C1A 1207   5.580   1.953   9.553 -0.1869  0.1570 -0.1616
   90POPS   D2A 1208   5.376   1.856   9.175  0.3222  0.0583 -0.0474
   90POPS   C3A 1209   4.857   1.757   9.000 -0.0133  0.2516 -0.0570
   90POPS   C4A 1210   4.620   1.683   8.583 -0.1308 -0.1867 -0.1097
   90POPS   C1B 1211   5.600   2.472   9.436  0.1445 -0.1078  0.1472
   90POPS   C2B 1212   5.643   2.351   9.055  0.0482 -0.0275  0.0552
   90POPS   C3B 1213   5.511   2.104   8.760  0.1305 -0.1823  0.0406
   90POPS   C4B 1214   5.770   1.860   8.429  0.0813 -0.0373  0.2182
   91POPS   CNO 1215  16.743  11.155  10.781  0.1143  0.0126  0.0015
   91POPS   PO4 1216  16.681  10.896  10.496 -0.0081  0.0838 -0.0127
   91POPS   GL1 1217  16.677  10.930  10.012 -0.3273 -0.2875 -0.0482
   91POPS   GL2 1218  16.568  10.701   9.938 -0.3260  0.0751  0.1167
   91POPS   C1A 1219  16.666  10.994   9.516 -0.0601 -0.0116 -0.0262
   91POPS   D2A 1220  16.516  10.926   9.082 -0.1350 -0.2119 -0.2021
   91POPS   C3A 1221  16.695  11.040   8.648 -0.1508 -0.0387 -0.1813
   91POPS   C4A 1222  16.548  10.807   8.269  0.0958 -0.1127  0.0959
   91POPS   C1B 1223  16.571  10.470   9.584 -0.0723 -0.1726 -0.1950
   91POPS   C2B 1224  16.468  10.254   9.228  0.0092 -0.4378  0.1342
   91POPS   C3B 1225  16.426  10.220   8.790  0.2389  0.2986 -0.2297
   91POPS   C4B 1226  16.178   9.879   8.639 -0.0605 -0.0368  0.3054
   92POPS   CNO 1227  10.088   2.552   9.984 -0.0439 -0.0982 -0.0545
   92POPS   PO4 1228  10.166   2.120   9.994  0.0018 -0.0984  0.1960
   92POPS   GL1 1229  10.009   2.094   9.661 -0.0965  0.0662  0.2064
   92POPS   GL2 1230   9.743   2.298   9.649 -0.0704 -0.3277 -0.0269
   92POPS   C1A 1231  10.221   1.860   9.345  0.1684  0.3052  0.1441
   92POPS   D2A 1232  10.234   1.575   9.058  0.0615 -0.2498  0.1720
   92POPS   C3A 1233  10.213   1.606   8.654 -0.1185 -0.4639  0.1142
   92POPS   C4A 1234  10.445   1.545   8.251 -0.1936 -0.2103 -0.0141
   92POPS   C1B 1235   9.606   2.075   9.239 -0.1926 -0.1676 -0.0621
   92POPS   C2B 1236   9.521   2.369   8.949  0.1456  0.1780 -0.0315
   92POPS   C3B 1237   9.376   2.637   8.604  0.0371 -0.0861  0.2557
   92POPS   C4B 1238   9.477   2.787   8.216  0.1220  0.0159 -0.1545
   93POPS   CNO 1239  12.417   8.152  11.144  0.0118 -0.0127  0.0073
   93POPS   PO4 1240  12.240   8.007  10.732  0.1606 -0.0098 -0.3467
   93POPS   GL1 1241  12.122   7.879  10.305 -0.1594  0.0968  0.2396
   93POPS   GL2 1242  12.067   7.659  10.038  0.0676 -0.0281 -0.0684
   93POPS   C1A 1243  12.126   8.170   9.983  0.2290 -0.1487  0.2469
   93POPS   D2A 1244  12.314   8.528   9.791  0.0124  0.0438 -0.2924
   93POPS   C3A 1245  12.438   8.537   9.355 -0.2892 -0.1795 -0.2046
   93POPS   C4A 1246  12.592   8.251   9.064  0.1756 -0.0174  0.0328
   93POPS   C1B 1247  12.177   7.531   9.584 -0.2643 -0.0647 -0.1462
   93POPS   C2B 1248  12.449   7.389   9.189 -0.3019  0.1299  0.1750
   93POPS   C3B 1249  12.517   7.353   8.798  0.2491 -0.0058 -0.0362
   93POPS   C4B 1250  12.608   7.112   8.486  0.1567 -0.0450 -0.1407
   94POPS   CNO 1251   1.762  15.240  10.866 -0.0425 -0.1680  0.4007
   94POPS   PO4 1252   1.529  14.990  10.605  0.2077 -0.1124 -0.0531
   94POPS   GL1 1253   1.544  14.810  10.312  0.0842  0.1302 -0.2154
   94POPS   GL2 1254   1.301  14.445  10.114 -0.2338 -0.3097 -0.0911
   94POPS   C1A 1255   1.705  14.779  10.024  0.0456  0.3072  0.0471
   94POPS   D2A 1256   1.693  14.888   9.586  0.0236  0.2334 -0.1260
   94POPS   C3A 1257   1.899  15.139   9.166  0.0049 -0.1424 -0.1380
   94POPS   C4A 1258   1.959  15.268   8.698  0.0857  0.1657  0.4302
   94POPS   C1B 1259   1.350  14.487   9.692 -0.2669  0.1208 -0.0475
   94POPS   C2B 1260   1.460  14.559   9.298  0.1157  0.0019  0.0676
   94POPS   C3B 1261   1.451  14.976   9.110 -0.0490  0.3598  0.2076
   94POPS   C4B 1262   1.368  15.162   8.748 -0.2245  0.2522 -0.1102
   95POPS   CNO 1263   4.392  17.646  11.011 -0.0207  0.0831  0.4832
   95POPS   PO4 1264   4.778  17.742  10.832 -0.0691  0.1444 -0.2789
   95POPS   GL1 1265   4.707  17.587  10.367  0.2769 -0.3361 -0.0866
   95POPS   GL2 1266   4.518  17.279  10.435 -0.2968  0.1145  0.0709
   95POPS   C1A 1267   4.737  17.804  10.022 -0.0624 -0.1116  0.2870
   95POPS   D2A 1268   4.837  17.593   9.720  0.1142 -0.2768 -0.2984
   95POPS   C3A 1269   4.979  17.181   9.689  0.1032 -0.2993  0.1293
   95POPS   C4A 1270   5.250  16.955   9.764 -0.0634 -0.0932  0.1012
   95POPS   C1B 1271   4.544  17.237  10.029  0.1065 -0.1322 -0.1837
   95POPS   C2B 1272   4.550  17.233   9.522 -0.1063  0.0664 -0.1236
   95POPS   C3B 1273   4.799  16.971   9.282 -0.0146 -0.1242  0.3592
   95POPS   C4B 1274   4.767  16.874   8.884 -0.2055  0.0789  0.1254
   96POPS   CNO 1275   7.163   7.961  10.207  0.0639  0.1666 -0.3697
   96POPS   PO4 1276   7.125   8.428  10.389  0.1845  0.1556  0.2041
   96POPS   GL1 1277   7.373   8.419  10.085 -0.0867 -0.1516 -0.3548
   96POPS   GL2 1278   7.623   8.653  10.078 -0.1248 -0.1150 -0.3651
   96POPS   C1A 1279   7.351   8.385   9.600  0.1712  0.2164 -0.2397
   96POPS   D2A 1280   7.458   8.339   9.111  0.2272  0.0658  0.0480
   96POPS   C3A 1281   7.275   8.582   8.771  0.1859 -0.1947  0.0896
   96POPS   C4A 1282   6.940   8.688   8.463  0.2747  0.1391 -0.0905
   96POPS   C1B 1283   7.776   8.833   9.852  0.1493 -0.2310  0.1019
   96POPS   C2B 1284   7.665   8.839   9.477  0.0416 -0.3236  0.0654
   96POPS   C3B 1285   7.566   8.779   9.080 -0.2510 -0.1885 -0.3292
   96POPS   C4B 1286   7.775   8.829   8.663  0.1684 -0.1003  0.2071
   97POPS   CNO 1287  13.254   6.007  11.180 -0.4067  0.1197 -0.0300
   97POPS   PO4 1288  12.891   5.967  11.104  0.2441 -0.0967 -0.0005
   97POPS   GL1 1289  13.126   5.968  10.690  0.2501 -0.0882  0.0097
   97POPS   GL2 1290  13.307   6.118  10.339 -0.0990 -0.1717  0.0126
   97POPS   C1A 1291  12.937   5.832  10.207  0.1842  0.1732 -0.1463
   97POPS   D2A 1292  12.955   5.613   9.870  0.0844  0.1221  0.0947
   97POPS   C3A 1293  12.898   5.586   9.458 -0.0055 -0.3268 -0.0822
   97POPS   C4A 1294  12.901   5.387   9.115  0.2087 -0.0420 -0.0033
   97POPS   C1B 1295  13.378   5.957   9.907  0.2914 -0.1232 -0.0090
   97POPS   C2B 1296  13.346   5.942   9.412  0.3518 -0.1300 -0.2441
   97POPS   C3B 1297  13.279   5.887   8.936 -0.6510  0.4011  0.2218
   97POPS   C4B 1298  13.343   5.932   8.493  0.5303 -0.0826 -0.1980
   98POPS   CNO 1299   6.607   6.563  10.480 -0.3675 -0.1746  0.1671
   98POPS   PO4 1300   6.333   6.578  10.242  0.0901 -0.3153 -0.2644
   98POPS   GL1 1301   6.611   6.562   9.970 -0.0081 -0.0299 -0.0153
   98POPS   GL2 1302   6.765   6.358  10.046  0.0927  0.2664 -0.3111
   98POPS   C1A 1303   6.446   6.529   9.543 -0.0712  0.1491 -0.0237
   98POPS   D2A 1304   6.183   6.451   9.250 -0.1185  0.2090 -0.2414
   98POPS   C3A 1305   6.333   6.698   9.000  0.0065  0.0847  0.0886
   98POPS   C4A 1306   6.395   6.667   8.548 -0.1556  0.1048  0.1107
   98POPS   C1B 1307   6.834   6.228   9.618  0.0290 -0.0228 -0.1414
   98POPS   C2B 1308   6.712   6.339   9.152  0.3302 -0.2148  0.0889
   98POPS   C3B 1309   6.710   6.268   8.738 -0.0478 -0.0480 -0.0707
   98POPS   C4B 1310   6.437   6.205   8.414  0.1099 -0.3600  0.1040
   99POPS   CNO 1311  17.753  16.597  10.549 -0.0151 -0.1764 -0.3486
   99POPS   PO4 1312  17.551  16.755  10.903 -0.1172 -0.2485 -0.1478
   99POPS   GL1 1313  17.539  17.084  10.512  0.1941  0.1014 -0.1250
   99POPS   GL2 1314  17.807  17.116  10.330 -0.1679 -0.1284  0.2511
   99POPS   C1A 1315  17.392  17.099  10.116 -0.4996 -0.0389  0.4829
   99POPS   D2A 1316  17.000  17.030   9.921 -0.2464  0.0437  0.1213
   99POPS   C3A 1317  16.924  17.010   9.382  0.1698 -0.4948  0.0404
   99POPS   C4A 1318  16.723  16.877   8.968 -0.0989  0.0269 -0.1302
   99POPS   C1B 1319  17.775  16.962   9.855 -0.0969 -0.0061 -0.0568
   99POPS   C2B 1320  17.874  16.773   9.383  0.1504 -0.2249 -0.3822
   99POPS   C3B 1321  17.644  16.553   9.052  0.0181  0.3873 -0.1230
   99POPS   C4B 1322  17.401  16.470   8.731 -0.0391  0.2235 -0.0615
  100POPS   CNO 1323   6.276   9.457  10.373 -0.0368  0.0900 -0.0688
  100POPS   PO4 1324   5.904   9.634  10.227  0.2120 -0.0755 -0.5140
  100POPS   GL1 1325   5.892   9.484   9.867 -0.0688  0.3000  0.2175
  100POPS   GL2 1326   6.153   9.756   9.759  0.1205 -0.1949  0.0980
  100POPS   C1A 1327   5.887   9.429   9.470 -0.3606  0.2799  0.2404
  100POPS   D2A 1328   6.094   9.477   9.083 -0.0698 -0.0731  0.0470
  100POPS   C3A 1329   5.896   9.628   8.772  0.0520 -0.0911  0.1970
  100POPS   C4A 1330   5.856   9.916   8.383 -0.2185 -0.1125  0.0334
  100POPS   C1B 1331   6.160   9.922   9.422 -0.2987  0.2118  0.1856
  100POPS   C2B 1332   6.168   9.982   8.958  0.1839  0.0586  0.0054
  100POPS   C3B 1333   6.210  10.236   8.527  0.1428  0.2563  0.1415
  100POPS   C4B 1334   6.154  10.657   8.429 -0.2600 -0.2927 -0.1094
  101POPS   CNO 1335  14.997   4.449  10.830  0.0717 -0.1305  0.1341
  101POPS   PO4 1336  15.132   4.080  10.868 -0.1185  0.1128  0.0635
  101POPS   GL1 1337  15.360   3.924  10.504  0.0513  0.1157 -0.2211
  101POPS   GL2 1338  15.536   3.573  10.506 -0.1881 -0.0680 -0.1425
  101POPS   C1A 1339  15.711   4.299  10.261  0.0293  0.2200 -0.2048
  101POPS   D2A 1340  15.896   4.664  10.168 -0.1343 -0.1683 -0.0067
  101POPS   C3A 1341  15.941   5.052   9.914  0.1131 -0.0844 -0.2775
  101POPS   C4A 1342  15.964   5.480  10.040  0.1244 -0.0289 -0.2676
  101POPS   C1B 1343  15.708   3.767  10.169  0.2650 -0.2699  0.0670
  101POPS   C2B 1344  15.785   3.954   9.814 -0.2191 -0.2096 -0.1586
  101POPS   C3B 1345  15.920   4.369   9.714 -0.1494 -0.0256  0.1715
  101POPS   C4B 1346  16.024   4.727   9.468  0.0516  0.2183 -0.0958
  102POPS   CNO 1347   2.033   9.083  10.810  0.0959  0.0681 -0.1044
  102POPS   PO4 1348   1.772   9.015  10.504  0.0410  0.1014  0.0566
  102POPS   GL1 1349   1.519   9.009  10.085  0.2948 -0.3691 -0.1650
  102POPS   GL2 1350   1.570   9.228   9.957 -0.0621  0.1449  0.0630
  102POPS   C1A 1351   1.237   8.847   9.773  0.0879  0.0009  0.0782
  102POPS   D2A 1352   0.941   8.748   9.525 -0.0546  0.2406 -0.2709
  102POPS   C3A 1353   0.933   8.743   9.132  0.2675  0.3824  0.2873
  102POPS   C4A 1354   0.809   8.671   8.811 -0.2588  0.5093 -0.2646
  102POPS   C1B 1355   1.574   9.035   9.540 -0.0035 -0.2807  0.2168
  102POPS   C2B 1356   1.441   9.041   9.176 -0.1311 -0.0164 -0.4854
  102POPS   C3B 1357   1.541   8.848   8.768  0.0076 -0.0285 -0.0819
  102POPS   C4B 1358   1.744   8.713   8.366  0.4815 -0.3123  0.1283
  103POPS   CNO 1359   9.839  11.599  10.164 -0.1268  0.0426  0.1127
  103POPS   PO4 1360   9.424  11.707  10.199 -0.1334 -0.0013 -0.2937
  103POPS   GL1 1361   9.510  11.623   9.782 -0.0542 -0.0897 -0.1077
  103POPS   GL2 1362   9.530  11.277   9.800 -0.2474  0.0736 -0.7145
  103POPS   C1A 1363   9.405  11.898   9.464 -0.3541  0.0577  0.1050
  103POPS   D2A 1364   9.466  11.828   8.901 -0.0630 -0.0576 -0.0210
  103POPS   C3A 1365   9.652  11.390   8.840 -0.0022  0.2704  0.2895
  103POPS   C4A 1366   9.483  10.901   8.678 -0.3776 -0.1054 -0.0631
  103POPS   C1B 1367   9.209  11.319   9.487 -0.1757  0.3050  0.1157
  103POPS   C2B 1368   9.200  11.312   9.041 -0.0361  0.1118 -0.0695
  103POPS   C3B 1369   9.176  11.312   8.634 -0.0136 -0.2279 -0.3049
  103POPS   C4B 1370   9.479  11.255   8.265  0.1152 -0.1949  0.3509
  104POPS   CNO 1371  13.020   2.570  10.588  0.1815 -0.0938  0.1622
  104POPS   PO4 1372  13.374   2.898  10.717 -0.2367 -0.1845  0.3674
  104POPS   GL1 1373  13.360   2.751  10.228  0.4160 -0.1331  0.0817
  104POPS   GL2 1374  13.090   2.724  10.105  0.2771  0.0786 -0.2124
  104POPS   C1A 1375  13.371   2.826   9.675  0.0937 -0.1235  0.0507
  104POPS   D2A 1376  13.505   2.786   9.261  0.2005 -0.3632  0.1684
  104POPS   C3A 1377  13.294   3.038   8.830 -0.0207 -0.1244  0.0060
  104POPS   C4A 1378  12.984   3.299   8.592  0.2194 -0.2552 -0.1629
  104POPS   C1B 1379  12.883   2.826   9.723 -0.0771  0.4797 -0.0684
  104POPS   C2B 1380  13.013   2.865   9.293 -0.1513 -0.1567  0.0378
  104POPS   C3B 1381  12.748   2.992   8.930 -0.0140 -0.1284 -0.3882
  104POPS   C4B 1382  12.498   2.955   8.568 -0.0314  0.0229  0.1170
  105POPS   CNO 1383  10.462  10.335  10.494  0.1361 -0.2937 -0.1011
  105POPS   PO4 1384  10.053  10.541  10.356 -0.1846  0.0291 -0.2039
  105POPS   GL1 1385   9.863  10.809  10.076  0.0680  0.1947 -0.3292
  105POPS   GL2 1386  10.017  11.153  10.009  0.2283 -0.0360 -0.1830
  105POPS   C1A 1387   9.894  10.696   9.657 -0.0471  0.0382  0.3043
  105POPS   D2A 1388  10.141  10.390   9.521  0.0020 -0.1809  0.1661
  105POPS   C3A 1389  10.194   9.992   9.461 -0.3158  0.2355  0.0257
  105POPS   C4A 1390  10.299   9.693   9.676 -0.1942  0.3621  0.0408
  105POPS   C1B 1391  10.111  11.278   9.554  0.0473 -0.0389  0.0686
  105POPS   C2B 1392  10.204  11.201   9.149 -0.1194  0.1640  0.1655
  105POPS   C3B 1393  10.249  11.376   8.720 -0.2063  0.2239 -0.1278
  105POPS   C4B 1394   9.950  11.196   8.429 -0.0407 -0.0579  0.0069
  106POPS   CNO 1395  10.196  15.153  10.567  0.0931  0.1629  0.1388
  106POPS   PO4 1396  10.030  15.171  10.158  0.0583 -0.2518 -0.4567
  106POPS   GL1 1397   9.951  15.118   9.683 -0.0990 -0.1038 -0.2801
  106POPS   GL2 1398   9.703  14.949   9.607  0.0361  0.1940  0.0696
  106POPS   C1A 1399   9.956  15.224   9.293 -0.2739 -0.3565  0.0026
  106POPS   D2A 1400  10.066  15.148   8.891  0.0277 -0.1372 -0.3276
  106POPS   C3A 1401   9.771  14.956   8.595 -0.3100  0.1166 -0.0397
  106POPS   C4A 1402   9.900  14.821   8.163 -0.0083  0.3444 -0.2256
  106POPS   C1B 1403   9.703  14.775   9.205  0.1137  0.2390 -0.1313
  106POPS   C2B 1404   9.598  14.616   8.854 -0.0832  0.0930 -0.4543
  106POPS   C3B 1405   9.539  14.510   8.429 -0.2379  0.0470  0.1742
  106POPS   C4B 1406   9.430  14.367   8.055  0.0717 -0.1566 -0.3417
  107POPS   CNO 1407   9.859   3.645  10.609 -0.4657 -0.2929 -0.1328
  107POPS   PO4 1408   9.933   3.793  10.252 -0.1982 -0.1982  0.1062
  107POPS   GL1 1409   9.688   3.801   9.887  0.1753  0.1842 -0.1163
  107POPS   GL2 1410   9.955   3.539   9.684 -0.3815  0.0691 -0.0425
  107POPS   C1A 1411   9.481   3.565   9.401  0.0985 -0.1050 -0.3611
  107POPS   D2A 1412   9.163   3.247   9.163 -0.2461  0.1990 -0.1186
  107POPS   C3A 1413   9.231   3.141   8.701  0.4258 -0.2043  0.0926
  107POPS   C4A 1414   9.190   3.274   8.195 -0.1616 -0.0725 -0.2224
  107POPS   C1B 1415  10.089   3.568   9.284 -0.1140 -0.2455  0.2830
  107POPS   C2B 1416  10.136   3.609   8.827 -0.0434  0.0692 -0.2397
  107POPS   C3B 1417  10.045   3.596   8.367 -0.0876 -0.3149 -0.2412
  107POPS   C4B 1418   9.778   3.823   8.141 -0.1441  0.0572  0.2566
  108POPS   CNO 1419   1.651  13.866  10.541  0.1308 -0.1363  0.0571
  108POPS   PO4 1420   1.372  13.714  10.369  0.0350  0.3712  0.2965
  108POPS   GL1 1421   1.422  13.687   9.922  0.2993 -0.1974 -0.1211
  108POPS   GL2 1422   1.217  14.010   9.781  0.0630 -0.0623  0.1232
  108POPS   C1A 1423   1.396  13.601   9.512  0.0458 -0.1041 -0.1146
  108POPS   D2A 1424   1.328  13.762   9.009 -0.1729  0.0166 -0.0121
  108POPS   C3A 1425   1.050  13.802   8.601 -0.2373 -0.2850  0.0274
  108POPS   C4A 1426   0.989  13.772   8.224  0.0081  0.3382  0.2574
  108POPS   C1B 1427   1.144  14.029   9.328  0.1831  0.1781 -0.0081
  108POPS   C2B 1428   1.144  14.195   8.954 -0.1237  0.0689 -0.0086
  108POPS   C3B 1429   0.809  14.306   8.645  0.0059  0.0908  0.1987
  108POPS   C4B 1430   0.710  14.256   8.290  0.0915 -0.0413  0.0051
  109POPS   CNO 1431   5.902   4.378  10.507  0.2440  0.0636 -0.1286
  109POPS   PO4 1432   5.947   4.030  10.208 -0.2928 -0.0394  0.1400
  109POPS   GL1 1433   5.886   3.665  10.055 -0.0249  0.0573  0.1642
  109POPS   GL2 1434   6.177   3.457   9.958  0.2109  0.2571 -0.1751
  109POPS   C1A 1435   5.677   3.405   9.830  0.1021 -0.0793 -0.2925
  109POPS   D2A 1436   5.497   3.005   9.776 -0.0302 -0.2629 -0.1799
  109POPS   C3A 1437   5.344   2.841   9.329  0.1342  0.0597  0.0141
  109POPS   C4A 1438   5.273   2.826   8.954  0.0576  0.1442 -0.0477
  109POPS   C1B 1439   6.072   3.413   9.484  0.1024  0.1477 -0.2318
  109POPS   C2B 1440   5.995   3.392   9.032 -0.1893  0.1623  0.1903
  109POPS   C3B 1441   5.988   3.249   8.684 -0.0454 -0.2268 -0.1397
  109POPS   C4B 1442   5.718   3.137   8.385  0.0894  0.0820 -0.0227
  110POPS   CNO 1443   9.453   7.319  10.311 -0.0640  0.2104 -0.0742
  110POPS   PO4 1444   9.852   7.455  10.375 -0.4969  0.2317  0.0033
  110POPS   GL1 1445   9.745   7.405   9.884 -0.1773 -0.2504 -0.0421
  110POPS   GL2 1446   9.572   7.084   9.866 -0.1028 -0.1474  0.0295
  110POPS   C1A 1447   9.485   7.396   9.523  0.1505 -0.1329 -0.1148
  110POPS   D2A 1448   9.288   7.400   9.101 -0.0177 -0.2325 -0.1540
  110POPS   C3A 1449   9.325   7.684   8.794 -0.2026 -0.3205  0.0281
  110POPS   C4A 1450   9.191   8.091   8.590  0.0913 -0.2171 -0.0084
  110POPS   C1B 1451   9.868   7.008   9.557  0.3302 -0.0709 -0.0315
  110POPS   C2B 1452  10.096   6.835   9.210  0.0489  0.1266  0.1807
  110POPS   C3B 1453  10.028   6.811   8.781  0.1298 -0.3135 -0.2592
  110POPS   C4B 1454  10.096   6.829   8.338 -0.4633 -0.0204 -0.0352
  111POPS   CNO 1455  11.724  10.929  10.209 -0.2262 -0.0332  0.0538
  111POPS   PO4 1456  11.790  10.529  10.361  0.4527  0.2280  0.2822
  111POPS   GL1 1457  11.646  10.386   9.956 -0.2621  0.0438  0.2963
  111POPS   GL2 1458  11.571  10.056   9.776 -0.2066  0.1733  0.1028
  111POPS   C1A 1459  11.431  10.472   9.529 -0.1072  0.0549 -0.0396
  111POPS   D2A 1460  11.435  10.536   9.120  0.2380  0.0765  0.1800
  111POPS   C3A 1461  11.587  10.239   8.857 -0.1240  0.0665  0.0413
  111POPS   C4A 1462  11.919  10.029   8.488 -0.1578  0.2840  0.2092
  111POPS   C1B 1463  11.716  10.131   9.326 -0.0901  0.2747  0.0212
  111POPS   C2B 1464  11.839   9.807   8.953  0.1475  0.2786  0.0694
  111POPS   C3B 1465  11.804   9.451   8.724  0.0350 -0.0110 -0.1007
  111POPS   C4B 1466  11.781   8.983   8.746 -0.0053 -0.0266 -0.3032
  112POPS   CNO 1467  16.080  15.788  10.576 -0.0388  0.0054 -0.1871
  112POPS   PO4 1468  15.986  15.576  10.239 -0.3805 -0.1266  0.0072
  112POPS   GL1 1469  15.923  15.658   9.857  0.0069 -0.0163  0.2887
  112POPS   GL2 1470  15.777  15.959   9.834  0.0790 -0.0637 -0.1893
  112POPS   C1A 1471  15.924  15.572   9.422  0.1048  0.0159 -0.1965
  112POPS   D2A 1472  15.941  15.673   8.949 -0.2328  0.0231 -0.3412
  112POPS   C3A 1473  15.816  15.363   8.701  0.2319  0.0432  0.1024
  112POPS   C4A 1474  15.850  15.090   8.341  0.0999 -0.1629 -0.0356
  112POPS   C1B 1475  15.759  16.025   9.376 -0.1405 -0.1237 -0.0819
  112POPS   C2B 1476  15.716  16.134   8.956  0.0719  0.3240 -0.1468
  112POPS   C3B 1477  15.545  16.275   8.531  0.3075  0.0409  0.0829
  112POPS   C4B 1478  15.515  16.575   8.099  0.0529 -0.1870 -0.2879
  113POPS   CNO 1479  16.439  12.638  10.378  0.2116 -0.1903 -0.4222
  113POPS   PO4 1480  16.507  12.436  10.026  0.3345  0.1767 -0.1636
  113POPS   GL1 1481  16.429  12.271   9.735 -0.0438  0.2265  0.0236
  113POPS   GL2 1482  16.127  12.101   9.628 -0.2362 -0.0183  0.3745
  113POPS   C1A 1483  16.648  12.353   9.310  0.1337  0.2184  0.0557
  113POPS   D2A 1484  16.837  12.528   9.001 -0.2814 -0.2600  0.1308
  113POPS   C3A 1485  17.028  12.308   8.705  0.0465  0.0107  0.0622
  113POPS   C4A 1486  17.114  12.325   8.276 -0.2132  0.1231  0.0659
  113POPS   C1B 1487  16.174  12.355   9.236  0.2034  0.0003  0.0391
  113POPS   C2B 1488  16.318  12.489   8.786 -0.1378 -0.1287 -0.3279
  113POPS   C3B 1489  16.597  12.425   8.446  0.0546  0.1491  0.1582
  113POPS   C4B 1490  16.682  12.371   8.035 -0.1631  0.0770 -0.1712
  114POPS   CNO 1491   3.353   2.145  10.792 -0.1411  0.0660 -0.0947
  114POPS   PO4 1492   3.190   1.816  10.550  0.1988  0.1071  0.0415
  114POPS   GL1 1493   3.204   1.880  10.070 -0.0637 -0.0616  0.1874
  114POPS   GL2 1494   2.985   2.119   9.955 -0.1723  0.2464  0.2263
  114POPS   C1A 1495   3.345   1.757   9.731 -0.0059  0.0854  0.3202
  114POPS   D2A 1496   3.419   1.853   9.346  0.4515 -0.1747  0.1218
  114POPS   C3A 1497   3.449   1.603   8.913 -0.1944  0.1837 -0.1680
  114POPS   C4A 1498   3.450   1.239   8.664  0.1265 -0.2093  0.1570
  114POPS   C1B 1499   2.935   2.002   9.522 -0.0720 -0.0464  0.0118
  114POPS   C2B 1500   2.988   1.913   9.111 -0.1188  0.1417 -0.0037
  114POPS   C3B 1501   2.968   1.599   8.860 -0.0457 -0.0702  0.0691
  114POPS   C4B 1502   2.983   1.113   8.740 -0.2565 -0.0544 -0.2605
  115POPS   CNO 1503  10.598   9.340  10.536 -0.2838  0.0974  0.0294
  115POPS   PO4 1504  10.200   9.291  10.285 -0.1031 -0.3424 -0.2561
  115POPS   GL1 1505  10.497   9.255   9.983  0.3557  0.1589 -0.1854
  115POPS   GL2 1506  10.581   8.935   9.949 -0.1761  0.3186 -0.3239
  115POPS   C1A 1507  10.498   9.243   9.550 -0.1716 -0.0303  0.1009
  115POPS   D2A 1508  10.471   9.137   9.191 -0.0438 -0.0821 -0.1093
  115POPS   C3A 1509  10.172   9.222   8.930 -0.2353  0.1527  0.4571
  115POPS   C4A 1510  10.168   9.496   8.657 -0.0014 -0.1744  0.1934
  115POPS   C1B 1511  10.530   8.730   9.546 -0.1182 -0.1904 -0.2752
  115POPS   C2B 1512  10.446   8.659   9.162  0.2612 -0.2465  0.2698
  115POPS   C3B 1513  10.433   8.745   8.724 -0.0888  0.1090 -0.0186
  115POPS   C4B 1514  10.368   8.502   8.315  0.2224 -0.1088 -0.0741
  116POPS   CNO 1515   1.538   5.983  11.735  0.1257  0.2412  0.0332
  116POPS   PO4 1516   1.478   6.183  11.424  0.2257 -0.2224  0.0880
  116POPS   GL1 1517   1.230   6.072  11.027 -0.0725  0.0793  0.2624
  116POPS   GL2 1518   1.127   6.250  10.757  0.2048 -0.2309  0.0777
  116POPS   C1A 1519   1.409   5.773  10.683  0.2179 -0.2841 -0.0712
  116POPS   D2A 1520   1.608   5.854  10.406  0.0674 -0.2451 -0.1519
  116POPS   C3A 1521   1.518   5.642   9.982 -0.1452 -0.3113  0.3562
  116POPS   C4A 1522   1.629   5.512   9.633 -0.0760  0.1989 -0.4367
  116POPS   C1B 1523   1.158   6.081  10.374 -0.3366 -0.1061  0.0376
  116POPS   C2B 1524   1.072   5.896   9.954  0.0217 -0.2500 -0.0507
  116POPS   C3B 1525   0.954   5.896   9.440  0.0779 -0.1206 -0.1094
  116POPS   C4B 1526   0.918   6.191   9.123  0.0486  0.1544 -0.2442
  117POPS   CNO 1527  15.090   6.699  10.591  0.1053  0.0344 -0.3146
  117POPS   PO4 1528  15.319   6.271  10.700 -0.0944  0.0694 -0.0844
  117POPS   GL1 1529  15.153   6.241  10.332 -0.0859 -0.0006 -0.0805
  117POPS   GL2 1530  15.276   6.022  10.237  0.1320 -0.1665 -0.2035
  117POPS   C1A 1531  15.118   6.547  10.110  0.1587 -0.3367 -0.0428
  117POPS   D2A 1532  15.341   6.665   9.894 -0.2866 -0.2230 -0.1249
  117POPS   C3A 1533  15.258   6.734   9.548 -0.3014 -0.0351  0.3870
  117POPS   C4A 1534  15.193   6.538   9.170 -0.0877 -0.1113  0.0663
  117POPS   C1B 1535  15.110   6.195   9.755  0.0398  0.2501 -0.2000
  117POPS   C2B 1536  15.078   6.012   9.342 -0.1132  0.0757  0.3143
  117POPS   C3B 1537  14.856   5.879   9.029 -0.1903 -0.1644 -0.0385
  117POPS   C4B 1538  14.833   5.457   8.829  0.2824  0.3621  0.1508
  118POPS   CNO 1539   8.412  12.427   9.913 -0.1059 -0.0286  0.0586
  118POPS   PO4 1540   8.217  12.082   9.853 -0.0387 -0.0050  0.0067
  118POPS   GL1 1541   8.019  12.184   9.420 -0.0301  0.1936 -0.2096
  118POPS   GL2 1542   8.114  12.499   9.394  0.2426 -0.0515  0.0389
  118POPS   C1A 1543   8.071  12.149   8.986  0.1559 -0.0437 -0.1525
  118POPS   D2A 1544   8.210  12.152   8.591  0.0210 -0.2694 -0.0028
  118POPS   C3A 1545   8.134  11.903   8.264 -0.0125 -0.1847  0.0307
  118POPS   C4A 1546   7.793  11.549   8.111  0.1344  0.1963 -0.2442
  118POPS   C1B 1547   8.070  12.624   9.017 -0.0912  0.0041  0.1983
  118POPS   C2B 1548   8.050  12.619   8.641  0.3012 -0.3739  0.1697
  118POPS   C3B 1549   8.082  12.435   8.222 -0.1140 -0.2738  0.2539
  118POPS   C4B 1550   8.438  12.259   8.088  0.1889 -0.1842 -0.0948
  119POPS   CNO 1551  10.595   2.427  10.156 -0.0407 -0.2297  0.1259
  119POPS   PO4 1552  10.914   2.239  10.318 -0.2185  0.0765  0.4149
  119POPS   GL1 1553  10.905   2.241   9.824  0.0015 -0.0198  0.1318
  119POPS   GL2 1554  10.601   2.203   9.687  0.0376  0.2213  0.0469
  119POPS   C1A 1555  11.010   2.412   9.474  0.0447 -0.2964  0.0125
  119POPS   D2A 1556  11.268   2.366   9.150 -0.0769  0.0229 -0.2122
  119POPS   C3A 1557  10.932   2.238   8.885 -0.0960 -0.2900  0.0320
  119POPS   C4A 1558  10.706   2.282   8.501  0.1215  0.0272 -0.1821
  119POPS   C1B 1559  10.601   2.188   9.255 -0.0764 -0.1227  0.2411
  119POPS   C2B 1560  10.397   2.083   8.880  0.2451 -0.0099 -0.0764
  119POPS   C3B 1561  10.223   2.053   8.398  0.1390  0.2203 -0.2731
  119POPS   C4B 1562  10.009   1.705   8.216 -0.1122 -0.2210 -0.2824
  120POPS   CNO 1563  10.799   8.335  10.517 -0.1599  0.0377  0.1601
  120POPS   PO4 1564  10.891   8.632  10.152 -0.3436  0.0466 -0.0425
  120POPS   GL1 1565  10.644   8.424   9.880  0.0844 -0.2032 -0.3095
  120POPS   GL2 1566  10.641   8.092   9.867  0.0165  0.1095  0.2990
  120POPS   C1A 1567  10.254   8.340   9.678 -0.2757  0.0463 -0.0978
  120POPS   D2A 1568   9.983   8.238   9.275 -0.0028  0.1227  0.1034
  120POPS   C3A 1569  10.137   8.321   8.876 -0.2688 -0.0353  0.1028
  120POPS   C4A 1570   9.882   8.282   8.478  0.1686 -0.0443 -0.0381
  120POPS   C1B 1571  10.786   8.243   9.447  0.1355 -0.2219  0.2330
  120POPS   C2B 1572  10.794   8.381   8.986 -0.0357 -0.2201  0.0765
  120POPS   C3B 1573  10.889   8.412   8.554 -0.3012 -0.2078  0.0406
  120POPS   C4B 1574  10.775   8.251   8.203  0.2298 -0.0134 -0.0635
  121POPS   CNO 1575   8.275   7.496  10.742 -0.2209 -0.2513  0.3715
  121POPS   PO4 1576   8.515   7.158  10.621 -0.0712 -0.0388  0.0574
  121POPS   GL1 1577   8.665   7.072  10.126 -0.1264 -0.0284 -0.2424
  121POPS   GL2 1578   8.924   6.848   9.978  0.0047  0.1835  0.3931
  121POPS   C1A 1579   8.588   7.010   9.694  0.1333  0.2861 -0.1157
  121POPS   D2A 1580   8.400   6.929   9.246 -0.1298  0.3143  0.0760
  121POPS   C3A 1581   8.511   7.074   8.856 -0.2549 -0.2740  0.3238
  121POPS   C4A 1582   8.704   7.052   8.428  0.0101  0.2740  0.0348
  121POPS   C1B 1583   9.163   6.972   9.640 -0.0706  0.1568  0.0061
  121POPS   C2B 1584   8.993   7.014   9.237 -0.1622  0.1472 -0.0952
  121POPS   C3B 1585   9.132   6.993   8.809  0.1048  0.0984 -0.0335
  121POPS   C4B 1586   9.120   6.779   8.447 -0.4708 -0.1311 -0.1662
  122POPS   CNO 1587  15.815   0.465  10.903 -0.0992 -0.0352 -0.4134
  122POPS   PO4 1588  16.223   0.324  10.718  0.0986 -0.1966  0.1235
  122POPS   GL1 1589  16.289   0.421  10.349 -0.1133  0.0502  0.0461
  122POPS   GL2 1590  16.070   0.542  10.176  0.1799  0.2528  0.1054
  122POPS   C1A 1591  16.222   0.261   9.877 -0.2409  0.2505 -0.0791
  122POPS   D2A 1592  16.203   0.101   9.470  0.1503 -0.1929 -0.1296
  122POPS   C3A 1593  16.562   0.185   9.134  0.0470 -0.3219 -0.1555
  122POPS   C4A 1594  16.837  -0.099   8.981  0.0489 -0.0552  0.2644
  122POPS   C1B 1595  16.109   0.764   9.923 -0.1330 -0.1194 -0.0507
  122POPS   C2B 1596  15.944   0.921   9.524 -0.1130  0.0901  0.0461
  122POPS   C3B 1597  15.946   1.216   9.264 -0.1389 -0.1268  0.1525
  122POPS   C4B 1598  16.030   1.440   8.887  0.1862 -0.0801 -0.0615
  123POPS   CNO 1599  16.087  14.025  10.204  0.0458  0.2313 -0.2245
  123POPS   PO4 1600  16.377  14.164  10.394 -0.0285  0.1674 -0.0043
  123POPS   GL1 1601  16.520  14.126   9.975  0.1905 -0.1356 -0.0138
  123POPS   GL2 1602  16.812  14.250  10.016  0.0277  0.1052  0.0459
  123POPS   C1A 1603  16.622  13.883   9.626  0.2249  0.3565 -0.0773
  123POPS   D2A 1604  16.733  13.919   9.139 -0.0254  0.1095 -0.1436
  123POPS   C3A 1605  16.668  14.125   8.725  0.0152  0.0628 -0.1509
  123POPS   C4A 1606  16.853  14.325   8.361  0.2033 -0.0076  0.2720
  123POPS   C1B 1607  16.768  14.391   9.666  0.3098 -0.1867 -0.1088
  123POPS   C2B 1608  16.623  14.425   9.231 -0.3069 -0.0741  0.0763
  123POPS   C3B 1609  16.475  14.599   8.804  0.0306  0.1934 -0.4584
  123POPS   C4B 1610  16.357  14.352   8.360  0.3572 -0.1590  0.0131
  124POPS   CNO 1611   3.059   2.620  10.845 -0.3939  0.5342  0.0946
  124POPS   PO4 1612   2.633   2.546  10.630 -0.1353 -0.1419  0.0926
  124POPS   GL1 1613   2.434   2.717  10.348  0.2108  0.0261 -0.2666
  124POPS   GL2 1614   2.153   2.803  10.407 -0.2813  0.0659  0.2212
  124POPS   C1A 1615   2.575   2.565   9.961  0.0831 -0.2675 -0.1468
  124POPS   D2A 1616   2.403   2.585   9.487  0.0990  0.0846 -0.1111
  124POPS   C3A 1617   2.440   2.610   9.119  0.0834 -0.1043  0.2924
  124POPS   C4A 1618   2.359   2.414   8.735  0.0401  0.1902  0.0051
  124POPS   C1B 1619   1.777   2.649  10.170  0.1579 -0.0050 -0.0734
  124POPS   C2B 1620   1.581   2.567   9.864 -0.1710 -0.0281 -0.1371
  124POPS   C3B 1621   1.444   2.329   9.497 -0.0327 -0.1238 -0.3225
  124POPS   C4B 1622   1.248   2.178   9.088 -0.0047 -0.0793 -0.0504
  125POPS   CNO 1623   9.991  13.947  10.311  0.3134 -0.0935 -0.1891
  125POPS   PO4 1624   9.719  13.578  10.079 -0.1859 -0.2614  0.1707
  125POPS   GL1 1625   9.696  13.788   9.661  0.1623  0.1163 -0.0060
  125POPS   GL2 1626   9.507  13.924   9.513  0.5186 -0.2012 -0.3151
  125POPS   C1A 1627   9.931  14.090   9.414  0.0099 -0.0270  0.2223
  125POPS   D2A 1628   9.986  14.203   8.920  0.0634  0.0443 -0.2590
  125POPS   C3A 1629   9.931  14.032   8.578  0.0474  0.2613  0.3087
  125POPS   C4A 1630   9.905  14.302   8.121 -0.1221 -0.2301  0.0976
  125POPS   C1B 1631   9.644  13.790   9.111  0.1015 -0.2926  0.0470
  125POPS   C2B 1632   9.584  13.652   8.751 -0.0697 -0.2575 -0.2217
  125POPS   C3B 1633   9.701  13.532   8.356 -0.1954 -0.0343  0.0718
  125POPS   C4B 1634   9.468  13.392   7.994 -0.0755 -0.0202  0.0065
  126POPS   CNO 1635   5.041  14.903  10.786  0.0309  0.0219  0.2080
  126POPS   PO4 1636   5.179  15.113  10.461 -0.1125 -0.1651  0.1768
  126POPS   GL1 1637   5.189  15.270  10.055  0.1947 -0.2148 -0.3882
  126POPS   GL2 1638   5.253  14.911   9.958 -0.0079  0.1547  0.2272
  126POPS   C1A 1639   5.295  15.425   9.631  0.2674  0.0174 -0.0842
  126POPS   D2A 1640   5.236  15.466   9.176  0.1138 -0.5040  0.0841
  126POPS   C3A 1641   5.080  15.463   8.880 -0.2299  0.3348  0.1817
  126POPS   C4A 1642   5.159  15.626   8.474 -0.2854 -0.1141  0.1621
  126POPS   C1B 1643   5.277  14.949   9.475  0.1029  0.1728 -0.1544
  126POPS   C2B 1644   5.355  14.671   9.225  0.1999 -0.0360  0.2193
  126POPS   C3B 1645   5.541  14.568   8.814 -0.1076  0.0433 -0.0520
  126POPS   C4B 1646   5.533  14.648   8.398  0.0867  0.1685 -0.1896
  127POPS   CNO 1647   0.453   4.379  11.065 -0.1387 -0.0877  0.1778
  127POPS   PO4 1648   0.416   4.045  10.963 -0.1003 -0.1872  0.1548
  127POPS   GL1 1649   0.606   4.047  10.601  0.2112  0.3924 -0.0766
  127POPS   GL2 1650   0.800   4.232  10.618 -0.4010 -0.3617 -0.1021
  127POPS   C1A 1651   0.633   4.105  10.171 -0.0068 -0.2068  0.1203
  127POPS   D2A 1652   0.788   4.246   9.788  0.1423 -0.1773  0.2418
  127POPS   C3A 1653   0.625   4.128   9.446  0.0324 -0.1008 -0.0143
  127POPS   C4A 1654   0.436   4.241   9.083 -0.0003  0.0892  0.1435
  127POPS   C1B 1655   1.059   4.399  10.304  0.1417 -0.0445  0.4901
  127POPS   C2B 1656   1.202   4.535   9.802  0.0284  0.2910  0.0476
  127POPS   C3B 1657   1.394   4.576   9.369  0.1208 -0.5086  0.1346
  127POPS   C4B 1658   1.826   4.561   9.200 -0.0181 -0.2838 -0.0192
  128POPS   CNO 1659  17.893   8.530  10.802  0.0160  0.1381 -0.0125
  128POPS   PO4 1660  17.962   8.914  10.474  0.0179 -0.6028 -0.1342
  128POPS   GL1 1661  17.635   8.918  10.195  0.1214  0.0767 -0.0598
  128POPS   GL2 1662  17.737   9.203  10.044  0.2257 -0.3499  0.0611
  128POPS   C1A 1663  17.488   8.605   9.882  0.3877  0.0679 -0.1837
  128POPS   D2A 1664  17.282   8.326   9.770  0.2338 -0.0796 -0.2506
  128POPS   C3A 1665  17.467   8.067   9.500 -0.0614  0.3306 -0.0115
  128POPS   C4A 1666  17.583   7.719   9.208 -0.1297 -0.2703  0.0835
  128POPS   C1B 1667  17.652   9.257   9.627 -0.0753  0.1840 -0.1335
  128POPS   C2B 1668  17.465   9.015   9.230  0.2988  0.1533  0.2092
  128POPS   C3B 1669  17.397   8.862   8.793  0.2773  0.1421 -0.0021
  128POPS   C4B 1670  17.071   9.036   8.580  0.0016 -0.0856 -0.2281
  129POPS   CNO 1671   0.401  11.770  10.326  0.0762  0.0086  0.1123
  129POPS   PO4 1672   0.479  11.427   9.992  0.0901  0.3128  0.0338
  129POPS   GL1 1673   0.316  11.119   9.795  0.2571  0.0481 -0.2924
  129POPS   GL2 1674   0.029  11.059   9.669  0.2915  0.1944 -0.0321
  129POPS   C1A 1675   0.492  11.134   9.429  0.0625  0.0877  0.4087
  129POPS   D2A 1676   0.503  10.999   8.963 -0.0014  0.2175 -0.1104
  129POPS   C3A 1677   0.237  10.701   8.725  0.0626  0.0227  0.0925
  129POPS   C4A 1678  -0.095  10.455   8.396 -0.0971 -0.0727 -0.0328
  129POPS   C1B 1679   0.012  10.973   9.241  0.3286  0.0250 -0.0411
  129POPS   C2B 1680  -0.147  11.016   8.748 -0.0954 -0.1261 -0.0407
  129POPS   C3B 1681  -0.247  11.324   8.352 -0.3044  0.1271  0.2859
  129POPS   C4B 1682   0.038  11.603   8.140 -0.1843  0.2644  0.1184
  130POPS   CNO 1683   6.767   1.208  10.227 -0.0161  0.0254  0.0767
  130POPS   PO4 1684   7.098   0.992  10.267 -0.0301 -0.1296  0.2592
  130POPS   GL1 1685   7.086   0.902   9.890  0.4134 -0.1030 -0.0908
  130POPS   GL2 1686   6.820   1.051   9.756 -0.1571 -0.3697 -0.1382
  130POPS   C1A 1687   7.280   0.693   9.542  0.1591  0.0911 -0.4342
  130POPS   D2A 1688   7.631   0.748   9.197  0.0466 -0.1030 -0.1802
  130POPS   C3A 1689   7.557   0.869   8.789 -0.2884  0.3153  0.1833
  130POPS   C4A 1690   7.520   0.721   8.451 -0.1148  0.2160 -0.0875
  130POPS   C1B 1691   6.804   1.108   9.337  0.1348  0.2314  0.1415
  130POPS   C2B 1692   6.631   0.948   8.906 -0.5365  0.1531 -0.1283
  130POPS   C3B 1693   6.389   1.017   8.526  0.0679 -0.1393 -0.2190
  130POPS   C4B 1694   6.353   0.959   8.045  0.2806  0.1561  0.0166
  131POPS   CNO 1695  15.155  16.695  10.425 -0.4109 -0.0771  0.1605
  131POPS   PO4 1696  15.336  16.299  10.431 -0.2469 -0.1595  0.1248
  131POPS   GL1 1697  15.525  16.548  10.143 -0.0959 -0.0607 -0.0488
  131POPS   GL2 1698  15.732  16.737  10.394 -0.0115  0.2330  0.2635
  131POPS   C1A 1699  15.613  16.755   9.763 -0.0651 -0.0036  0.0240
  131POPS   D2A 1700  15.716  16.958   9.313 -0.2072  0.0609 -0.1514
  131POPS   C3A 1701  15.639  17.177   8.923 -0.0575  0.1146 -0.2551
  131POPS   C4A 1702  15.688  17.178   8.425  0.2015  0.3239  0.2866
  131POPS   C1B 1703  15.936  16.950  10.136  0.2378  0.2151 -0.0820
  131POPS   C2B 1704  15.734  17.227   9.792  0.3765  0.1976 -0.0667
  131POPS   C3B 1705  15.897  17.418   9.263  0.0927 -0.3501 -0.1053
  131POPS   C4B 1706  15.969  17.512   8.765 -0.1814  0.1166  0.4853
  132POPS   CNO 1707  15.471   3.586  11.090 -0.0393  0.1888  0.1974
  132POPS   PO4 1708  15.544   3.282  10.905  0.1459 -0.0378 -0.0701
  132POPS   GL1 1709  15.776   3.140  10.604 -0.1300  0.0081 -0.1415
  132POPS   GL2 1710  15.822   2.830  10.567 -0.1980  0.1498  0.0607
  132POPS   C1A 1711  15.891   3.243  10.194 -0.0940  0.2453 -0.3062
  132POPS   D2A 1712  16.044   3.031   9.969 -0.1444 -0.1402 -0.1735
  132POPS   C3A 1713  16.060   3.107   9.549  0.2937 -0.0780 -0.1726
  132POPS   C4A 1714  15.996   3.300   9.162 -0.0362 -0.2372 -0.2438
  132POPS   C1B 1715  16.068   2.643  10.296  0.0018 -0.0488 -0.0086
  132POPS   C2B 1716  16.030   2.548   9.884  0.1201 -0.0767 -0.0918
  132POPS   C3B 1717  16.045   2.612   9.505  0.2592 -0.0609 -0.1028
  132POPS   C4B 1718  16.070   2.565   8.999  0.1122 -0.0848  0.2120
  133POPS   CNO 1719   2.257  16.518  10.968 -0.2165  0.0988  0.1939
  133POPS   PO4 1720   2.231  16.883  10.646 -0.1846 -0.3070 -0.1540
  133POPS   GL1 1721   2.251  16.964  10.304  0.1351 -0.0740  0.1823
  133POPS   GL2 1722   2.198  17.262  10.256 -0.0401 -0.0808 -0.0784
  133POPS   C1A 1723   2.328  16.977   9.844 -0.2169 -0.2760  0.0916
  133POPS   D2A 1724   2.371  17.011   9.378  0.0603  0.0431  0.1799
  133POPS   C3A 1725   2.625  17.034   9.076  0.0802  0.2451 -0.1675
  133POPS   C4A 1726   2.695  17.092   8.633 -0.0035  0.0755 -0.2231
  133POPS   C1B 1727   2.121  17.472   9.929 -0.1126  0.0491  0.2789
  133POPS   C2B 1728   2.141  17.407   9.571  0.0738 -0.3044  0.0028
  133POPS   C3B 1729   2.239  17.476   9.156 -0.0420 -0.0128  0.0587
  133POPS   C4B 1730   2.160  17.827   8.879  0.2413 -0.0479 -0.0503
  134POPS   CNO 1731  11.052  15.885  10.386  0.0004 -0.0869  0.3463
  134POPS   PO4 1732  10.996  16.130  10.020 -0.0871  0.2588 -0.5190
  134POPS   GL1 1733  10.851  16.346   9.701  0.4644 -0.0164  0.3546
  134POPS   GL2 1734  10.800  16.688   9.588  0.0971  0.2103  0.0375
  134POPS   C1A 1735  10.477  16.400   9.405 -0.1425  0.1708  0.1312
  134POPS   D2A 1736  10.427  16.309   8.988  0.0961 -0.0947 -0.0570
  134POPS   C3A 1737  10.460  16.459   8.552  0.0064 -0.2028 -0.2977
  134POPS   C4A 1738  10.479  16.538   8.107  0.1057  0.2203  0.1512
  134POPS   C1B 1739  11.002  16.507   9.205 -0.0773  0.0920  0.2153
  134POPS   C2B 1740  10.964  16.556   8.681  0.2081 -0.0529 -0.1699
  134POPS   C3B 1741  10.922  16.247   8.364  0.0258 -0.4309  0.0544
  134POPS   C4B 1742  10.634  16.023   8.196  0.2614 -0.0308  0.2790
  135POPS   CNO 1743  17.223   8.235  10.710 -0.0522 -0.0356  0.0211
  135POPS   PO4 1744  17.019   7.840  10.850  0.1705  0.0540 -0.0417
  135POPS   GL1 1745  16.724   7.928  10.475  0.0594  0.0074  0.3257
  135POPS   GL2 1746  16.880   8.178  10.340 -0.1265 -0.0278 -0.2900
  135POPS   C1A 1747  16.531   7.879  10.084  0.0116 -0.0967 -0.0241
  135POPS   D2A 1748  16.489   7.661   9.733  0.2535  0.2714  0.0603
  135POPS   C3A 1749  16.634   7.807   9.321  0.1473 -0.0871  0.0846
  135POPS   C4A 1750  16.716   8.014   8.903 -0.2564  0.0143 -0.0490
  135POPS   C1B 1751  16.907   8.412  10.064  0.1676  0.0838  0.1069
  135POPS   C2B 1752  16.726   8.336   9.710  0.0792 -0.1798 -0.0777
  135POPS   C3B 1753  16.383   8.199   9.432 -0.1703 -0.0242  0.1687
  135POPS   C4B 1754  16.227   8.245   9.005 -0.0314 -0.1031  0.0210
  136POPS   CNO 1755   3.713  11.026  10.715  0.1555  0.2857  0.1764
  136POPS   PO4 1756   3.849  10.769  10.461  0.1217  0.1247 -0.3311
  136POPS   GL1 1757   3.977  10.719  10.108 -0.1147 -0.2593 -0.2083
  136POPS   GL2 1758   4.007  11.065  10.004  0.1849 -0.1329  0.0682
  136POPS   C1A 1759   4.300  10.660   9.821 -0.0603  0.3583 -0.2708
  136POPS   D2A 1760   4.654  10.833   9.558 -0.0668  0.0114  0.0345
  136POPS   C3A 1761   4.673  11.066   9.157  0.2821  0.0563 -0.0433
  136POPS   C4A 1762   4.549  11.297   8.787  0.2972 -0.2649 -0.0714
  136POPS   C1B 1763   4.115  11.097   9.555 -0.0253 -0.2298  0.3328
  136POPS   C2B 1764   3.998  11.107   9.141  0.3526 -0.2497  0.1809
  136POPS   C3B 1765   4.206  10.910   8.894  0.0324 -0.0386 -0.0106
  136POPS   C4B 1766   4.528  10.793   8.679  0.3049  0.0147  0.0672
  137POPS   CNO 1767   2.746   5.623  11.097  0.2080  0.1256 -0.0439
  137POPS   PO4 1768   2.610   5.841  10.821 -0.1527 -0.0050 -0.0978
  137POPS   GL1 1769   2.737   5.856  10.453 -0.0797  0.0401  0.0120
  137POPS   GL2 1770   2.803   6.167  10.192 -0.0088  0.1031  0.0210
  137POPS   C1A 1771   2.897   5.771   9.987  0.0798 -0.0265 -0.0505
  137POPS   D2A 1772   2.902   5.548   9.549 -0.0104 -0.1302 -0.1151
  137POPS   C3A 1773   2.690   5.483   9.207 -0.2605 -0.2790 -0.3066
  137POPS   C4A 1774   2.392   5.225   9.048 -0.0607 -0.0604 -0.1240
  137POPS   C1B 1775   2.906   6.255   9.743 -0.0064 -0.0117  0.0230
  137POPS   C2B 1776   2.781   6.424   9.302 -0.3084  0.0817 -0.0672
  137POPS   C3B 1777   2.471   6.550   9.013  0.0104  0.0033  0.1778
  137POPS   C4B 1778   2.116   6.479   8.878 -0.0745 -0.2257 -0.1406
  138YOPS   CNO 1779   9.165  10.143  10.393 -0.1320  0.1528  0.0434
  138YOPS   PO4 1780   9.361  10.565  10.366 -0.0470  0.0146  0.3122
  138YOPS   GL1 1781   9.285  10.342   9.973 -0.0776  0.1460 -0.1024
  138YOPS   GL2 1782   9.346   9.933  10.001 -0.0950  0.2489  0.3975
  138YOPS   C1A 1783   9.389  10.463   9.557 -0.0250  0.1991  0.0461
  138YOPS   D2A 1784   9.672  10.473   9.263  0.0447 -0.2741 -0.2201
  138YOPS   C3A 1785   9.988  10.724   9.171 -0.0435  0.1150 -0.4323
  138YOPS   C4A 1786   9.910  10.853   8.857 -0.1871  0.2584  0.1906
  138YOPS   C1B 1787   9.487   9.498   9.975  0.3539 -0.2210  0.0859
  138YOPS   C2B 1788   9.806   9.288   9.744 -0.2852  0.2856  0.1069
  138YOPS   D3B 1789  10.038   9.389   9.389  0.1560  0.0690 -0.2144
  138YOPS   C4B 1790  10.017   9.684   9.025 -0.0437 -0.1244 -0.3727
  139YOPS   CNO 1791   4.689  12.131  10.463 -0.0839  0.1323  0.2433
  139YOPS   PO4 1792   4.681  12.204  10.109 -0.1521  0.1808  0.2026
  139YOPS   GL1 1793   4.897  12.455   9.706  0.0022  0.3835 -0.0466
  139YOPS   GL2 1794   5.110  12.797   9.763 -0.0511 -0.0047  0.1119
  139YOPS   C1A 1795   4.930  12.339   9.226 -0.0379  0.0077  0.0667
  139YOPS   D2A 1796   5.061  11.995   8.985  0.3494 -0.4509 -0.0827
  139YOPS   C3A 1797   5.472  11.738   8.915  0.1026  0.2299 -0.3720
  139YOPS   C4A 1798   5.517  11.295   8.933 -0.1318  0.0428  0.2059
  139YOPS   C1B 1799   4.878  12.783   9.405 -0.1408 -0.4672  0.2574
  139YOPS   C2B 1800   4.809  12.713   8.864  0.0625 -0.0524  0.1149
  139YOPS   D3B 1801   4.980  12.867   8.459  0.0491 -0.1857 -0.0814
  139YOPS   C4B 1802   5.115  12.425   8.257  0.2080 -0.0896  0.1441
  140YOPS   CNO 1803   3.885  15.515  10.419  0.0345  0.2204  0.2116
  140YOPS   PO4 1804   3.747  15.872  10.365 -0.0934  0.1403 -0.1109
  140YOPS   GL1 1805   3.665  15.991   9.918 -0.1035 -0.0285 -0.1848
  140YOPS   GL2 1806   3.444  15.847   9.822  0.1108  0.1760  0.0551
  140YOPS   C1A 1807   3.896  15.955   9.595  0.0301  0.2671 -0.1177
  140YOPS   D2A 1808   3.949  15.951   9.221 -0.2266 -0.0542 -0.0979
  140YOPS   C3A 1809   3.680  15.943   8.830 -0.0337  0.0906 -0.2198
  140YOPS   C4A 1810   3.895  16.046   8.520 -0.0184 -0.0646  0.1869
  140YOPS   C1B 1811   3.193  15.439   9.572 -0.1783  0.0857 -0.0336
  140YOPS   C2B 1812   3.336  15.206   9.162 -0.2204 -0.1514 -0.1294
  140YOPS   D3B 1813   3.537  15.207   8.789  0.3334 -0.2152  0.1608
  140YOPS   C4B 1814   3.346  15.517   8.659 -0.1098 -0.1997  0.0660
  141YOPS   CNO 1815  17.112   6.442  11.014  0.2759  0.0367  0.2308
  141YOPS   PO4 1816  17.502   6.550  10.994  0.1514  0.1940 -0.0531
  141YOPS   GL1 1817  17.718   6.563  10.695  0.3998 -0.0018 -0.0721
  141YOPS   GL2 1818  17.949   6.750  10.643 -0.0991  0.1860 -0.0258
  141YOPS   C1A 1819  17.595   6.492  10.289 -0.0162 -0.0098  0.2810
  141YOPS   D2A 1820  17.584   6.307   9.827 -0.0344 -0.0252  0.1143
  141YOPS   C3A 1821  17.405   6.253   9.326 -0.0078 -0.3352 -0.1366
  141YOPS   C4A 1822  17.817   6.161   9.069  0.1707 -0.0638 -0.1799
  141YOPS   C1B 1823  18.073   6.332  10.461 -0.2724  0.3289 -0.2605
  141YOPS   C2B 1824  18.071   6.093  10.048  0.1339  0.1518  0.1077
  141YOPS   D3B 1825  18.013   6.252   9.624  0.0854 -0.3158 -0.0207
  141YOPS   C4B 1826  17.829   6.680   9.484 -0.3652  0.0297 -0.2381
  142YOPS   CNO 1827  16.353   4.606  11.271  0.0808 -0.1128 -0.0590
  142YOPS   PO4 1828  16.402   4.755  10.812 -0.1183  0.2356  0.3734
  142YOPS   GL1 1829  16.683   4.692  10.337  0.2536 -0.2396  0.2548
  142YOPS   GL2 1830  16.868   4.981  10.257 -0.1875  0.0228  0.0724
  142YOPS   C1A 1831  17.080   4.557  10.117 -0.0283  0.0063 -0.1307
  142YOPS   D2A 1832  17.430   4.495  10.200 -0.1222 -0.1857 -0.1354
  142YOPS   C3A 1833  17.697   4.229  10.197  0.0152 -0.1111  0.1948
  142YOPS   C4A 1834  17.917   4.220   9.860  0.2327  0.1653 -0.0482
  142YOPS   C1B 1835  16.783   4.859   9.859 -0.3611 -0.4001 -0.1248
  142YOPS   C2B 1836  16.671   4.938   9.471  0.0129  0.0546  0.3013
  142YOPS   D3B 1837  16.424   4.803   9.177 -0.1307 -0.1003  0.1145
  142YOPS   C4B 1838  16.425   4.544   8.840  0.1028  0.0469 -0.0510
  143YOPS   CNO 1839   8.824   3.551  10.323 -0.2078  0.1475 -0.0963
  143YOPS   PO4 1840   9.005   3.840  10.176 -0.2399  0.0721 -0.2431
  143YOPS   GL1 1841   9.245   3.704   9.931  0.0165  0.2296 -0.0192
  143YOPS   GL2 1842   9.200   3.850   9.673 -0.0982 -0.0079 -0.1570
  143YOPS   C1A 1843   9.108   3.337   9.630  0.0936 -0.0517  0.0685
  143YOPS   D2A 1844   9.266   2.927   9.551 -0.2476 -0.2682  0.1298
  143YOPS   C3A 1845   9.345   2.477   9.437 -0.4066 -0.0735 -0.3157
  143YOPS   C4A 1846   9.139   2.240   9.224  0.0379  0.1686  0.0245
  143YOPS   C1B 1847   9.009   3.795   9.351  0.0476 -0.0310  0.0803
  143YOPS   C2B 1848   9.106   3.775   8.972  0.0046  0.0209  0.2268
  143YOPS   D3B 1849   9.063   3.623   8.614  0.1741  0.1614 -0.1821
  143YOPS   C4B 1850   9.496   3.637   8.506  0.0017 -0.2211 -0.0190
  144YOPS   CNO 1851   9.193  14.495  10.140 -0.1603  0.1394  0.0558
  144YOPS   PO4 1852   8.928  14.115  10.140 -0.0363  0.0157 -0.0046
  144YOPS   GL1 1853   8.682  14.211   9.787 -0.2813 -0.0283  0.0679
  144YOPS   GL2 1854   8.468  14.515   9.762 -0.0177 -0.3453 -0.1335
  144YOPS   C1A 1855   8.533  13.937   9.357  0.2820 -0.2006 -0.2448
  144YOPS   D2A 1856   8.442  13.953   8.987  0.2507 -0.1606 -0.1279
  144YOPS   C3A 1857   8.627  14.074   8.555 -0.2011 -0.3022  0.0787
  144YOPS   C4A 1858   8.565  14.487   8.445 -0.0952 -0.2231  0.1490
  144YOPS   C1B 1859   8.305  14.356   9.388  0.0006  0.2103  0.1136
  144YOPS   C2B 1860   7.924  14.377   9.360 -0.1843 -0.0964  0.0261
  144YOPS   D3B 1861   7.586  14.278   9.063 -0.3950  0.0250  0.0273
  144YOPS   C4B 1862   7.560  14.098   8.659 -0.1866 -0.2771 -0.0757
  145YOPS   CNO 1863   3.680  14.265  10.239  0.0732  0.0418  0.1382
  145YOPS   PO4 1864   3.893  13.878  10.198  0.0055 -0.0773  0.1519
  145YOPS   GL1 1865   3.733  13.876   9.824 -0.0075 -0.1388 -0.1022
  145YOPS   GL2 1866   3.582  13.617   9.777 -0.0809 -0.0165 -0.0250
  145YOPS   C1A 1867   3.708  13.918   9.346 -0.0429  0.3372 -0.4682
  145YOPS   D2A 1868   3.759  14.004   8.963  0.0778  0.1667 -0.1444
  145YOPS   C3A 1869   3.421  14.319   8.766  0.2159  0.1014 -0.1183
  145YOPS   C4A 1870   2.954  14.397   8.615 -0.1582 -0.2950 -0.2204
  145YOPS   C1B 1871   3.535  13.394   9.360  0.1343 -0.0759  0.1206
  145YOPS   C2B 1872   3.577  13.570   8.956  0.1670 -0.0933  0.0670
  145YOPS   D3B 1873   3.529  13.685   8.597 -0.3103 -0.1905 -0.0551
  145YOPS   C4B 1874   3.871  14.062   8.494 -0.1164  0.1145  0.0715
  146YOPS   CNO 1875  14.125   7.505  10.533  0.3298  0.1191 -0.0920
  146YOPS   PO4 1876  14.250   7.847  10.784  0.1188 -0.0563  0.1315
  146YOPS   GL1 1877  14.457   7.918  10.346  0.4181  0.1029  0.1678
  146YOPS   GL2 1878  14.840   7.992  10.186 -0.1667  0.1778 -0.1119
  146YOPS   C1A 1879  14.469   7.986   9.893 -0.0679 -0.1187  0.0087
  146YOPS   D2A 1880  14.670   8.115   9.526  0.1245  0.0089  0.2453
  146YOPS   C3A 1881  14.706   8.163   9.154 -0.1936 -0.0702 -0.1535
  146YOPS   C4A 1882  14.483   8.391   8.893 -0.2720  0.0206 -0.1756
  146YOPS   C1B 1883  15.058   7.939   9.830 -0.1650 -0.0622 -0.1306
  146YOPS   C2B 1884  15.163   7.813   9.382 -0.1474  0.2781 -0.0246
  146YOPS   D3B 1885  15.163   7.814   8.894 -0.1460 -0.0007 -0.1726
  146YOPS   C4B 1886  15.063   7.994   8.611 -0.0705 -0.2601 -0.1963
  147YOPS   CNO 1887   0.985   5.091  11.082 -0.3104  0.0787  0.0127
  147YOPS   PO4 1888   0.831   4.745  10.902 -0.2313  0.0320  0.0427
  147YOPS   GL1 1889   0.963   4.998  10.575  0.1009 -0.2304  0.2946
  147YOPS   GL2 1890   0.734   5.256  10.535  0.0626 -0.1479  0.0311
  147YOPS   C1A 1891   1.219   5.004  10.179 -0.1968  0.2260 -0.2980
  147YOPS   D2A 1892   1.279   5.024   9.690 -0.1153 -0.0113  0.1255
  147YOPS   C3A 1893   1.734   5.003   9.488 -0.3109 -0.1072 -0.1209
  147YOPS   C4A 1894   1.911   4.996   9.131  0.2528 -0.1432 -0.0022
  147YOPS   C1B 1895   0.668   5.239  10.165  0.1084  0.0570 -0.2033
  147YOPS   C2B 1896   0.791   5.105   9.704  0.0581 -0.1505  0.1526
  147YOPS   D3B 1897   0.881   5.085   9.312  0.1609  0.3419  0.0427
  147YOPS   C4B 1898   1.208   4.914   9.106  0.3109 -0.0104 -0.0465
  148YOPS   CNO 1899   4.413  10.357  10.223 -0.0939 -0.2791  0.0394
  148YOPS   PO4 1900   4.762  10.347  10.386  0.1725  0.0449  0.0755
  148YOPS   GL1 1901   4.975  10.449   9.981 -0.0312 -0.0240  0.0043
  148YOPS   GL2 1902   4.774  10.413   9.850  0.0119  0.0034  0.1006
  148YOPS   C1A 1903   5.137  10.652   9.553  0.1299  0.0731  0.0831
  148YOPS   D2A 1904   5.189  10.926   9.193  0.1098 -0.2979  0.0465
  148YOPS   C3A 1905   4.983  11.044   8.768  0.2738  0.2101 -0.0513
  148YOPS   C4A 1906   5.272  11.217   8.475 -0.2163  0.1905 -0.1728
  148YOPS   C1B 1907   4.648  10.232   9.540 -0.1212 -0.0186 -0.0223
  148YOPS   C2B 1908   4.765  10.531   9.103 -0.1248  0.0993 -0.2230
  148YOPS   D3B 1909   4.857  10.416   8.729 -0.3188  0.0020 -0.0507
  148YOPS   C4B 1910   4.734  10.021   8.560  0.0485  0.1496  0.0200
  149YOPS   CNO 1911   4.374   0.033  10.415  0.0173  0.2236 -0.0102
  149YOPS   PO4 1912   3.902   0.181  10.453 -0.1167 -0.0438 -0.1549
  149YOPS   GL1 1913   4.018   0.080  10.044  0.1828 -0.2540 -0.2557
  149YOPS   GL2 1914   4.329   0.118   9.885  0.0506 -0.0812  0.1776
  149YOPS   C1A 1915   3.950   0.226   9.649  0.3108 -0.1939 -0.0660
  149YOPS   D2A 1916   3.852   0.213   9.207 -0.1769  0.0244  0.0003
  149YOPS   C3A 1917   4.039   0.455   8.727 -0.2290 -0.0901  0.1813
  149YOPS   C4A 1918   4.081   0.297   8.361 -0.0294 -0.1781  0.2741
  149YOPS   C1B 1919   4.627   0.092   9.615  0.0900  0.1505 -0.1200
  149YOPS   C2B 1920   4.779  -0.155   9.235  0.1132 -0.0851 -0.0084
  149YOPS   D3B 1921   4.958  -0.280   8.815  0.1317 -0.0536  0.1281
  149YOPS   C4B 1922   4.802  -0.324   8.335  0.1047 -0.2216 -0.2276
  150YOPS   CNO 1923  12.411   4.670  10.763  0.2716  0.0713 -0.0588
  150YOPS   PO4 1924  12.841   4.679  10.954  0.0590  0.0157  0.0614
  150YOPS   GL1 1925  12.909   4.758  10.568  0.2351 -0.0079 -0.0129
  150YOPS   GL2 1926  13.096   4.995  10.484  0.0017  0.0155 -0.0175
  150YOPS   C1A 1927  12.935   4.540  10.255 -0.2256 -0.1736  0.3178
  150YOPS   D2A 1928  12.629   4.740   9.935 -0.2333  0.0455 -0.1628
  150YOPS   C3A 1929  12.333   4.976  10.059 -0.0075 -0.2449  0.0360
  150YOPS   C4A 1930  12.026   4.816   9.822  0.3779 -0.0384 -0.1043
  150YOPS   C1B 1931  12.947   5.114  10.053 -0.3384  0.0497 -0.0772
  150YOPS   C2B 1932  13.018   5.097   9.624  0.1112 -0.1886  0.0974
  150YOPS   D3B 1933  12.842   4.894   9.352  0.0243 -0.0960 -0.1039
  150YOPS   C4B 1934  13.147   4.967   8.962 -0.0663 -0.1322 -0.3721
  151YOPS   CNO 1935   8.911   6.740  10.469 -0.4229  0.0206 -0.0122
  151YOPS   PO4 1936   8.732   6.301  10.475  0.0139  0.0066 -0.0524
  151YOPS   GL1 1937   8.698   6.421  10.094  0.0000 -0.0546 -0.0447
  151YOPS   GL2 1938   8.376   6.553  10.153  0.1164 -0.1082  0.0459
  151YOPS   C1A 1939   8.641   6.525   9.661  0.0266 -0.0872  0.0722
  151YOPS   D2A 1940   8.715   6.588   9.191 -0.1940  0.2134 -0.2466
  151YOPS   C3A 1941   8.742   6.562   8.745 -0.1581 -0.0312 -0.3345
  151YOPS   C4A 1942   8.510   6.487   8.472  0.3054  0.1012  0.0911
  151YOPS   C1B 1943   8.188   6.794   9.965  0.1543  0.0338 -0.0255
  151YOPS   C2B 1944   8.078   7.002   9.622 -0.1525  0.0659  0.2041
  151YOPS   D3B 1945   8.015   7.276   9.377 -0.2693  0.0821  0.1593
  151YOPS   C4B 1946   7.944   7.222   9.016 -0.0080 -0.0146  0.0174
  152YOPS   CNO 1947   2.564   4.860  11.333 -0.1066  0.2143  0.0027
  152YOPS   PO4 1948   2.506   5.181  11.200  0.4042 -0.2229 -0.1302
  152YOPS   GL1 1949   2.371   5.251  10.694  0.0718 -0.1183 -0.3315
  152YOPS   GL2 1950   2.524   5.395  10.609 -0.2198 -0.1983 -0.0845
  152YOPS   C1A 1951   2.237   5.014  10.317  0.0859  0.0830  0.0477
  152YOPS   D2A 1952   2.225   5.078   9.881 -0.2167  0.1399  0.2901
  152YOPS   C3A 1953   2.343   5.002   9.506  0.0589 -0.1037  0.1691
  152YOPS   C4A 1954   2.356   4.702   9.107  0.1686 -0.2448 -0.0128
  152YOPS   C1B 1955   2.588   5.447  10.222 -0.0730  0.2313 -0.2496
  152YOPS   C2B 1956   2.720   5.184   9.882  0.0126  0.2593  0.0350
  152YOPS   D3B 1957   2.752   4.772   9.832 -0.1950  0.1091  0.0476
  152YOPS   C4B 1958   2.600   4.497   9.516  0.1827 -0.1563  0.0196
  153YOPS   CNO 1959  16.343   0.751  10.889 -0.0759 -0.1549  0.2246
  153YOPS   PO4 1960  16.702   0.791  10.645  0.4992  0.0048  0.0635
  153YOPS   GL1 1961  16.771   0.713  10.218  0.1434 -0.1880 -0.1501
  153YOPS   GL2 1962  17.012   0.725  10.155  0.2063 -0.3933 -0.0449
  153YOPS   C1A 1963  16.661   0.778   9.822  0.0567  0.3084  0.1766
  153YOPS   D2A 1964  16.424   0.690   9.470  0.1282  0.0539  0.2536
  153YOPS   C3A 1965  16.437   0.661   9.204 -0.1211  0.1554  0.1134
  153YOPS   C4A 1966  16.108   0.856   8.926 -0.0408 -0.1015  0.1342
  153YOPS   C1B 1967  17.006   1.175   9.965  0.4578  0.2330 -0.0539
  153YOPS   C2B 1968  16.889   1.600   9.806  0.0703 -0.0504  0.1243
  153YOPS   D3B 1969  16.776   1.963   9.989  0.0875 -0.1012  0.0770
  153YOPS   C4B 1970  17.042   2.242  10.060 -0.1199 -0.3493  0.2282
  154YOPS   CNO 1971  12.172  17.654  10.443  0.1554 -0.0204 -0.0641
  154YOPS   PO4 1972  12.563  17.494  10.241 -0.0616 -0.0778 -0.1620
  154YOPS   GL1 1973  12.684  17.297   9.829 -0.5072 -0.1706  0.0235
  154YOPS   GL2 1974  12.898  17.535   9.762  0.2045 -0.0552 -0.1791
  154YOPS   C1A 1975  12.736  17.041   9.473  0.4484 -0.3027  0.0021
  154YOPS   D2A 1976  12.702  16.906   9.106 -0.1381 -0.2026 -0.1802
  154YOPS   C3A 1977  12.475  17.033   8.765  0.2183  0.0237  0.1167
  154YOPS   C4A 1978  12.034  16.963   8.847  0.3111 -0.4373 -0.2071
  154YOPS   C1B 1979  13.075  17.764   9.486 -0.0926  0.1557  0.0404
  154YOPS   C2B 1980  13.211  17.797   9.250 -0.0692 -0.1176  0.2880
  154YOPS   D3B 1981  13.195  17.798   8.915  0.1819  0.2617  0.0363
  154YOPS   C4B 1982  13.099  17.355   8.793 -0.0876  0.0691 -0.0618
  155YOPS   CNO 1983   3.917   6.761  10.330  0.1057  0.3682  0.0482
  155YOPS   PO4 1984   3.711   7.034  10.388  0.0926 -0.0485 -0.2503
  155YOPS   GL1 1985   3.512   7.046   9.952  0.1762  0.2196  0.0451
  155YOPS   GL2 1986   3.555   7.304   9.953  0.2956  0.0070  0.1718
  155YOPS   C1A 1987   3.564   6.790   9.627 -0.0935  0.0070  0.4465
  155YOPS   D2A 1988   3.563   6.891   9.242  0.1568  0.1734  0.1133
  155YOPS   C3A 1989   3.709   6.952   8.784 -0.0659  0.1853  0.1382
  155YOPS   C4A 1990   4.143   6.957   8.735  0.3656  0.1889  0.0319
  155YOPS   C1B 1991   3.654   7.643   9.623  0.3743  0.1780  0.0030
  155YOPS   C2B 1992   3.451   7.566   9.310 -0.1743  0.1070  0.3040
  155YOPS   D3B 1993   3.454   7.448   8.900 -0.0206  0.1986  0.1722
  155YOPS   C4B 1994   3.125   7.214   8.624  0.0208 -0.0258  0.1092
  156YOPS   CNO 1995  12.330  10.525  10.407 -0.0079  0.0354 -0.2166
  156YOPS   PO4 1996  12.539  10.081  10.343 -0.1851  0.0964  0.1260
  156YOPS   GL1 1997  12.481   9.751  10.096  0.0139 -0.0400  0.2191
  156YOPS   GL2 1998  12.202   9.748   9.865  0.1329 -0.0908  0.1012
  156YOPS   C1A 1999  12.626   9.692   9.654  0.1669  0.2758  0.1522
  156YOPS   D2A 2000  12.654   9.706   9.235 -0.1693 -0.0983  0.3083
  156YOPS   C3A 2001  12.689   9.633   8.789  0.0514  0.3675  0.2224
  156YOPS   C4A 2002  12.751   9.936   8.450  0.1102  0.0651 -0.0173
  156YOPS   C1B 2003  11.901   9.674   9.541  0.3001 -0.0972  0.4306
  156YOPS   C2B 2004  11.758   9.349   9.248 -0.0880 -0.0900 -0.1415
  156YOPS   D3B 2005  11.438   9.236   9.036  0.1187 -0.3128  0.0259
  156YOPS   C4B 2006  11.315   9.323   8.683  0.1604  0.0849  0.0705
  157YOPS   CNO 2007   5.421   7.629  10.553 -0.2568  0.1414 -0.2158
  157YOPS   PO4 2008   5.215   7.642  10.191  0.3130 -0.2192  0.2079
  157YOPS   GL1 2009   5.382   8.017   9.901 -0.3804  0.1523 -0.1749
  157YOPS   GL2 2010   5.308   8.275   9.879 -0.1027 -0.1629 -0.1259
  157YOPS   C1A 2011   5.347   7.981   9.292 -0.2179  0.1279  0.0598
  157YOPS   D2A 2012   5.217   8.198   9.003 -0.0177  0.2617 -0.1475
  157YOPS   C3A 2013   5.008   8.485   8.805  0.1489  0.3106  0.2946
  157YOPS   C4A 2014   4.817   8.381   8.386  0.1025 -0.0618  0.1325
  157YOPS   C1B 2015   5.207   8.483   9.557  0.2633  0.1220 -0.2415
  157YOPS   C2B 2016   5.214   8.691   9.194 -0.0524 -0.1271  0.0930
  157YOPS   D3B 2017   5.360   8.801   8.804 -0.0708  0.1906 -0.0208
  157YOPS   C4B 2018   5.703   8.706   8.550 -0.0096  0.0306 -0.2249
  158YOPS   CNO 2019   2.825  11.182  10.488  0.1419  0.1771  0.0935
  158YOPS   PO4 2020   2.936  11.562  10.427  0.1847  0.3758  0.1421
  158YOPS   GL1 2021   2.884  11.754   9.976  0.2607  0.1294  0.0145
  158YOPS   GL2 2022   2.927  11.457   9.793  0.0561  0.2906  0.0540
  158YOPS   C1A 2023   3.226  11.884   9.749  0.0476 -0.3467 -0.0159
  158YOPS   D2A 2024   3.338  11.638   9.424  0.3195 -0.2477  0.1101
  158YOPS   C3A 2025   3.819  11.582   9.294 -0.2824  0.0466  0.0055
  158YOPS   C4A 2026   4.148  11.944   9.170 -0.0357 -0.3812  0.0005
  158YOPS   C1B 2027   2.793  11.656   9.490  0.0172 -0.0589 -0.2521
  158YOPS   C2B 2028   2.722  11.761   9.188  0.0457  0.3601  0.0485
  158YOPS   D3B 2029   2.639  11.850   8.722  0.0820 -0.1525  0.0207
  158YOPS   C4B 2030   2.499  11.603   8.389 -0.1731 -0.1064  0.1692
  159YOPS   CNO 2031   0.986  16.033  11.156 -0.0377  0.0258  0.2022
  159YOPS   PO4 2032   0.710  15.956  10.797 -0.1452 -0.3613  0.2139
  159YOPS   GL1 2033   0.651  15.854  10.340  0.2031 -0.2615  0.0382
  159YOPS   GL2 2034   0.620  15.616  10.127 -0.2438  0.1618 -0.0990
  159YOPS   C1A 2035   0.814  16.031   9.977  0.2233 -0.3747  0.0894
  159YOPS   D2A 2036   0.739  15.939   9.558 -0.1668 -0.2046 -0.0439
  159YOPS   C3A 2037   0.704  15.830   9.113 -0.1468 -0.1681 -0.0065
  159YOPS   C4A 2038   0.422  16.129   8.873  0.3178  0.4317 -0.2960
  159YOPS   C1B 2039   0.442  15.458   9.775 -0.1245 -0.0466 -0.2225
  159YOPS   C2B 2040   0.259  15.529   9.393  0.0422  0.0050  0.0873
  159YOPS   D3B 2041   0.184  15.672   9.006 -0.0073 -0.3281 -0.1465
  159YOPS   C4B 2042   0.610  15.733   8.634  0.2729  0.2881  0.0611
  160YOPS   CNO 2043   5.831   0.496  10.189 -0.0662 -0.0231 -0.2086
  160YOPS   PO4 2044   5.509   0.749  10.252  0.1348 -0.1899  0.0933
  160YOPS   GL1 2045   5.430   0.633   9.895  0.1749  0.0769  0.1248
  160YOPS   GL2 2046   5.223   0.388   9.952 -0.0055 -0.0178  0.2735
  160YOPS   C1A 2047   5.491   0.341   9.523 -0.0947  0.0564  0.0167
  160YOPS   D2A 2048   5.301   0.237   9.201 -0.1968 -0.1739 -0.0259
  160YOPS   C3A 2049   5.308  -0.110   9.092 -0.0945  0.3328  0.1875
  160YOPS   C4A 2050   5.434  -0.116   8.656 -0.2967 -0.0313  0.5012
  160YOPS   C1B 2051   4.973   0.452   9.634  0.1874 -0.2285 -0.2831
  160YOPS   C2B 2052   4.852   0.370   9.203  0.3134 -0.1080  0.0258
  160YOPS   D3B 2053   4.980   0.313   8.803  0.1108  0.0346  0.0645
  160YOPS   C4B 2054   5.250   0.571   8.491 -0.0624  0.2046 -0.2122
  161YOPS   CNO 2055   7.264  10.927  10.465  0.0012  0.2102 -0.0095
  161YOPS   PO4 2056   7.710  11.081  10.427 -0.2307  0.2753 -0.1305
  161YOPS   GL1 2057   7.697  11.088  10.045 -0.3386  0.1751  0.1329
  161YOPS   GL2 2058   7.425  10.937   9.952  0.0449 -0.2898 -0.0064
  161YOPS   C1A 2059   7.738  11.093   9.584  0.2384  0.2007  0.1658
  161YOPS   D2A 2060   7.497  10.856   9.336 -0.0700  0.2870  0.1529
  161YOPS   C3A 2061   7.380  10.617   8.931 -0.0821  0.1447 -0.1001
  161YOPS   C4A 2062   7.606  10.708   8.635  0.2534  0.3625  0.0267
  161YOPS   C1B 2063   7.163  11.052   9.669 -0.0493  0.0214 -0.0291
  161YOPS   C2B 2064   7.029  10.909   9.241 -0.0642 -0.2387  0.1960
  161YOPS   D3B 2065   6.907  10.973   8.888  0.4066  0.0908  0.0467
  161YOPS   C4B 2066   7.257  11.230   8.776 -0.2465  0.0273  0.0080
  162YOPS   CNO 2067   7.633  12.246  10.343  0.1418 -0.0052  0.0089
  162YOPS   PO4 2068   7.360  12.257  10.070  0.0885 -0.1764 -0.2623
  162YOPS   GL1 2069   7.269  11.846   9.917 -0.1075  0.1420 -0.0486
  162YOPS   GL2 2070   6.952  11.739  10.005  0.0792 -0.0928  0.1920
  162YOPS   C1A 2071   7.474  11.535   9.689 -0.2215 -0.1817 -0.1702
  162YOPS   D2A 2072   7.362  11.312   9.283  0.0913  0.0416 -0.0756
  162YOPS   C3A 2073   7.710  11.180   8.970  0.1995 -0.3436  0.1220
  162YOPS   C4A 2074   7.693  11.236   8.504 -0.0074 -0.2084 -0.0825
  162YOPS   C1B 2075   6.978  11.525   9.619 -0.0352  0.0920  0.2265
  162YOPS   C2B 2076   6.857  11.413   9.159  0.0967  0.1212  0.1296
  162YOPS   D3B 2077   6.860  11.545   8.770  0.0415  0.4978 -0.0906
  162YOPS   C4B 2078   6.748  11.356   8.468  0.2909 -0.0982  0.3938
  163YOPS   CNO 2079   7.899   6.482  10.769  0.1300  0.0687 -0.2478
  163YOPS   PO4 2080   7.930   6.310  10.329  0.1463  0.0106  0.0645
  163YOPS   GL1 2081   8.038   6.229   9.874 -0.0836  0.0637 -0.0002
  163YOPS   GL2 2082   8.144   6.045   9.735  0.1571 -0.2746 -0.0830
  163YOPS   C1A 2083   8.146   6.510   9.559  0.0943 -0.1153 -0.4281
  163YOPS   D2A 2084   7.945   6.699   9.211 -0.0340 -0.1036  0.0052
  163YOPS   C3A 2085   7.898   6.821   8.739 -0.0960  0.1232  0.0157
  163YOPS   C4A 2086   8.194   6.916   8.505  0.1498  0.1411 -0.3002
  163YOPS   C1B 2087   8.357   6.106   9.308 -0.3085  0.2767 -0.1381
  163YOPS   C2B 2088   8.287   6.447   8.933 -0.0797  0.2873  0.0079
  163YOPS   D3B 2089   8.039   6.321   8.534 -0.1477  0.0486  0.2196
  163YOPS   C4B 2090   7.695   5.931   8.652  0.0352  0.0924 -0.2617
  164YOPS   CNO 2091  14.370   5.333  10.619 -0.0272  0.0982 -0.1651
  164YOPS   PO4 2092  14.818   5.344  10.749 -0.0732 -0.1668  0.1171
  164YOPS   GL1 2093  14.779   5.158  10.249 -0.3126  0.1281  0.0708
  164YOPS   GL2 2094  14.957   5.001  10.036  0.1664  0.3931  0.4149
  164YOPS   C1A 2095  14.459   5.027   9.966  0.0428  0.0346  0.1448
  164YOPS   D2A 2096  14.266   5.131   9.570 -0.0179  0.1338  0.0961
  164YOPS   C3A 2097  13.917   5.085   9.390  0.1904 -0.0575 -0.1169
  164YOPS   C4A 2098  13.527   4.867   9.523  0.4762 -0.0588 -0.2154
  164YOPS   C1B 2099  14.843   5.128   9.608  0.1677 -0.0788 -0.2566
  164YOPS   C2B 2100  14.643   5.011   9.312  0.2223 -0.4004 -0.2565
  164YOPS   D3B 2101  14.706   4.968   8.855 -0.0102 -0.0051 -0.0215
  164YOPS   C4B 2102  15.069   5.005   8.643 -0.5511  0.1078 -0.0904
  165YOPS   CNO 2103   2.289   6.363  11.511 -0.0141  0.0480  0.2909
  165YOPS   PO4 2104   2.233   6.169  11.013  0.1188  0.2954  0.0084
  165YOPS   GL1 2105   2.100   6.069  10.609  0.0712 -0.1786 -0.1538
  165YOPS   GL2 2106   2.205   5.790  10.586  0.0713 -0.2595  0.1985
  165YOPS   C1A 2107   2.088   6.212  10.212  0.1078 -0.0331 -0.1500
  165YOPS   D2A 2108   1.966   5.982   9.842 -0.1703  0.1231  0.0126
  165YOPS   C3A 2109   1.982   5.877   9.468  0.0512 -0.1545 -0.1947
  165YOPS   C4A 2110   2.244   5.853   9.095  0.0368  0.0864 -0.0179
  165YOPS   C1B 2111   2.399   5.835  10.113  0.0401  0.2078  0.0063
  165YOPS   C2B 2112   2.377   5.627   9.671 -0.1904 -0.0242  0.1733
  165YOPS   D3B 2113   2.092   5.405   9.426 -0.2224  0.0916  0.1452
  165YOPS   C4B 2114   1.795   5.471   9.130 -0.4204 -0.2618  0.0434
  166YOPS   CNO 2115  16.451   3.056  11.255 -0.3342  0.0994  0.1703
  166YOPS   PO4 2116  16.221   2.865  10.898  0.3433 -0.0324 -0.1299
  166YOPS   GL1 2117  16.289   3.001  10.479  0.0149  0.2378 -0.0437
  166YOPS   GL2 2118  16.514   3.251  10.339 -0.1236 -0.2894  0.0299
  166YOPS   C1A 2119  16.520   2.835  10.094  0.0758  0.0146 -0.0933
  166YOPS   D2A 2120  16.498   2.849   9.649  0.0961  0.0639 -0.0198
  166YOPS   C3A 2121  16.343   2.894   9.234  0.1423 -0.1683 -0.0631
  166YOPS   C4A 2122  16.608   3.184   8.928  0.0664 -0.0680 -0.0227
  166YOPS   C1B 2123  16.492   3.415   9.937  0.3371  0.0514 -0.0920
  166YOPS   C2B 2124  16.489   3.475   9.458 -0.0929  0.1469  0.0087
  166YOPS   D3B 2125  16.427   3.712   9.044  0.0244 -0.0356  0.0037
  166YOPS   C4B 2126  16.230   3.424   8.716 -0.0358 -0.2757 -0.0879
  167YOPS   CNO 2127  17.558   2.746  11.182  0.1096  0.2530  0.2366
  167YOPS   PO4 2128  17.751   2.991  10.959 -0.1447 -0.2205  0.0743
  167YOPS   GL1 2129  17.786   3.165  10.660  0.2969  0.0105  0.0137
  167YOPS   GL2 2130  17.544   3.201  10.469 -0.1728  0.1972  0.0661
  167YOPS   C1A 2131  18.027   3.327  10.323  0.1715 -0.3987 -0.0455
  167YOPS   D2A 2132  18.039   3.324   9.917  0.0884 -0.3122  0.2366
  167YOPS   C3A 2133  17.942   3.423   9.564 -0.1807 -0.3032 -0.1917
  167YOPS   C4A 2134  18.276   3.417   9.258 -0.0952  0.3037 -0.0740
  167YOPS   C1B 2135  17.578   3.294  10.096  0.3367  0.1651  0.1841
  167YOPS   C2B 2136  17.463   3.263   9.690  0.0744  0.0544  0.2855
  167YOPS   D3B 2137  17.438   3.444   9.324 -0.0244 -0.0160 -0.1972
  167YOPS   C4B 2138  17.009   3.634   9.126 -0.0721 -0.0436 -0.1793
  168POPE   NH3 2139   6.239   7.201  10.207  0.0750  0.0093  0.2220
  168POPE   PO4 2140   6.647   7.090  10.204 -0.0035 -0.0620  0.0659
  168POPE   GL1 2141   6.552   7.217   9.779 -0.4844  0.0562  0.0496
  168POPE   GL2 2142   6.811   7.499   9.651  0.1186 -0.2663 -0.0763
  168POPE   C1A 2143   6.496   7.203   9.336  0.2191  0.0679 -0.2545
  168POPE   D2A 2144   6.525   7.122   8.848 -0.1660  0.1412  0.0590
  168POPE   C3A 2145   6.348   7.497   8.634 -0.1065  0.2409 -0.0248
  168POPE   C4A 2146   5.897   7.552   8.648  0.0346 -0.0787  0.2305
  168POPE   C1B 2147   6.999   7.751   9.366 -0.2279 -0.0715  0.1215
  168POPE   C2B 2148   7.171   7.958   9.037  0.2408 -0.0470 -0.0644
  168POPE   C3B 2149   7.497   7.980   8.760  0.0532  0.1644 -0.1639
  168POPE   C4B 2150   7.710   8.303   8.667 -0.0690 -0.0606  0.0812
  169POPE   NH3 2151   9.353  17.846  10.036 -0.0896 -0.1219  0.0365
  169POPE   PO4 2152   8.917  17.972  10.059 -0.0011 -0.0361  0.3892
  169POPE   GL1 2153   8.987  17.713   9.668  0.0420 -0.2637  0.2027
  169POPE   GL2 2154   9.165  17.447   9.586  0.1352  0.1087 -0.1402
  169POPE   C1A 2155   9.007  17.690   9.173 -0.2102  0.0225 -0.0535
  169POPE   D2A 2156   9.096  17.582   8.721  0.0552  0.1778 -0.0174
  169POPE   C3A 2157   8.748  17.545   8.412  0.0403  0.0618  0.0007
  169POPE   C4A 2158   8.498  17.429   8.156 -0.1013 -0.1213 -0.1927
  169POPE   C1B 2159   9.257  17.277   9.251 -0.0928  0.3411 -0.0862
  169POPE   C2B 2160   9.229  17.177   8.884  0.1932 -0.3210 -0.1327
  169POPE   C3B 2161   8.978  17.141   8.556  0.0135  0.0369  0.1986
  169POPE   C4B 2162   8.871  16.869   8.167  0.1986  0.0171  0.0403
  170POPE   NH3 2163  16.567   4.268  10.886  0.0155  0.2002  0.0956
  170POPE   PO4 2164  16.374   3.818  11.106  0.0571  0.1324  0.2005
  170POPE   GL1 2165  16.367   3.863  10.639 -0.1353 -0.3060 -0.0525
  170POPE   GL2 2166  16.686   3.676  10.581 -0.1098  0.0107 -0.0895
  170POPE   C1A 2167  16.203   3.786  10.150  0.1731  0.0555 -0.0159
  170POPE   D2A 2168  16.055   3.530   9.818  0.0019  0.3357 -0.3337
  170POPE   C3A 2169  16.012   3.738   9.383 -0.1902 -0.0591  0.0723
  170POPE   C4A 2170  15.961   3.844   8.955 -0.0013  0.0601  0.1505
  170POPE   C1B 2171  16.768   3.757  10.193 -0.0110  0.0526 -0.0466
  170POPE   C2B 2172  16.737   3.832   9.795  0.1511  0.2720  0.1003
  170POPE   C3B 2173  16.651   4.021   9.347 -0.2028  0.0378 -0.0651
  170POPE   C4B 2174  16.846   4.532   9.237  0.0976 -0.0718 -0.0013
  171POPE   NH3 2175   7.741   1.698  10.145  0.1442 -0.0632 -0.2855
  171POPE   PO4 2176   8.033   1.401  10.049  0.1077  0.0108  0.0899
  171POPE   GL1 2177   7.903   1.141   9.735  0.0114 -0.0294  0.0271
  171POPE   GL2 2178   7.739   0.866   9.742  0.3992 -0.1447 -0.0262
  171POPE   C1A 2179   7.882   1.190   9.321  0.0015  0.3505  0.3205
  171POPE   D2A 2180   7.873   1.267   8.902  0.3165  0.1147  0.4099
  171POPE   C3A 2181   7.781   1.181   8.466  0.0962 -0.3548  0.0914
  171POPE   C4A 2182   7.649   1.299   8.082 -0.0105 -0.1631 -0.0925
  171POPE   C1B 2183   7.757   0.448   9.700 -0.1437 -0.1965  0.2023
  171POPE   C2B 2184   7.675   0.197   9.387  0.2385 -0.0426 -0.0727
  171POPE   C3B 2185   7.563  -0.008   9.033  0.2035  0.0701 -0.0358
  171POPE   C4B 2186   7.285  -0.162   8.725 -0.1323  0.0665 -0.0182
  172POPE   NH3 2187  14.883  16.124  10.285  0.2476  0.0897  0.0398
  172POPE   PO4 2188  14.497  16.087  10.386  0.1629  0.2049 -0.0239
  172POPE   GL1 2189  14.473  16.213   9.960 -0.1251 -0.1741  0.3734
  172POPE   GL2 2190  14.679  15.984   9.876 -0.0890  0.4586 -0.3250
  172POPE   C1A 2191  14.401  16.132   9.497 -0.2306 -0.0959  0.0204
  172POPE   D2A 2192  14.628  16.092   9.097  0.0843 -0.1515 -0.1248
  172POPE   C3A 2193  14.532  16.218   8.726 -0.2033 -0.2283  0.2356
  172POPE   C4A 2194  14.441  16.462   8.395  0.0700  0.1187 -0.1739
  172POPE   C1B 2195  14.957  16.042   9.565  0.1605  0.0827 -0.0190
  172POPE   C2B 2196  15.174  16.062   9.211 -0.0145 -0.0640  0.1775
  172POPE   C3B 2197  15.077  16.279   8.825  0.1133  0.1786 -0.0329
  172POPE   C4B 2198  15.086  16.437   8.373  0.3073  0.0006 -0.0314
  173POPE   NH3 2199  14.784   2.718  10.797  0.1841 -0.0409  0.0324
  173POPE   PO4 2200  14.793   3.124  10.852  0.2381  0.0531 -0.0346
  173POPE   GL1 2201  14.690   3.061  10.438  0.0413  0.0020 -0.1427
  173POPE   GL2 2202  14.569   3.353  10.276  0.1831 -0.2291  0.0293
  173POPE   C1A 2203  14.884   3.007  10.132 -0.2290 -0.1810 -0.3420
  173POPE   D2A 2204  14.998   3.180   9.755 -0.0921 -0.1220 -0.1677
  173POPE   C3A 2205  15.224   3.142   9.417  0.0939  0.2620  0.0574
  173POPE   C4A 2206  15.239   3.161   8.970 -0.0014  0.1542 -0.0193
  173POPE   C1B 2207  14.730   3.513   9.949  0.3343 -0.1755 -0.3218
  173POPE   C2B 2208  14.924   3.689   9.640  0.2438 -0.2957 -0.4065
  173POPE   C3B 2209  15.063   3.932   9.388  0.2319  0.1468 -0.0643
  173POPE   C4B 2210  15.082   4.274   9.270  0.0534 -0.0128 -0.1351
  174POPE   NH3 2211   7.864   5.413   9.889 -0.3731 -0.2570  0.4294
  174POPE   PO4 2212   7.409   5.436   9.916  0.0236 -0.2817  0.0530
  174POPE   GL1 2213   7.158   5.232   9.655 -0.1354  0.0735  0.0363
  174POPE   GL2 2214   7.377   5.026   9.486  0.0473  0.0426  0.0106
  174POPE   C1A 2215   7.075   5.131   9.099  0.3730 -0.1913 -0.2314
  174POPE   D2A 2216   6.867   5.104   8.720  0.0376  0.0580  0.1556
  174POPE   C3A 2217   6.986   4.937   8.373  0.0694  0.1240  0.0514
  174POPE   C4A 2218   7.071   4.917   7.938 -0.0435  0.0542 -0.0655
  174POPE   C1B 2219   7.538   4.925   9.100  0.0254  0.0355 -0.1252
  174POPE   C2B 2220   7.410   4.959   8.665 -0.1295 -0.2607  0.1497
  174POPE   C3B 2221   7.509   4.963   8.230 -0.1401  0.0932 -0.2068
  174POPE   C4B 2222   7.467   5.310   7.975  0.1820 -0.0121 -0.0203
  175POPE   NH3 2223   1.996  10.605  10.097 -0.0202 -0.2178  0.3330
  175POPE   PO4 2224   1.757  11.003  10.043  0.2318 -0.0693 -0.3084
  175POPE   GL1 2225   1.689  10.732   9.678 -0.0831  0.0439  0.1977
  175POPE   GL2 2226   1.964  10.654   9.611 -0.1204 -0.0231  0.0392
  175POPE   C1A 2227   1.658  10.748   9.228  0.1712 -0.1466  0.1037
  175POPE   D2A 2228   1.666  10.622   8.821  0.1405  0.0226  0.0542
  175POPE   C3A 2229   1.970  10.617   8.425 -0.1343 -0.1127  0.1016
  175POPE   C4A 2230   2.310  10.750   8.143 -0.0225  0.1037 -0.1552
  175POPE   C1B 2231   2.068  10.526   9.245  0.0436 -0.0524 -0.2734
  175POPE   C2B 2232   2.129  10.394   8.813 -0.3215  0.0493  0.1671
  175POPE   C3B 2233   2.503  10.404   8.571  0.0358  0.1051 -0.1836
  175POPE   C4B 2234   2.757  10.531   8.162 -0.0213 -0.0611 -0.0378
  176POPE   NH3 2235   0.001  11.561  10.089  0.1007  0.3628  0.2776
  176POPE   PO4 2236   0.058  12.004   9.867 -0.0743  0.2536  0.0955
  176POPE   GL1 2237  -0.082  12.019   9.415  0.3375 -0.1194  0.0100
  176POPE   GL2 2238  -0.338  11.843   9.327 -0.1578  0.1613  0.0488
  176POPE   C1A 2239  -0.119  12.127   8.989 -0.2256  0.2070 -0.1268
  176POPE   D2A 2240  -0.038  12.393   8.781  0.1890  0.1128  0.3479
  176POPE   C3A 2241  -0.197  12.535   8.412  0.1364 -0.0393  0.2593
  176POPE   C4A 2242  -0.444  12.540   7.982  0.2108 -0.2665 -0.3250
  176POPE   C1B 2243  -0.405  11.698   8.889  0.1579  0.0856 -0.0723
  176POPE   C2B 2244  -0.174  11.854   8.533 -0.1269 -0.0009 -0.0457
  176POPE   C3B 2245   0.128  12.107   8.433  0.2937  0.1214 -0.1880
  176POPE   C4B 2246   0.245  12.397   8.059 -0.1936  0.1171  0.1626
  177POPE   NH3 2247  12.552   2.324  10.609 -0.1598  0.1163 -0.2097
  177POPE   PO4 2248  12.311   2.338  10.209  0.0812 -0.3419 -0.2886
  177POPE   GL1 2249  12.443   2.567   9.838 -0.2394 -0.1057  0.0877
  177POPE   GL2 2250  12.234   2.709   9.669 -0.1869  0.2412 -0.0814
  177POPE   C1A 2251  12.574   2.554   9.336  0.3260 -0.0823 -0.0577
  177POPE   D2A 2252  12.744   2.466   8.991  0.0518 -0.0529  0.0787
  177POPE   C3A 2253  13.028   2.645   8.695 -0.0458 -0.1620 -0.0461
  177POPE   C4A 2254  13.420   2.683   8.470  0.0957  0.0230  0.0153
  177POPE   C1B 2255  12.446   3.004   9.444  0.0716  0.0687 -0.1581
  177POPE   C2B 2256  12.334   3.276   9.182  0.1045 -0.0446  0.0008
  177POPE   C3B 2257  12.524   3.487   8.751 -0.0773  0.6151  0.0061
  177POPE   C4B 2258  12.762   3.776   8.460 -0.0475  0.2018 -0.0523
  178POPE   NH3 2259  10.685   5.341  10.674 -0.2031  0.1470  0.0874
  178POPE   PO4 2260  10.762   5.611  10.199 -0.1303 -0.0813 -0.2432
  178POPE   GL1 2261  11.004   5.729   9.901 -0.0129 -0.2622  0.1642
  178POPE   GL2 2262  11.010   6.073   9.835 -0.0252 -0.3022 -0.2072
  178POPE   C1A 2263  11.029   5.773   9.456  0.1632 -0.3092 -0.2117
  178POPE   D2A 2264  11.292   5.787   9.133  0.3934  0.2082  0.1553
  178POPE   C3A 2265  11.015   5.626   8.789  0.0451 -0.2320 -0.1683
  178POPE   C4A 2266  10.940   5.975   8.371 -0.0970  0.0788 -0.0205
  178POPE   C1B 2267  11.356   6.157   9.544 -0.1895  0.1526 -0.0194
  178POPE   C2B 2268  11.680   6.154   9.182 -0.1133 -0.0551  0.2246
  178POPE   C3B 2269  11.651   6.261   8.803 -0.0524  0.1311  0.3032
  178POPE   C4B 2270  11.405   5.981   8.522 -0.4844 -0.0679 -0.0207
  179POPE   NH3 2271   6.122  14.860  10.469  0.1261 -0.1640 -0.2033
  179POPE   PO4 2272   5.906  14.489  10.464  0.0201  0.2026  0.1540
  179POPE   GL1 2273   5.828  14.415  10.008 -0.0566 -0.0538  0.1756
  179POPE   GL2 2274   5.571  14.495   9.954 -0.3354 -0.0895  0.0524
  179POPE   C1A 2275   6.109  14.387   9.654  0.1441 -0.2925 -0.0670
  179POPE   D2A 2276   6.267  14.077   9.362 -0.2907 -0.2633  0.3801
  179POPE   C3A 2277   6.256  14.136   8.935 -0.0851  0.2999 -0.0635
  179POPE   C4A 2278   6.239  13.973   8.569 -0.0872 -0.1795  0.2734
  179POPE   C1B 2279   5.757  14.719   9.592  0.0631 -0.1062 -0.1052
  179POPE   C2B 2280   5.804  14.895   9.276  0.1022 -0.0115  0.0274
  179POPE   C3B 2281   5.961  14.870   8.895 -0.2423 -0.2173  0.1052
  179POPE   C4B 2282   6.205  14.653   8.691  0.3007  0.1307  0.2093
  180POPE   NH3 2283  16.289  11.159  10.384  0.0946 -0.2055  0.1463
  180POPE   PO4 2284  16.227  11.499  10.220  0.0232 -0.0930 -0.0640
  180POPE   GL1 2285  16.456  11.495   9.954 -0.3332  0.2008  0.2590
  180POPE   GL2 2286  16.491  11.744   9.691 -0.1078  0.0302 -0.1325
  180POPE   C1A 2287  16.265  11.331   9.474 -0.0414 -0.2011  0.1336
  180POPE   D2A 2288  16.085  11.111   9.186  0.0229  0.1518 -0.1712
  180POPE   C3A 2289  16.194  11.140   8.721  0.1213  0.1080  0.0559
  180POPE   C4A 2290  16.243  11.298   8.355  0.3258  0.0502 -0.0059
  180POPE   C1B 2291  16.488  11.883   9.271 -0.0737  0.1319  0.1222
  180POPE   C2B 2292  16.575  12.065   8.897 -0.2159  0.0026  0.0887
  180POPE   C3B 2293  16.295  12.041   8.531  0.1423 -0.2358  0.0991
  180POPE   C4B 2294  16.057  11.952   8.082 -0.5628 -0.0938  0.3263
  181POPE   NH3 2295  15.177  15.344  10.653  0.1694  0.0810  0.0223
  181POPE   PO4 2296  15.581  15.493  10.635 -0.3177 -0.1436  0.1549
  181POPE   GL1 2297  15.562  15.290  10.251  0.3178  0.2410 -0.2922
  181POPE   GL2 2298  15.513  15.395   9.933 -0.2335 -0.0282 -0.0748
  181POPE   C1A 2299  15.803  14.981   9.957  0.0410 -0.0341  0.1161
  181POPE   D2A 2300  16.074  15.048   9.617 -0.0370 -0.1426  0.0227
  181POPE   C3A 2301  15.931  15.148   9.182 -0.0755 -0.0393 -0.1453
  181POPE   C4A 2302  15.653  14.938   8.891 -0.1266 -0.0102 -0.2019
  181POPE   C1B 2303  15.584  15.223   9.563  0.1155  0.0884  0.0772
  181POPE   C2B 2304  15.402  15.232   9.175 -0.0638  0.2826 -0.0240
  181POPE   C3B 2305  15.257  15.304   8.792  0.0736 -0.4291  0.2778
  181POPE   C4B 2306  15.350  15.135   8.453  0.0581 -0.1025 -0.2208
  182POPE   NH3 2307   6.366  15.750  10.618 -0.0478 -0.2904  0.0789
  182POPE   PO4 2308   6.758  16.009  10.727  0.1088  0.0576 -0.0889
  182POPE   GL1 2309   6.760  15.992  10.346  0.1056 -0.0011  0.0710
  182POPE   GL2 2310   7.024  15.854  10.243 -0.1131 -0.2357 -0.2301
  182POPE   C1A 2311   6.685  16.310   9.930  0.0502  0.2060  0.1552
  182POPE   D2A 2312   6.757  16.331   9.547 -0.0209 -0.1681  0.1742
  182POPE   C3A 2313   6.694  16.296   9.120 -0.1874  0.3495  0.0968
  182POPE   C4A 2314   6.654  16.157   8.780  0.0085 -0.0861  0.1992
  182POPE   C1B 2315   7.026  15.861   9.767 -0.0760  0.0458 -0.0250
  182POPE   C2B 2316   7.030  15.845   9.329 -0.0994 -0.1629 -0.3037
  182POPE   C3B 2317   7.060  15.867   8.953 -0.1173 -0.3048  0.0479
  182POPE   C4B 2318   7.444  16.134   8.740  0.1610 -0.0494 -0.0170
  183POPE   NH3 2319  13.656  13.212  10.433  0.1814  0.0635 -0.0584
  183POPE   PO4 2320  13.300  13.306  10.360  0.2746  0.1634 -0.0735
  183POPE   GL1 2321  13.495  13.490  10.045 -0.0357 -0.1575  0.2311
  183POPE   GL2 2322  13.351  13.730   9.924 -0.0063 -0.0687 -0.2955
  183POPE   C1A 2323  13.767  13.637   9.671  0.1793 -0.1864  0.0137
  183POPE   D2A 2324  14.081  13.727   9.297 -0.2919 -0.0611  0.0338
  183POPE   C3A 2325  13.901  13.834   8.843  0.4441  0.0246 -0.0691
  183POPE   C4A 2326  13.498  13.697   8.682  0.1805 -0.3567  0.0767
  183POPE   C1B 2327  13.287  13.807   9.485 -0.0260  0.0724 -0.0371
  183POPE   C2B 2328  13.518  13.838   9.231 -0.3659  0.0285  0.0136
  183POPE   C3B 2329  13.467  14.180   8.830  0.1321 -0.3108 -0.0364
  183POPE   C4B 2330  13.626  14.081   8.432  0.0039 -0.0733 -0.0214
  184POPE   NH3 2331   1.482   7.176  10.495 -0.0099 -0.1541 -0.0837
  184POPE   PO4 2332   1.274   6.999  10.842 -0.2025  0.0331  0.0171
  184POPE   GL1 2333   1.411   6.706  10.593  0.2816 -0.3012  0.1064
  184POPE   GL2 2334   1.585   6.314  10.576  0.0076  0.1456 -0.0023
  184POPE   C1A 2335   1.248   6.575  10.260 -0.0396 -0.0726  0.0094
  184POPE   D2A 2336   1.037   6.409   9.923  0.0351  0.2567  0.2011
  184POPE   C3A 2337   0.861   6.520   9.612 -0.2742  0.1844  0.2592
  184POPE   C4A 2338   0.637   6.647   9.213 -0.0486 -0.1222  0.1066
  184POPE   C1B 2339   1.549   6.266  10.012 -0.2715 -0.1284  0.2867
  184POPE   C2B 2340   1.492   5.996   9.616  0.0562 -0.1930 -0.1214
  184POPE   C3B 2341   1.398   5.860   9.185  0.0501  0.1258 -0.1225
  184POPE   C4B 2342   1.310   6.016   8.839 -0.0493 -0.1359  0.0853
  185POPE   NH3 2343  12.810  11.703  10.159 -0.0867  0.0641  0.0880
  185POPE   PO4 2344  12.779  12.092   9.964  0.2117  0.0669  0.0549
  185POPE   GL1 2345  12.856  11.856   9.643 -0.4032  0.3285 -0.1442
  185POPE   GL2 2346  13.094  11.778   9.713  0.2340 -0.1478 -0.0853
  185POPE   C1A 2347  12.966  11.859   9.139 -0.0198  0.1695  0.1425
  185POPE   D2A 2348  13.136  11.809   8.703 -0.1921 -0.1067 -0.2542
  185POPE   C3A 2349  12.806  11.905   8.368 -0.1264 -0.0242  0.1053
  185POPE   C4A 2350  12.631  11.676   8.123 -0.0115 -0.0154 -0.2027
  185POPE   C1B 2351  13.347  11.699   9.390 -0.0560  0.2145  0.0672
  185POPE   C2B 2352  13.494  11.553   9.005 -0.1509  0.1743 -0.1164
  185POPE   C3B 2353  13.623  11.682   8.617 -0.1437 -0.1984  0.2453
  185POPE   C4B 2354  13.830  11.830   8.246 -0.0795  0.0396 -0.3335
  186POPE   NH3 2355   6.902   5.010  10.068 -0.0512 -0.0162 -0.0948
  186POPE   PO4 2356   6.455   4.832  10.014 -0.0048  0.0474 -0.2384
  186POPE   GL1 2357   6.527   4.920   9.543 -0.5697  0.0242  0.1180
  186POPE   GL2 2358   6.717   5.174   9.465 -0.2558  0.0526  0.1566
  186POPE   C1A 2359   6.573   4.907   9.107  0.1113  0.1717 -0.2051
  186POPE   D2A 2360   6.336   4.814   8.615  0.0585 -0.1466  0.2929
  186POPE   C3A 2361   6.372   4.724   8.167 -0.0565 -0.2765 -0.0808
  186POPE   C4A 2362   6.071   4.499   7.922 -0.0956  0.0699  0.3556
  186POPE   C1B 2363   6.693   5.452   9.067 -0.0040 -0.2679  0.1489
  186POPE   C2B 2364   6.739   5.634   8.625 -0.2538  0.1147 -0.2987
  186POPE   C3B 2365   6.509   5.740   8.250  0.0319 -0.0542 -0.0436
  186POPE   C4B 2366   6.519   5.649   7.766 -0.0859 -0.2684 -0.2158
  187POPE   NH3 2367  17.727  13.374  10.240 -0.3071  0.0255  0.2253
  187POPE   PO4 2368  17.642  13.843  10.270  0.0293  0.1743  0.1828
  187POPE   GL1 2369  17.901  13.811   9.901 -0.0831 -0.2869  0.1195
  187POPE   GL2 2370  18.032  13.475   9.824 -0.0168  0.1220 -0.3622
  187POPE   C1A 2371  18.066  13.958   9.541  0.0053  0.0797 -0.1597
  187POPE   D2A 2372  18.340  13.991   9.112 -0.0776  0.0906  0.0117
  187POPE   C3A 2373  18.315  14.326   8.717 -0.2130 -0.1879 -0.2059
  187POPE   C4A 2374  18.471  14.705   8.571 -0.1505  0.3016  0.0526
  187POPE   C1B 2375  17.827  13.349   9.473  0.2048  0.0397 -0.0959
  187POPE   C2B 2376  17.733  13.240   9.008  0.1783 -0.0673  0.2505
  187POPE   C3B 2377  17.436  13.133   8.727  0.0176 -0.1697  0.0669
  187POPE   C4B 2378  16.985  13.223   8.367 -0.2135  0.1639 -0.0679
  188POPE   NH3 2379   3.218  15.065  10.443 -0.0304  0.0205 -0.0510
  188POPE   PO4 2380   2.804  14.819  10.534 -0.0283  0.0509 -0.2293
  188POPE   GL1 2381   2.423  14.935  10.290  0.1063  0.1310  0.1851
  188POPE   GL2 2382   2.122  14.648  10.302  0.2152  0.1191  0.1425
  188POPE   C1A 2383   2.323  15.244   9.911 -0.2378 -0.1353  0.1145
  188POPE   D2A 2384   1.980  15.348   9.583 -0.1264 -0.0590 -0.0342
  188POPE   C3A 2385   1.804  15.650   9.377  0.2295 -0.1199 -0.1945
  188POPE   C4A 2386   1.635  15.616   8.886  0.0829 -0.1445  0.1608
  188POPE   C1B 2387   2.136  14.777   9.841 -0.1375 -0.0417 -0.2291
  188POPE   C2B 2388   2.247  14.965   9.464  0.0820  0.2284 -0.0918
  188POPE   C3B 2389   2.402  15.315   9.276  0.1266  0.0778 -0.2133
  188POPE   C4B 2390   2.142  15.626   9.053  0.0489 -0.1967  0.4190
  189POPE   NH3 2391   4.778   7.432  10.358 -0.1729 -0.1826 -0.0199
  189POPE   PO4 2392   4.397   7.604  10.197 -0.1140 -0.1877  0.0975
  189POPE   GL1 2393   4.346   7.870   9.786 -0.0112 -0.0743  0.2103
  189POPE   GL2 2394   4.117   7.640   9.770 -0.0694  0.0070 -0.1622
  189POPE   C1A 2395   4.403   8.192   9.451 -0.0985 -0.1535 -0.0279
  189POPE   D2A 2396   4.703   8.578   9.380  0.2691  0.1089  0.2067
  189POPE   C3A 2397   4.670   8.734   9.098 -0.0604 -0.2625  0.1261
  189POPE   C4A 2398   4.918   9.102   8.899 -0.3798 -0.3266 -0.1749
  189POPE   C1B 2399   4.116   7.713   9.362  0.1232  0.0542 -0.2885
  189POPE   C2B 2400   4.218   7.928   9.023 -0.2022 -0.1029 -0.1900
  189POPE   C3B 2401   4.480   8.302   8.970  0.1390 -0.0104  0.0973
  189POPE   C4B 2402   4.507   8.676   8.662  0.0115 -0.1609  0.3043
  190POPE   NH3 2403  13.108   8.635  10.316  0.1763 -0.0714 -0.3294
  190POPE   PO4 2404  13.014   8.206  10.445 -0.3087  0.1436 -0.1898
  190POPE   GL1 2405  13.077   8.252   9.936 -0.0463 -0.0437 -0.1153
  190POPE   GL2 2406  13.101   8.515   9.825 -0.1463 -0.2044 -0.1078
  190POPE   C1A 2407  13.082   7.954   9.461  0.2364  0.1426 -0.1465
  190POPE   D2A 2408  13.255   7.803   9.124 -0.0461  0.3852  0.0572
  190POPE   C3A 2409  13.336   7.940   8.712 -0.0870  0.0980 -0.2332
  190POPE   C4A 2410  13.179   8.021   8.337  0.3431  0.0208  0.3248
  190POPE   C1B 2411  13.014   8.461   9.403 -0.0134  0.0229 -0.3393
  190POPE   C2B 2412  13.079   8.273   9.043  0.1020 -0.0916  0.0774
  190POPE   C3B 2413  12.969   8.477   8.658  0.0530 -0.0741  0.1380
  190POPE   C4B 2414  12.937   8.587   8.188  0.1864  0.3160  0.4556
  191POPE   NH3 2415   8.421   0.178  10.405 -0.0585  0.0997 -0.3271
  191POPE   PO4 2416   8.104  -0.147  10.496 -0.0242 -0.0225 -0.2357
  191POPE   GL1 2417   7.934  -0.191  10.007 -0.0097  0.1095  0.0241
  191POPE   GL2 2418   7.771  -0.042   9.772  0.0575  0.2709 -0.1135
  191POPE   C1A 2419   8.012  -0.387   9.548  0.1940 -0.1461 -0.0614
  191POPE   D2A 2420   8.133  -0.447   9.201  0.1739  0.2166  0.1333
  191POPE   C3A 2421   8.039  -0.232   8.936  0.0269 -0.1943  0.0318
  191POPE   C4A 2422   7.759  -0.256   8.625 -0.1159 -0.3644  0.0621
  191POPE   C1B 2423   7.419  -0.204   9.521 -0.1253 -0.1559 -0.1305
  191POPE   C2B 2424   7.202  -0.340   9.170 -0.1420 -0.2706 -0.0706
  191POPE   C3B 2425   6.878  -0.568   8.818 -0.1815 -0.0004  0.0517
  191POPE   C4B 2426   6.676  -0.829   8.568 -0.2023  0.0075  0.3746
  192POPE   NH3 2427   8.486   1.137  10.153  0.1083  0.4131  0.1999
  192POPE   PO4 2428   8.831   1.107  10.147 -0.0687  0.1962 -0.1991
  192POPE   GL1 2429   8.968   1.149   9.797 -0.0147 -0.1072 -0.4796
  192POPE   GL2 2430   8.932   1.418   9.708 -0.1063 -0.0054  0.3662
  192POPE   C1A 2431   8.969   0.964   9.505 -0.2275  0.0489  0.0765
  192POPE   D2A 2432   8.920   0.906   9.026 -0.0988  0.0925 -0.1975
  192POPE   C3A 2433   9.025   1.263   8.772  0.1233  0.1218  0.0221
  192POPE   C4A 2434   9.102   1.384   8.349  0.2555 -0.1182 -0.2066
  192POPE   C1B 2435   8.883   1.393   9.259 -0.0722 -0.2748  0.0594
  192POPE   C2B 2436   8.661   1.742   8.847 -0.3006 -0.0879 -0.2458
  192POPE   C3B 2437   8.469   1.983   8.467 -0.0599 -0.0964  0.2051
  192POPE   C4B 2438   8.238   2.373   8.129 -0.2782 -0.0338  0.1105
  193POPE   NH3 2439   4.694  12.818  10.052  0.1831  0.0797  0.1220
  193POPE   PO4 2440   4.385  13.201  10.091 -0.4463  0.1256 -0.2236
  193POPE   GL1 2441   4.550  13.388   9.766  0.0690  0.1578  0.0255
  193POPE   GL2 2442   4.600  13.214   9.556  0.0721 -0.0848  0.1912
  193POPE   C1A 2443   4.754  13.574   9.294  0.0789  0.0305  0.1182
  193POPE   D2A 2444   4.667  13.767   9.029  0.0735 -0.4117 -0.0056
  193POPE   C3A 2445   4.927  13.997   8.815 -0.0208  0.0776 -0.2036
  193POPE   C4A 2446   5.220  14.230   8.538  0.2741  0.1298 -0.0555
  193POPE   C1B 2447   4.619  13.165   9.083  0.0533 -0.1489  0.0367
  193POPE   C2B 2448   4.448  13.100   8.642 -0.1554  0.1422  0.1436
  193POPE   C3B 2449   4.212  13.041   8.219  0.0568 -0.0461  0.0867
  193POPE   C4B 2450   4.233  13.095   7.871  0.0123  0.0100 -0.1864
  194POPE   NH3 2451  17.097  10.771  10.687  0.2079 -0.0530  0.1777
  194POPE   PO4 2452  17.378  10.457  10.691  0.1333 -0.1462 -0.1740
  194POPE   GL1 2453  17.397  10.414  10.327 -0.1368  0.1469 -0.0309
  194POPE   GL2 2454  17.041  10.549  10.195  0.0345  0.0601 -0.2270
  194POPE   C1A 2455  17.411  10.275   9.913  0.0355  0.2319  0.1400
  194POPE   D2A 2456  17.369  10.215   9.564  0.2749  0.3643 -0.0693
  194POPE   C3A 2457  17.477  10.263   9.094  0.1206  0.1717  0.0323
  194POPE   C4A 2458  17.314  10.067   8.777 -0.0215  0.0331  0.0042
  194POPE   C1B 2459  17.023  10.642   9.713 -0.4762 -0.0782 -0.2986
  194POPE   C2B 2460  16.888  10.580   9.251 -0.1039  0.2004 -0.0819
  194POPE   C3B 2461  16.801  10.515   8.867 -0.3804 -0.0321  0.0506
  194POPE   C4B 2462  16.941  10.496   8.464 -0.0252 -0.4123 -0.0907
  195POPE   NH3 2463   9.882  13.012  10.080  0.0013 -0.1377  0.0863
  195POPE   PO4 2464  10.370  12.998  10.096  0.0696 -0.0903 -0.0739
  195POPE   GL1 2465  10.418  13.208   9.722  0.0534 -0.0171 -0.0611
  195POPE   GL2 2466  10.029  13.306   9.722 -0.0915 -0.0542 -0.1024
  195POPE   C1A 2467  10.657  13.303   9.341  0.1561 -0.1076  0.1653
  195POPE   D2A 2468  10.729  13.271   8.960 -0.0542 -0.1928  0.1168
  195POPE   C3A 2469  10.672  13.471   8.753  0.0688 -0.1150 -0.1406
  195POPE   C4A 2470  10.638  13.721   8.333 -0.0704  0.0777  0.1125
  195POPE   C1B 2471  10.165  13.115   9.340  0.0677 -0.1649 -0.0467
  195POPE   C2B 2472  10.267  13.119   8.847  0.1288 -0.2037  0.0585
  195POPE   C3B 2473  10.501  13.081   8.478 -0.2449  0.0161  0.1359
  195POPE   C4B 2474  10.695  13.241   8.240  0.1327 -0.1873 -0.0671
  196POPE   NH3 2475   2.829   8.871  10.679 -0.0395 -0.4075  0.1106
  196POPE   PO4 2476   3.166   9.030  10.412  0.0287 -0.1328  0.0679
  196POPE   GL1 2477   2.859   8.965  10.139 -0.1532 -0.3175  0.4835
  196POPE   GL2 2478   2.605   8.711  10.198  0.3845  0.2166 -0.0943
  196POPE   C1A 2479   2.973   9.225   9.780  0.5767  0.4221  0.0275
  196POPE   D2A 2480   2.968   9.248   9.314  0.1709 -0.0403  0.1187
  196POPE   C3A 2481   3.275   9.356   9.109 -0.1020 -0.0369  0.1338
  196POPE   C4A 2482   3.437   9.331   8.717  0.0052 -0.0252 -0.0273
  196POPE   C1B 2483   2.291   8.490   9.843  0.0055  0.3530  0.0215
  196POPE   C2B 2484   2.263   8.380   9.512  0.1486 -0.0469  0.0718
  196POPE   C3B 2485   2.089   8.322   9.167  0.0162  0.0443  0.0509
  196POPE   C4B 2486   1.777   8.367   8.798 -0.1743 -0.0830 -0.0423
  197POPE   NH3 2487  14.209  14.744  10.100 -0.0440  0.0175  0.3168
  197POPE   PO4 2488  14.393  14.405  10.240  0.2916 -0.0657 -0.0081
  197POPE   GL1 2489  14.585  14.508   9.853 -0.0316  0.1472  0.0593
  197POPE   GL2 2490  14.765  14.312   9.791 -0.1161 -0.0432 -0.1334
  197POPE   C1A 2491  14.469  14.594   9.453  0.0463  0.0198  0.1112
  197POPE   D2A 2492  14.184  14.798   9.143 -0.2815  0.1453  0.0584
  197POPE   C3A 2493  14.111  14.818   8.674  0.1856  0.0111 -0.1274
  197POPE   C4A 2494  13.837  14.944   8.402 -0.1376 -0.0227 -0.0125
  197POPE   C1B 2495  14.973  14.362   9.361 -0.1928 -0.2090 -0.1510
  197POPE   C2B 2496  14.978  14.215   8.971 -0.1650  0.0974 -0.1283
  197POPE   C3B 2497  15.141  14.396   8.593  0.2908 -0.0639 -0.0225
  197POPE   C4B 2498  15.412  14.665   8.502  0.1930 -0.1770 -0.0996
  198YOPE   NH3 2499   9.309  13.328  10.276 -0.0622 -0.2728 -0.0966
  198YOPE   PO4 2500   9.085  13.704  10.339  0.3971 -0.1365 -0.1308
  198YOPE   GL1 2501   9.277  13.659   9.924 -0.0739  0.5111  0.1477
  198YOPE   GL2 2502   9.384  13.302   9.746 -0.1731 -0.1212  0.0095
  198YOPE   C1A 2503   9.145  13.650   9.477  0.2901  0.0071 -0.0407
  198YOPE   D2A 2504   9.241  13.488   9.129 -0.1346  0.0055  0.3315
  198YOPE   C3A 2505   9.320  13.221   8.795 -0.1789  0.0676  0.1408
  198YOPE   C4A 2506   9.382  13.117   8.430 -0.1086  0.0523  0.0871
  198YOPE   C1B 2507   9.719  13.271   9.333  0.2420  0.1256 -0.0676
  198YOPE   C2B 2508   9.764  13.139   8.967  0.0747  0.0142  0.3175
  198YOPE   D3B 2509   9.847  13.026   8.526 -0.1378  0.1296 -0.1292
  198YOPE   C4B 2510   9.858  13.037   8.133 -0.0974  0.2134 -0.1231
  199YOPE   NH3 2511  15.932   4.679  10.980 -0.1940 -0.1210 -0.0911
  199YOPE   PO4 2512  15.565   4.873  10.847 -0.1587  0.2810 -0.0116
  199YOPE   GL1 2513  15.281   5.004  10.491  0.0723 -0.0794 -0.3960
  199YOPE   GL2 2514  15.217   4.646  10.446  0.0622 -0.0645 -0.0419
  199YOPE   C1A 2515  15.474   4.927  10.163 -0.1175 -0.2064 -0.1572
  199YOPE   D2A 2516  15.607   4.767   9.765  0.0512 -0.0779 -0.0410
  199YOPE   C3A 2517  15.500   4.569   9.374  0.0572  0.0926  0.2428
  199YOPE   C4A 2518  15.391   4.483   8.951  0.0301 -0.1147 -0.0561
  199YOPE   C1B 2519  15.265   4.508  10.043 -0.1124  0.0499  0.2469
  199YOPE   C2B 2520  15.402   4.198   9.660 -0.1620 -0.2906  0.1043
  199YOPE   D3B 2521  15.548   4.082   9.216  0.0845  0.2420  0.0488
  199YOPE   C4B 2522  15.588   4.052   8.770 -0.3238 -0.0484  0.1308
  200YOPE   NH3 2523  12.223   0.089  10.159  0.0767 -0.0028  0.2031
  200YOPE   PO4 2524  11.775   0.009  10.252 -0.0472  0.1386  0.1632
  200YOPE   GL1 2525  11.878  -0.054   9.780  0.0083 -0.0713 -0.3455
  200YOPE   GL2 2526  11.851   0.192   9.721 -0.3451  0.3047 -0.1876
  200YOPE   C1A 2527  11.708  -0.203   9.416  0.1850 -0.1064  0.0028
  200YOPE   D2A 2528  11.877  -0.183   8.945 -0.0086  0.0092 -0.4421
  200YOPE   C3A 2529  11.885  -0.085   8.555  0.0113  0.2072 -0.0516
  200YOPE   C4A 2530  11.881  -0.298   8.327 -0.3419 -0.1657  0.0277
  200YOPE   C1B 2531  12.048   0.150   9.305 -0.4808  0.0823 -0.1379
  200YOPE   C2B 2532  12.304   0.130   8.923  0.0303 -0.0303  0.2503
  200YOPE   D3B 2533  12.406   0.091   8.498 -0.1139  0.0604 -0.2035
  200YOPE   C4B 2534  12.375   0.217   8.172 -0.0771  0.0542  0.1371
  201YOPE   NH3 2535  12.810   3.896  10.435  0.2051  0.2040 -0.1450
  201YOPE   PO4 2536  12.707   3.519  10.564 -0.2700  0.0655  0.2666
  201YOPE   GL1 2537  12.890   3.512  10.128  0.0653 -0.3241  0.0360
  201YOPE   GL2 2538  13.174   3.532  10.135 -0.0949  0.1991 -0.0844
  201YOPE   C1A 2539  13.046   3.720   9.736  0.0376  0.0136 -0.3603
  201YOPE   D2A 2540  13.095   3.766   9.396 -0.2353  0.0189  0.0868
  201YOPE   C3A 2541  13.345   4.024   9.128  0.1814  0.0295 -0.1018
  201YOPE   C4A 2542  13.266   4.022   8.617 -0.2038  0.0148 -0.1903
  201YOPE   C1B 2543  13.281   3.276   9.828 -0.0669  0.0151  0.2116
  201YOPE   C2B 2544  13.324   3.277   9.365  0.0417  0.1878  0.1014
  201YOPE   D3B 2545  13.677   3.266   9.078 -0.1045 -0.0181  0.0470
  201YOPE   C4B 2546  14.013   3.371   8.901 -0.0494  0.3676  0.1129
  202YOPE   NH3 2547  10.731  14.405  10.358 -0.3727  0.2585  0.0366
  202YOPE   PO4 2548  10.930  14.859  10.459 -0.0130  0.1718 -0.1582
  202YOPE   GL1 2549  10.987  14.820   9.991 -0.2727 -0.0594 -0.2559
  202YOPE   GL2 2550  10.669  14.597   9.892  0.1576 -0.3285 -0.0006
  202YOPE   C1A 2551  10.974  14.929   9.586 -0.0032 -0.0156  0.1481
  202YOPE   D2A 2552  10.853  14.880   9.181  0.1051  0.0943  0.1146
  202YOPE   C3A 2553  10.567  14.948   8.750 -0.2786 -0.0281 -0.1731
  202YOPE   C4A 2554  10.275  15.031   8.468 -0.0245  0.4495 -0.0030
  202YOPE   C1B 2555  10.783  14.487   9.459  0.1324  0.1057  0.1996
  202YOPE   C2B 2556  10.984  14.167   9.250 -0.3606  0.0423  0.0862
  202YOPE   D3B 2557  10.955  14.068   8.867 -0.1698  0.1588 -0.0395
  202YOPE   C4B 2558  10.961  14.133   8.402 -0.1226 -0.0798  0.1476
  203YOPE   NH3 2559  13.905  14.408  10.368 -0.1942 -0.1104  0.0096
  203YOPE   PO4 2560  13.419  14.396  10.482  0.2695  0.1698  0.1076
  203YOPE   GL1 2561  13.529  14.501  10.040  0.1736 -0.0231 -0.1796
  203YOPE   GL2 2562  13.681  14.761   9.960  0.1618 -0.2518  0.1844
  203YOPE   C1A 2563  13.288  14.459   9.690 -0.1727  0.0926 -0.2079
  203YOPE   D2A 2564  13.112  14.782   9.385  0.0810  0.3178 -0.0413
  203YOPE   C3A 2565  13.097  14.744   8.945 -0.0822 -0.1105 -0.1538
  203YOPE   C4A 2566  13.031  14.921   8.598 -0.0120 -0.2229  0.0650
  203YOPE   C1B 2567  13.816  14.735   9.546  0.2117 -0.2068  0.1741
  203YOPE   C2B 2568  13.608  14.739   9.171 -0.1537 -0.2434 -0.3638
  203YOPE   D3B 2569  13.584  14.707   8.826  0.2520 -0.1432 -0.0828
  203YOPE   C4B 2570  13.285  14.507   8.441 -0.0433 -0.1833  0.0430
  204YOPE   NH3 2571  15.593  15.893  10.322 -0.1313  0.1583  0.1807
  204YOPE   PO4 2572  15.171  15.706  10.327  0.2087  0.0819 -0.1962
  204YOPE   GL1 2573  15.198  15.810   9.917 -0.0628 -0.1215  0.1198
  204YOPE   GL2 2574  15.277  16.056   9.953 -0.3639  0.3469 -0.1778
  204YOPE   C1A 2575  15.416  15.715   9.502  0.0893  0.1892 -0.0347
  204YOPE   D2A 2576  15.462  15.665   9.006  0.0233  0.1342 -0.3075
  204YOPE   C3A 2577  15.572  15.777   8.614 -0.0707  0.0613 -0.1868
  204YOPE   C4A 2578  15.814  15.943   8.269  0.1477  0.3158 -0.1265
  204YOPE   C1B 2579  15.367  16.261   9.596  0.3321 -0.0207  0.0296
  204YOPE   C2B 2580  15.434  16.547   9.290  0.1019 -0.2331  0.0591
  204YOPE   D3B 2581  15.369  16.702   8.956  0.0003 -0.0227 -0.1865
  204YOPE   C4B 2582  15.394  16.778   8.550 -0.0638  0.2588  0.2185
  205YOPE   NH3 2583   4.809  13.495  10.298  0.0928  0.1368 -0.1284
  205YOPE   PO4 2584   4.824  13.750  10.363  0.0763  0.1924 -0.1023
  205YOPE   GL1 2585   4.888  13.905   9.943  0.1116 -0.2740 -0.2352
  205YOPE   GL2 2586   4.952  13.699   9.752 -0.0686  0.0539  0.0537
  205YOPE   C1A 2587   5.339  14.015   9.836 -0.1533 -0.4103  0.0120
  205YOPE   D2A 2588   5.825  13.923   9.771  0.1795  0.1442  0.2084
  205YOPE   C3A 2589   5.806  13.807   9.384 -0.0353  0.1593 -0.4472
  205YOPE   C4A 2590   5.899  13.647   8.982 -0.1563  0.2373  0.1827
  205YOPE   C1B 2591   5.242  13.817   9.380 -0.2254  0.3253 -0.0669
  205YOPE   C2B 2592   5.350  13.738   9.035 -0.2536  0.2171 -0.0352
  205YOPE   D3B 2593   5.359  13.711   8.618 -0.3101 -0.1651 -0.2412
  205YOPE   C4B 2594   5.477  13.640   8.179  0.0633 -0.0270 -0.0167
  206YOPE   NH3 2595   0.579   1.879  10.922  0.1204  0.1491  0.1454
  206YOPE   PO4 2596   0.227   1.543  10.744 -0.1237 -0.0729 -0.0163
  206YOPE   GL1 2597   0.151   1.573  10.313 -0.0490 -0.0732 -0.0995
  206YOPE   GL2 2598   0.271   1.844  10.239 -0.2864 -0.0168  0.2983
  206YOPE   C1A 2599   0.094   1.361   9.970  0.1337 -0.2576  0.0654
  206YOPE   D2A 2600  -0.163   1.135   9.696 -0.2633 -0.1095 -0.1323
  206YOPE   C3A 2601  -0.318   1.477   9.344 -0.2256  0.1900  0.4003
  206YOPE   C4A 2602  -0.539   1.469   8.947 -0.2493 -0.1606  0.1793
  206YOPE   C1B 2603   0.383   1.841   9.764  0.0205  0.2176  0.3414
  206YOPE   C2B 2604   0.546   1.696   9.323 -0.1323 -0.0443 -0.1493
  206YOPE   D3B 2605   0.552   1.726   8.905  0.0629  0.2503 -0.0536
  206YOPE   C4B 2606   0.689   1.454   8.610  0.2038  0.0775 -0.0714
  207YOPE   NH3 2607  10.309  17.857  10.062  0.3058  0.0872  0.1025
  207YOPE   PO4 2608   9.852  18.127  10.058 -0.1121  0.0082  0.0705
  207YOPE   GL1 2609   9.705  18.323   9.732  0.1196  0.3858 -0.0150
  207YOPE   GL2 2610  10.025  18.415   9.674 -0.1131 -0.0398 -0.0925
  207YOPE   C1A 2611   9.729  18.239   9.291  0.0426  0.0978 -0.1619
  207YOPE   D2A 2612   9.721  18.307   8.806 -0.1308  0.0579  0.2094
  207YOPE   C3A 2613   9.433  18.084   8.607 -0.0826 -0.0934  0.0913
  207YOPE   C4A 2614   9.156  17.909   8.330  0.2129 -0.0877 -0.0079
  207YOPE   C1B 2615  10.191  18.745   9.408  0.2828  0.2455  0.0824
  207YOPE   C2B 2616  10.333  18.946   9.059  0.2104 -0.0790  0.3674
  207YOPE   D3B 2617  10.402  18.754   8.659 -0.1737 -0.3601 -0.0362
  207YOPE   C4B 2618  10.548  18.569   8.299 -0.0722 -0.2407  0.0059
  208YOPE   NH3 2619   6.475  17.983  10.349 -0.1184 -0.2094 -0.0750
  208YOPE   PO4 2620   6.746  18.214  10.409 -0.1343  0.1752 -0.1412
  208YOPE   GL1 2621   6.774  18.243   9.946  0.2411 -0.0050 -0.2173
  208YOPE   GL2 2622   7.065  18.412   9.829 -0.1220 -0.2793  0.1495
  208YOPE   C1A 2623   6.641  18.142   9.484  0.1152  0.1106 -0.0933
  208YOPE   D2A 2624   6.639  17.916   9.083  0.2361 -0.0101 -0.0644
  208YOPE   C3A 2625   6.812  18.063   8.666 -0.4546 -0.1147 -0.0879
  208YOPE   C4A 2626   6.818  18.188   8.162 -0.2541  0.1385 -0.1524
  208YOPE   C1B 2627   7.126  18.264   9.393  0.1414 -0.1822  0.1897
  208YOPE   C2B 2628   7.074  18.338   9.006 -0.2676 -0.0154 -0.0174
  208YOPE   D3B 2629   7.221  18.399   8.597  0.1871 -0.0890 -0.0845
  208YOPE   C4B 2630   7.610  18.205   8.339 -0.0588  0.1617 -0.0028
  209YOPE   NH3 2631  13.000  12.479  10.186 -0.2312 -0.1590  0.0836
  209YOPE   PO4 2632  13.296  12.787  10.391  0.0908  0.0238  0.1432
  209YOPE   GL1 2633  13.448  12.848   9.990  0.1479 -0.2531 -0.1420
  209YOPE   GL2 2634  13.309  13.130   9.744 -0.2656  0.2361 -0.1322
  209YOPE   C1A 2635  13.457  12.695   9.615  0.1977  0.1058  0.0042
  209YOPE   D2A 2636  13.546  12.882   9.213  0.0592 -0.0702  0.3400
  209YOPE   C3A 2637  13.681  12.895   8.779  0.2564 -0.2507 -0.1754
  209YOPE   C4A 2638  13.481  12.738   8.404  0.0664 -0.2167 -0.0766
  209YOPE   C1B 2639  13.450  13.314   9.468 -0.0917  0.3983 -0.1821
  209YOPE   C2B 2640  13.699  13.428   9.104 -0.0930 -0.0570  0.2529
  209YOPE   D3B 2641  13.900  13.358   8.713 -0.1177  0.1558 -0.0166
  209YOPE   C4B 2642  13.955  13.114   8.373 -0.1345 -0.1673 -0.1818
  210YOPE   NH3 2643  13.154   5.506  10.953 -0.1309  0.1012  0.0258
  210YOPE   PO4 2644  13.638   5.502  10.893  0.1709 -0.2049  0.0674
  210YOPE   GL1 2645  13.871   5.549  10.500 -0.0563  0.1349  0.2828
  210YOPE   GL2 2646  13.827   5.824  10.267 -0.3222  0.2957  0.0252
  210YOPE   C1A 2647  14.077   5.307  10.238 -0.1121  0.1684 -0.1108
  210YOPE   D2A 2648  13.874   5.100   9.905 -0.1257 -0.1384  0.0145
  210YOPE   C3A 2649  14.022   4.719   9.810 -0.0435 -0.0817  0.1092
  210YOPE   C4A 2650  13.740   4.456  10.010 -0.3516 -0.0144 -0.1116
  210YOPE   C1B 2651  14.027   5.711   9.888 -0.1029  0.0199 -0.5574
  210YOPE   C2B 2652  14.041   5.641   9.481 -0.0712 -0.1167 -0.0394
  210YOPE   D3B 2653  13.832   5.632   9.069  0.0269  0.1248  0.1074
  210YOPE   C4B 2654  13.793   5.747   8.664 -0.0843  0.0385 -0.1028
  211YOPE   NH3 2655   9.841   4.307  10.163 -0.2402 -0.0681  0.1993
  211YOPE   PO4 2656  10.287   4.156  10.226  0.1476 -0.1291 -0.2835
  211YOPE   GL1 2657  10.128   4.106   9.781  0.1115  0.1546 -0.0029
  211YOPE   GL2 2658  10.314   3.993   9.586  0.0425 -0.0073 -0.0811
  211YOPE   C1A 2659   9.779   3.981   9.445 -0.1033 -0.3671  0.0021
  211YOPE   D2A 2660   9.682   3.815   9.020  0.0649  0.0203  0.1003
  211YOPE   C3A 2661   9.903   3.982   8.655 -0.2344 -0.1660  0.1436
  211YOPE   C4A 2662  10.111   4.152   8.263  0.1711  0.0594  0.1361
  211YOPE   C1B 2663  10.262   4.026   9.116  0.2807 -0.3486  0.1498
  211YOPE   C2B 2664  10.424   4.075   8.665  0.1868 -0.0964  0.0149
  211YOPE   D3B 2665  10.639   4.341   8.526 -0.0872 -0.3042  0.2144
  211YOPE   C4B 2666  10.838   4.647   8.315 -0.1408  0.1983  0.1805
  212YOPE   NH3 2667   7.806   7.724  10.374  0.0621  0.0225  0.1270
  212YOPE   PO4 2668   8.204   7.796  10.221  0.0645  0.1915  0.3135
  212YOPE   GL1 2669   8.397   7.814   9.818  0.0269  0.0284  0.0277
  212YOPE   GL2 2670   8.415   7.470   9.798 -0.2641 -0.0855 -0.0301
  212YOPE   C1A 2671   8.726   7.898   9.559 -0.1792  0.1586 -0.2784
  212YOPE   D2A 2672   8.944   7.783   9.159 -0.1981  0.1659 -0.0014
  212YOPE   C3A 2673   8.771   7.788   8.742 -0.4693  0.1082 -0.1822
  212YOPE   C4A 2674   8.551   7.477   8.396 -0.1436 -0.1236 -0.2132
  212YOPE   C1B 2675   8.244   7.819   9.382  0.0327 -0.0707  0.0953
  212YOPE   C2B 2676   8.431   8.046   9.032  0.0469  0.1333 -0.2246
  212YOPE   D3B 2677   8.652   8.240   8.730  0.0844 -0.2367 -0.1005
  212YOPE   C4B 2678   8.745   8.192   8.321  0.0449 -0.1395  0.1863
  213YOPE   NH3 2679  10.731   6.078  10.366  0.2260  0.0232 -0.0089
  213YOPE   PO4 2680  10.947   5.920  10.656 -0.1293 -0.2888  0.3159
  213YOPE   GL1 2681  11.220   5.857  10.363 -0.2330 -0.0054 -0.2168
  213YOPE   GL2 2682  11.380   5.582  10.152 -0.0314  0.3257 -0.0529
  213YOPE   C1A 2683  11.437   6.199  10.189  0.1880 -0.2410 -0.3068
  213YOPE   D2A 2684  11.294   6.552   9.963 -0.0578  0.0386 -0.2172
  213YOPE   C3A 2685  11.233   6.657   9.558  0.0408 -0.1613  0.1705
  213YOPE   C4A 2686  11.204   6.632   9.109 -0.3367 -0.1122  0.1020
  213YOPE   C1B 2687  11.456   5.661   9.646  0.1045  0.1273  0.2372
  213YOPE   C2B 2688  11.787   5.675   9.356 -0.2398  0.0530  0.0484
  213YOPE   D3B 2689  11.939   5.676   8.890 -0.0543  0.0545 -0.0970
  213YOPE   C4B 2690  12.084   5.486   8.515  0.0326  0.3657  0.0930
  214YOPE   NH3 2691   3.857  13.365  10.144  0.0476  0.1283 -0.0072
  214YOPE   PO4 2692   3.692  12.940  10.124 -0.1149 -0.0286  0.1755
  214YOPE   GL1 2693   3.538  13.111   9.829  0.1438  0.1057 -0.4092
  214YOPE   GL2 2694   3.293  13.209   9.983 -0.2120  0.0011  0.0802
  214YOPE   C1A 2695   3.388  12.889   9.488  0.0874  0.0096 -0.0873
  214YOPE   D2A 2696   3.415  12.924   9.045  0.0463  0.1081  0.3161
  214YOPE   C3A 2697   3.346  12.541   8.886  0.0283  0.1891 -0.3243
  214YOPE   C4A 2698   3.327  12.156   8.626  0.0397  0.1481  0.0804
  214YOPE   C1B 2699   3.086  13.304   9.569  0.2181  0.1178 -0.1793
  214YOPE   C2B 2700   3.014  13.316   9.141  0.0106 -0.1119  0.1764
  214YOPE   D3B 2701   3.210  13.349   8.735  0.2434  0.0801  0.3249
  214YOPE   C4B 2702   3.516  13.244   8.484  0.0729 -0.1651 -0.0909
  215YOPE   NH3 2703   0.788  17.336  10.722  0.0262  0.1202 -0.4570
  215YOPE   PO4 2704   0.781  17.769  10.873 -0.3862  0.0125  0.1291
  215YOPE   GL1 2705   0.740  17.837  10.406 -0.3680  0.0207 -0.0427
  215YOPE   GL2 2706   0.667  18.180  10.279  0.2324 -0.1049 -0.0745
  215YOPE   C1A 2707   0.866  17.569  10.082 -0.0518  0.0774 -0.2847
  215YOPE   D2A 2708   0.922  17.374   9.641 -0.0729  0.4461  0.0456
  215YOPE   C3A 2709   1.199  17.326   9.133 -0.2228 -0.0914  0.0168
  215YOPE   C4A 2710   1.301  17.339   8.716  0.0383  0.1802  0.0864
  215YOPE   C1B 2711   0.317  18.051  10.140 -0.0085  0.1975 -0.0533
  215YOPE   C2B 2712   0.246  18.042   9.641  0.0530 -0.1751 -0.2835
  215YOPE   D3B 2713   0.265  17.887   9.271 -0.1112 -0.0144 -0.0456
  215YOPE   C4B 2714   0.541  17.957   8.894  0.0883 -0.1593 -0.0749
  216YOPE   NH3 2715  12.565   8.404  10.740  0.0932  0.2393  0.1457
  216YOPE   PO4 2716  12.672   8.691  10.508 -0.1924 -0.0758 -0.2298
  216YOPE   GL1 2717  12.664   8.438  10.128  0.0338  0.1135  0.1502
  216YOPE   GL2 2718  12.611   8.135  10.178 -0.0963  0.0060 -0.2371
  216YOPE   C1A 2719  12.681   8.203   9.710  0.1300 -0.1924  0.3979
  216YOPE   D2A 2720  12.298   8.042   9.395  0.3395 -0.0018  0.0080
  216YOPE   C3A 2721  12.234   7.872   8.975  0.1220  0.0966  0.0946
  216YOPE   C4A 2722  12.479   7.916   8.667 -0.2682  0.2196  0.0816
  216YOPE   C1B 2723  12.485   7.810   9.907 -0.0330 -0.2718 -0.1998
  216YOPE   C2B 2724  12.655   7.687   9.531 -0.4551 -0.0274  0.1109
  216YOPE   D3B 2725  12.791   7.796   9.038 -0.1171 -0.1980  0.0572
  216YOPE   C4B 2726  12.882   7.661   8.541 -0.0251  0.0708  0.0869
  217YOPE   NH3 2727  14.023   8.294  10.584  0.1907  0.1687  0.3600
  217YOPE   PO4 2728  13.644   8.544  10.665  0.0226 -0.1866  0.1620
  217YOPE   GL1 2729  13.566   8.231  10.391 -0.0506  0.0107 -0.1587
  217YOPE   GL2 2730  13.744   7.863  10.561 -0.1347  0.0274 -0.2460
  217YOPE   C1A 2731  13.653   8.275   9.900  0.2657 -0.2496  0.1347
  217YOPE   D2A 2732  13.543   8.259   9.493  0.0642  0.3479  0.1229
  217YOPE   C3A 2733  13.594   8.200   9.097  0.1159  0.1185 -0.1635
  217YOPE   C4A 2734  13.899   8.269   8.647  0.1834  0.2729 -0.3498
  217YOPE   C1B 2735  13.771   7.504  10.158 -0.1851  0.1201  0.0855
  217YOPE   C2B 2736  13.812   7.296   9.705  0.1932  0.1005 -0.0027
  217YOPE   D3B 2737  13.651   7.232   9.294 -0.1465 -0.0732  0.1033
  217YOPE   C4B 2738  13.491   7.394   8.919 -0.0966 -0.0069  0.1515
  218YOPE   NH3 2739   9.445  14.065  10.064 -0.1939 -0.0030 -0.1086
  218YOPE   PO4 2740   9.699  14.332  10.180  0.3007  0.0737 -0.2372
  218YOPE   GL1 2741   9.878  14.219   9.868  0.0583  0.4050 -0.0966
  218YOPE   GL2 2742   9.642  14.452   9.681 -0.1126 -0.1204 -0.1065
  218YOPE   C1A 2743  10.321  14.293   9.639  0.0887  0.1573  0.0525
  218YOPE   D2A 2744  10.441  14.160   9.287  0.0604  0.2500 -0.0085
  218YOPE   C3A 2745  10.636  14.399   8.983 -0.0668  0.1311 -0.0364
  218YOPE   C4A 2746  10.864  14.619   8.616  0.1598 -0.4677 -0.1612
  218YOPE   C1B 2747   9.487  14.270   9.226 -0.0109  0.3111 -0.0090
  218YOPE   C2B 2748   9.434  14.150   8.716  0.1047  0.2623  0.3423
  218YOPE   D3B 2749   9.416  13.972   8.316 -0.2986 -0.0499  0.3012
  218YOPE   C4B 2750   9.645  13.896   7.951  0.1353 -0.2480 -0.5413
  219YOPE   NH3 2751   0.252   7.658  11.303 -0.0668 -0.3245 -0.3391
  219YOPE   PO4 2752  -0.158   7.655  11.220  0.0996 -0.0952 -0.0876
  219YOPE   GL1 2753  -0.198   7.375  10.861 -0.0055 -0.1012 -0.1234
  219YOPE   GL2 2754  -0.480   7.595  10.669 -0.1061  0.1358 -0.0718
  219YOPE   C1A 2755  -0.067   7.230  10.537  0.0816  0.1786  0.7297
  219YOPE   D2A 2756   0.271   6.989  10.405  0.1148  0.1928  0.2489
  219YOPE   C3A 2757   0.246   6.654  10.158  0.0894  0.1572 -0.2050
  219YOPE   C4A 2758  -0.083   6.606  10.021  0.2915  0.4721  0.3304
  219YOPE   C1B 2759  -0.320   7.509  10.261  0.2168 -0.0749  0.0049
  219YOPE   C2B 2760  -0.196   7.207   9.949 -0.0160  0.0114  0.1426
  219YOPE   D3B 2761  -0.075   7.109   9.544  0.0488  0.1623  0.0763
  219YOPE   C4B 2762  -0.056   7.473   9.224 -0.0694 -0.1881 -0.1770
  220YOPE   NH3 2763   6.874  11.017  10.769  0.1813 -0.1852 -0.1556
  220YOPE   PO4 2764   6.433  10.912  10.687  0.4382 -0.2363 -0.0749
  220YOPE   GL1 2765   6.593  10.965  10.223  0.0680 -0.0897 -0.2820
  220YOPE   GL2 2766   6.906  11.103  10.167  0.3160  0.1269  0.2094
  220YOPE   C1A 2767   6.317  10.841   9.795  0.1484 -0.0776 -0.0178
  220YOPE   D2A 2768   6.127  10.739   9.343 -0.1178  0.1086 -0.0764
  220YOPE   C3A 2769   5.978  10.401   9.098  0.3294 -0.0441  0.1308
  220YOPE   C4A 2770   5.749  10.257   8.773  0.2680  0.1706  0.4958
  220YOPE   C1B 2771   6.783  10.689   9.781 -0.1274 -0.2234  0.1681
  220YOPE   C2B 2772   6.619  10.649   9.348  0.0349 -0.2020 -0.0203
  220YOPE   D3B 2773   6.416  10.650   8.891  0.1512 -0.1130  0.1265
  220YOPE   C4B 2774   6.697  10.649   8.498 -0.1304 -0.1281 -0.0267
  221YOPE   NH3 2775   4.804   5.111  10.258  0.0528  0.2228 -0.2850
  221YOPE   PO4 2776   5.102   4.879  10.063  0.0433 -0.2760  0.1975
  221YOPE   GL1 2777   4.738   4.760   9.826  0.1482  0.3360 -0.0200
  221YOPE   GL2 2778   4.784   5.032   9.735  0.0988  0.3008 -0.1040
  221YOPE   C1A 2779   4.530   4.682   9.489  0.0649 -0.4489  0.2392
  221YOPE   D2A 2780   4.643   4.677   9.051  0.1993  0.0357  0.1087
  221YOPE   C3A 2781   4.364   4.826   8.701 -0.0069 -0.1980  0.0993
  221YOPE   C4A 2782   4.054   5.165   8.559 -0.3726 -0.0626 -0.1647
  221YOPE   C1B 2783   4.964   4.927   9.375 -0.1441  0.1260 -0.0211
  221YOPE   C2B 2784   5.381   4.883   9.130  0.0421 -0.2327 -0.1534
  221YOPE   D3B 2785   5.620   4.594   8.991  0.0887  0.3103 -0.1017
  221YOPE   C4B 2786   5.598   4.229   8.599 -0.0773  0.2773 -0.2320
  222YOPE   NH3 2787   8.732   4.138   9.836  0.0521 -0.0823 -0.0089
  222YOPE   PO4 2788   8.899   4.559  10.007  0.1579 -0.0448  0.3477
  222YOPE   GL1 2789   8.940   4.515   9.503 -0.1975 -0.1156  0.1380
  222YOPE   GL2 2790   8.737   4.364   9.401 -0.1634  0.2043  0.0662
  222YOPE   C1A 2791   8.960   4.714   9.045  0.0550  0.1099  0.2341
  222YOPE   D2A 2792   9.275   4.765   8.726  0.2004  0.0003  0.1798
  222YOPE   C3A 2793   9.167   4.519   8.230 -0.1129 -0.0382  0.3571
  222YOPE   C4A 2794   8.868   4.584   8.068 -0.1172 -0.1502 -0.3134
  222YOPE   C1B 2795   8.631   4.324   9.006  0.4801 -0.2997 -0.1310
  222YOPE   C2B 2796   8.824   4.325   8.650  0.2425  0.0135 -0.0194
  222YOPE   D3B 2797   8.953   4.056   8.283 -0.0004  0.0428 -0.0517
  222YOPE   C4B 2798   9.276   3.782   8.079 -0.0364  0.2477  0.1772
  223YOPE   NH3 2799  16.791   6.873  10.825  0.2404 -0.0685 -0.2087
  223YOPE   PO4 2800  16.454   7.160  10.997 -0.2697 -0.0639  0.0306
  223YOPE   GL1 2801  16.402   7.030  10.525  0.1576 -0.0171 -0.3670
  223YOPE   GL2 2802  16.570   6.680  10.431 -0.1743  0.0281 -0.1896
  223YOPE   C1A 2803  16.269   7.110  10.064 -0.2856  0.2011  0.2899
  223YOPE   D2A 2804  16.451   7.093   9.673 -0.0282  0.1378 -0.0542
  223YOPE   C3A 2805  16.699   7.325   9.418  0.0709  0.1523 -0.1272
  223YOPE   C4A 2806  16.949   7.249   9.232 -0.2170 -0.1018 -0.0053
  223YOPE   C1B 2807  16.668   6.794  10.025 -0.0809 -0.1527  0.2702
  223YOPE   C2B 2808  16.693   6.716   9.500 -0.1213  0.2581 -0.1972
  223YOPE   D3B 2809  17.044   6.655   9.089 -0.1133  0.2512  0.3069
  223YOPE   C4B 2810  17.087   6.301   8.876  0.0375 -0.0742 -0.1199
  224YOPE   NH3 2811  17.179  15.789  10.414 -0.0480  0.0431 -0.0213
  224YOPE   PO4 2812  16.941  15.446  10.629 -0.0080 -0.0759 -0.2140
  224YOPE   GL1 2813  17.036  15.392  10.177 -0.0823  0.2701 -0.0176
  224YOPE   GL2 2814  16.692  15.208  10.119 -0.0420 -0.2523 -0.3750
  224YOPE   C1A 2815  16.984  15.333   9.702 -0.0656  0.3451  0.2025
  224YOPE   D2A 2816  16.884  15.238   9.308 -0.1204  0.3213  0.2720
  224YOPE   C3A 2817  17.007  15.359   8.969 -0.2061 -0.0204  0.0436
  224YOPE   C4A 2818  16.900  15.606   8.617  0.0869 -0.0757 -0.0627
  224YOPE   C1B 2819  16.592  14.946   9.788 -0.2145  0.2331  0.1979
  224YOPE   C2B 2820  16.494  14.878   9.263 -0.4200 -0.0136  0.0844
  224YOPE   D3B 2821  16.606  15.084   8.802 -0.2482  0.4366 -0.1992
  224YOPE   C4B 2822  16.836  15.181   8.424  0.2617 -0.1250 -0.0242
  225YOPE   NH3 2823   3.331   0.939  10.868  0.3523  0.1826 -0.1136
  225YOPE   PO4 2824   3.217   0.874  10.479 -0.1802  0.2291 -0.0739
  225YOPE   GL1 2825   3.245   0.700  10.126 -0.3423  0.0043 -0.0577
  225YOPE   GL2 2826   3.108   0.480  10.136 -0.0949  0.2830 -0.2150
  225YOPE   C1A 2827   3.123   0.821   9.721  0.1345  0.0395  0.4487
  225YOPE   D2A 2828   3.213   0.896   9.351 -0.0016  0.0319  0.0536
  225YOPE   C3A 2829   3.145   1.208   9.254 -0.1433 -0.1391  0.3617
  225YOPE   C4A 2830   3.004   1.502   9.375 -0.1324  0.0783 -0.2989
  225YOPE   C1B 2831   2.818   0.409   9.829 -0.0995  0.0117  0.1626
  225YOPE   C2B 2832   2.750   0.547   9.421 -0.2257 -0.2010 -0.0695
  225YOPE   D3B 2833   2.952   0.558   8.982 -0.1000  0.4488  0.1259
  225YOPE   C4B 2834   3.311   0.769   8.672 -0.1388 -0.0137  0.1258
  226YOPE   NH3 2835   2.584  10.528  10.809  0.2126 -0.2278 -0.2803
  226YOPE   PO4 2836   2.358  10.454  10.445 -0.1005  0.1728  0.0263
  226YOPE   GL1 2837   2.560  10.290  10.138  0.0089 -0.0764 -0.1235
  226YOPE   GL2 2838   2.423  10.549   9.851 -0.0596 -0.2466  0.0655
  226YOPE   C1A 2839   2.860  10.358   9.727 -0.1409 -0.2942  0.1752
  226YOPE   D2A 2840   2.892  10.214   9.318  0.1525  0.0460 -0.3380
  226YOPE   C3A 2841   2.867  10.226   8.928  0.1838 -0.2355  0.1239
  226YOPE   C4A 2842   2.841   9.991   8.560  0.2749 -0.0829  0.3725
  226YOPE   C1B 2843   2.528  10.651   9.461  0.4072 -0.0927 -0.1237
  226YOPE   C2B 2844   2.521  10.656   9.063 -0.1710  0.1292 -0.0485
  226YOPE   D3B 2845   2.830  10.712   8.777  0.0497  0.1578  0.0771
  226YOPE   C4B 2846   2.864  10.945   8.409  0.0318  0.0081 -0.0400
  227YOPE   NH3 2847  10.202  11.755  10.514  0.1869 -0.3572  0.0669
  227YOPE   PO4 2848   9.966  12.043  10.355  0.1796 -0.0423  0.0529
  227YOPE   GL1 2849  10.082  12.049   9.918  0.0799 -0.0095  0.1686
  227YOPE   GL2 2850  10.215  12.244   9.732 -0.0216 -0.0573 -0.1737
  227YOPE   C1A 2851  10.015  11.767   9.520 -0.0878  0.0641  0.2709
  227YOPE   D2A 2852  10.152  11.708   9.070  0.2721 -0.1709 -0.3034
  227YOPE   C3A 2853   9.972  11.756   8.701  0.3780  0.2233  0.0530
  227YOPE   C4A 2854   9.712  11.660   8.372 -0.3535  0.1823 -0.1106
  227YOPE   C1B 2855  10.344  12.219   9.287 -0.0160  0.3942  0.1464
  227YOPE   C2B 2856  10.383  12.132   8.812  0.0426 -0.0315  0.0188
  227YOPE   D3B 2857  10.255  12.128   8.379  0.0733 -0.0187 -0.1820
  227YOPE   C4B 2858   9.877  12.212   8.114 -0.2715 -0.0290 -0.0021
  228YOPE   NH3 2859   2.771   8.012  10.634  0.1474  0.2526  0.2080
  228YOPE   PO4 2860   2.619   8.428  10.698  0.0012 -0.0084  0.1408
  228YOPE   GL1 2861   2.344   8.077  10.391 -0.1097 -0.0394  0.0979
  228YOPE   GL2 2862   2.309   7.767  10.296  0.1129 -0.1844 -0.0557
  228YOPE   C1A 2863   2.364   8.020   9.912  0.1268  0.1243  0.4269
  228YOPE   D2A 2864   2.334   7.910   9.472 -0.2544 -0.1150 -0.0683
  228YOPE   C3A 2865   2.546   7.645   9.110  0.0591 -0.3039 -0.0193
  228YOPE   C4A 2866   2.389   7.367   8.760  0.0055  0.0725  0.0570
  228YOPE   C1B 2867   2.496   7.531   9.994  0.3981  0.1347 -0.3390
  228YOPE   C2B 2868   2.445   7.328   9.509  0.2786  0.1127  0.2359
  228YOPE   D3B 2869   2.192   7.189   9.174 -0.0055  0.0023  0.3396
  228YOPE   C4B 2870   1.777   6.837   9.193 -0.2479 -0.1798  0.0015
  229YOPE   NH3 2871   7.357  17.025  10.370 -0.0394  0.0824  0.0039
  229YOPE   PO4 2872   7.761  17.048  10.457  0.1448 -0.2822 -0.0589
  229YOPE   GL1 2873   7.697  17.210  10.054  0.0077 -0.2171  0.2842
  229YOPE   GL2 2874   7.418  17.493  10.015 -0.2332  0.0417 -0.2421
  229YOPE   C1A 2875   7.666  17.343   9.572  0.0853 -0.0740  0.3700
  229YOPE   D2A 2876   7.660  17.536   9.130  0.0382  0.0328 -0.4245
  229YOPE   C3A 2877   7.419  17.380   8.754  0.4527  0.1136 -0.1683
  229YOPE   C4A 2878   7.261  17.399   8.380 -0.2810 -0.1406  0.2682
  229YOPE   C1B 2879   7.210  17.291   9.650 -0.0485  0.0540  0.0280
  229YOPE   C2B 2880   7.302  17.205   9.240  0.2203 -0.0484 -0.1134
  229YOPE   D3B 2881   7.056  16.985   8.900 -0.0365 -0.1308  0.2375
  229YOPE   C4B 2882   7.155  16.927   8.450  0.1072  0.0299  0.2640
  230YOPE   NH3 2883  15.178   9.706  10.545  0.0339  0.0853  0.2603
  230YOPE   PO4 2884  14.751   9.534  10.499 -0.1706 -0.2704  0.0740
  230YOPE   GL1 2885  14.777   9.748  10.182 -0.2146 -0.2043  0.0966
  230YOPE   GL2 2886  14.957  10.078  10.186 -0.0383  0.1417 -0.0867
  230YOPE   C1A 2887  14.574   9.852   9.862 -0.2190  0.0919 -0.0537
  230YOPE   D2A 2888  14.439  10.028   9.450 -0.0848  0.1088  0.3392
  230YOPE   C3A 2889  14.320   9.751   9.063  0.1056  0.0522 -0.2966
  230YOPE   C4A 2890  14.153   9.490   8.736 -0.1663 -0.1146 -0.0687
  230YOPE   C1B 2891  15.036  10.076   9.760  0.0552  0.1918  0.0102
  230YOPE   C2B 2892  15.193  10.169   9.375  0.1418 -0.1904 -0.1468
  230YOPE   D3B 2893  15.323  10.233   9.101  0.1423  0.2772  0.1275
  230YOPE   C4B 2894  15.445  10.417   8.855  0.1199  0.0838 -0.0926
  231YOPE   NH3 2895   8.830   7.587  10.838  0.0618  0.1763  0.0696
  231YOPE   PO4 2896   9.116   7.774  10.451 -0.0997 -0.0740  0.1129
  231YOPE   GL1 2897   8.996   7.864   9.971 -0.0397  0.4079  0.0488
  231YOPE   GL2 2898   9.077   7.346   9.946 -0.1789 -0.2098 -0.0346
  231YOPE   C1A 2899   9.282   7.865   9.510  0.1479 -0.1517 -0.0359
  231YOPE   D2A 2900   9.458   8.063   9.121 -0.1541  0.1407 -0.0979
  231YOPE   C3A 2901   9.808   7.938   8.852 -0.1668 -0.0184 -0.3040
  231YOPE   C4A 2902   9.788   7.477   8.677 -0.1143  0.1476 -0.0082
  231YOPE   C1B 2903   8.898   7.425   9.585  0.1115 -0.0707  0.1253
  231YOPE   C2B 2904   8.565   7.406   9.258 -0.1643  0.2260  0.2474
  231YOPE   D3B 2905   8.342   7.577   8.878 -0.0912 -0.1819  0.2396
  231YOPE   C4B 2906   8.049   7.476   8.568 -0.1695 -0.1570 -0.2080
  232YOPE   NH3 2907   7.648   3.541  10.187 -0.0273 -0.0108  0.1410
  232YOPE   PO4 2908   7.405   3.189  10.047  0.0269  0.3147 -0.1588
  232YOPE   GL1 2909   7.332   3.065   9.671 -0.1346  0.2895  0.2384
  232YOPE   GL2 2910   6.973   3.111   9.580  0.1218 -0.0329 -0.0313
  232YOPE   C1A 2911   7.404   2.874   9.292 -0.2232 -0.1977  0.2090
  232YOPE   D2A 2912   7.576   2.669   9.052  0.1588 -0.1430  0.1961
  232YOPE   C3A 2913   7.313   2.669   8.718  0.3490 -0.0725 -0.0712
  232YOPE   C4A 2914   7.409   2.759   8.289 -0.0689 -0.2396  0.0164
  232YOPE   C1B 2915   6.874   2.973   9.147  0.0014 -0.0124  0.3079
  232YOPE   C2B 2916   6.816   2.919   8.725  0.1039  0.0404 -0.2989
  232YOPE   D3B 2917   6.940   3.073   8.389  0.1260 -0.0002 -0.0818
  232YOPE   C4B 2918   7.061   3.061   7.862  0.3217 -0.0860 -0.0099
  233YOPE   NH3 2919   0.366  10.713  10.795  0.2737  0.1529  0.2479
  233YOPE   PO4 2920   0.732  10.963  10.570  0.1584  0.1914  0.0678
  233YOPE   GL1 2921   0.641  10.864  10.158 -0.0270 -0.0692 -0.1206
  233YOPE   GL2 2922   0.812  11.055   9.882  0.0451 -0.0799  0.0854
  233YOPE   C1A 2923   0.392  10.675   9.757  0.0107 -0.1349 -0.4108
  233YOPE   D2A 2924   0.395  10.665   9.411 -0.2100 -0.0385 -0.2540
  233YOPE   C3A 2925   0.362  10.433   9.137 -0.1637  0.0662  0.2495
  233YOPE   C4A 2926   0.148  10.259   8.761  0.3459  0.0738  0.1028
  233YOPE   C1B 2927   0.851  10.730   9.607  0.1156 -0.2173  0.0832
  233YOPE   C2B 2928   0.835  10.592   9.153  0.2367  0.1290  0.3475
  233YOPE   D3B 2929   0.783  10.701   8.707  0.2049  0.0900  0.2346
  233YOPE   C4B 2930   0.603  10.982   8.380 -0.1968 -0.0944 -0.0263
  234YOPE   NH3 2931  16.495  15.524  10.400 -0.3044 -0.2684  0.0302
  234YOPE   PO4 2932  16.673  15.872  10.434  0.0739 -0.0168 -0.0586
  234YOPE   GL1 2933  16.467  16.221  10.245 -0.0064 -0.1283  0.5036
  234YOPE   GL2 2934  16.337  15.941  10.071  0.0368 -0.1969  0.0380
  234YOPE   C1A 2935  16.638  16.263   9.863  0.0372 -0.1906 -0.3184
  234YOPE   D2A 2936  16.624  16.594   9.549  0.1607  0.3005  0.0705
  234YOPE   C3A 2937  16.509  16.424   9.068  0.3108 -0.4132  0.0683
  234YOPE   C4A 2938  16.583  16.521   8.621 -0.3617  0.0644  0.0778
  234YOPE   C1B 2939  16.291  15.943   9.573 -0.0483 -0.1235  0.1358
  234YOPE   C2B 2940  16.194  16.046   9.120  0.2157  0.0762  0.0295
  234YOPE   D3B 2941  16.124  16.232   8.719 -0.1745  0.1667 -0.2048
  234YOPE   C4B 2942  15.945  16.496   8.357  0.2936 -0.0137  0.0742
  235YOPE   NH3 2943   8.635   5.168  10.101  0.0249  0.0944  0.1892
  235YOPE   PO4 2944   8.238   5.087   9.898  0.1005  0.1647  0.0781
  235YOPE   GL1 2945   8.126   4.978   9.455  0.2092  0.0457 -0.0883
  235YOPE   GL2 2946   7.859   5.143   9.436 -0.0060  0.2868  0.4159
  235YOPE   C1A 2947   8.405   5.219   9.166  0.0949 -0.1518  0.4522
  235YOPE   D2A 2948   8.365   5.219   8.669  0.0392 -0.0032 -0.1078
  235YOPE   C3A 2949   8.641   5.591   8.407  0.0977  0.1633 -0.1687
  235YOPE   C4A 2950   8.959   5.835   8.096 -0.2434  0.1444 -0.0091
  235YOPE   C1B 2951   7.903   5.285   9.033 -0.1571 -0.0534  0.1107
  235YOPE   C2B 2952   8.013   5.568   8.755  0.0890 -0.0100 -0.5085
  235YOPE   D3B 2953   8.083   5.752   8.363  0.2084 -0.3545 -0.0109
  235YOPE   C4B 2954   8.026   5.994   8.026  0.0877  0.0677  0.2721
  236YOPE   NH3 2955   8.564  13.775  10.326 -0.0886 -0.1129 -0.5030
  236YOPE   PO4 2956   8.584  13.379  10.351 -0.1698  0.1454  0.1088
  236YOPE   GL1 2957   8.353  13.448   9.941 -0.3786 -0.0070  0.0450
  236YOPE   GL2 2958   8.148  13.308   9.880 -0.0109 -0.1853  0.0734
  236YOPE   C1A 2959   8.626  13.387   9.505 -0.2003 -0.3006  0.0705
  236YOPE   D2A 2960   8.652  13.428   9.074 -0.0438 -0.2677 -0.3124
  236YOPE   C3A 2961   8.558  13.572   8.685  0.2281  0.0156 -0.0625
  236YOPE   C4A 2962   8.566  13.629   8.250  0.2500 -0.5864  0.2837
  236YOPE   C1B 2963   8.164  13.392   9.387  0.1898  0.2982  0.0265
  236YOPE   C2B 2964   8.164  13.497   8.987 -0.0465 -0.2165 -0.2039
  236YOPE   D3B 2965   8.111  13.468   8.533 -0.0580  0.1447 -0.0045
  236YOPE   C4B 2966   8.116  13.745   8.079 -0.0715 -0.1822  0.0519
  237YOPE   NH3 2967  11.205   9.854  10.005 -0.0494 -0.2720 -0.0842
  237YOPE   PO4 2968  11.179  10.333  10.141  0.0411  0.0498 -0.0897
  237YOPE   GL1 2969  11.059  10.370   9.784 -0.1621  0.2528  0.2154
  237YOPE   GL2 2970  11.109  10.113   9.572  0.2288 -0.0921  0.0773
  237YOPE   C1A 2971  10.902  10.668   9.508  0.1763 -0.1777  0.1263
  237YOPE   D2A 2972  10.942  10.736   9.014  0.0068  0.1891 -0.2492
  237YOPE   C3A 2973  10.725  10.622   8.580  0.0678 -0.1641  0.0821
  237YOPE   C4A 2974  10.322  10.910   8.420  0.3178 -0.3081 -0.0961
  237YOPE   C1B 2975  10.970  10.258   9.144 -0.0378  0.3126  0.4032
  237YOPE   C2B 2976  10.916  10.192   8.687 -0.0356  0.1489 -0.0313
  237YOPE   D3B 2977  10.866   9.689   8.524 -0.3466 -0.1191 -0.2553
  237YOPE   C4B 2978  10.581   9.501   8.326 -0.1641 -0.1175 -0.0304
  238YOPE   NH3 2979  12.236  11.017  10.154  0.2211  0.1272  0.2897
  238YOPE   PO4 2980  12.564  10.760  10.078 -0.0238  0.0955  0.1070
  238YOPE   GL1 2981  12.119  10.603   9.901 -0.2415 -0.1450 -0.0264
  238YOPE   GL2 2982  11.902  10.787   9.680  0.1164 -0.0005  0.0674
  238YOPE   C1A 2983  12.054  10.274   9.645 -0.1801 -0.0023 -0.2176
  238YOPE   D2A 2984  12.202   9.941   9.331  0.0828  0.1047 -0.0056
  238YOPE   C3A 2985  12.324   9.969   8.858  0.1769  0.2726 -0.1133
  238YOPE   C4A 2986  12.268   9.679   8.426  0.1928 -0.0142  0.2569
  238YOPE   C1B 2987  11.903  10.684   9.342 -0.1849  0.0199  0.2617
  238YOPE   C2B 2988  12.042  10.431   9.145  0.1359  0.2225  0.0947
  238YOPE   D3B 2989  12.074  10.375   8.766 -0.0338 -0.0848 -0.4661
  238YOPE   C4B 2990  12.409  10.415   8.490 -0.0552 -0.3605 -0.1928
  239YOPE   NH3 2991  15.098   7.121  10.871 -0.0619  0.0153 -0.1607
  239YOPE   PO4 2992  14.764   7.081  10.797  0.0552  0.0626 -0.0666
  239YOPE   GL1 2993  14.491   7.201  10.616 -0.0432  0.0567 -0.2403
  239YOPE   GL2 2994  14.367   6.954  10.440  0.0456  0.2640  0.1887
  239YOPE   C1A 2995  14.560   7.447  10.173 -0.2514 -0.0525 -0.1021
  239YOPE   D2A 2996  14.296   7.484   9.760  0.1374  0.0810  0.0871
  239YOPE   C3A 2997  14.339   7.785   9.435  0.0783  0.2869 -0.2082
  239YOPE   C4A 2998  14.648   7.643   9.284  0.2434 -0.0546 -0.2682
  239YOPE   C1B 2999  14.179   7.089  10.022  0.2496 -0.0062 -0.3291
  239YOPE   C2B 3000  14.124   6.937   9.617 -0.0292  0.2041 -0.1668
  239YOPE   D3B 3001  14.140   7.278   9.331 -0.1449  0.1621 -0.0475
  239YOPE   C4B 3002  14.071   7.319   8.972 -0.1786  0.1078 -0.4667
  240YOPE   NH3 3003   8.461   4.634   9.727  0.0745 -0.1731  0.0338
  240YOPE   PO4 3004   8.776   4.954   9.668 -0.0643  0.0813 -0.1594
  240YOPE   GL1 3005   8.901   5.150   9.269 -0.0831  0.2136  0.2475
  240YOPE   GL2 3006   8.893   5.487   9.325  0.0051 -0.1773  0.0246
  240YOPE   C1A 3007   8.815   5.168   8.855 -0.0291  0.0624  0.0391
  240YOPE   D2A 3008   8.869   4.989   8.425  0.0772  0.2575 -0.1304
  240YOPE   C3A 3009   8.594   5.104   8.169  0.1242 -0.1476 -0.2911
  240YOPE   C4A 3010   8.175   5.244   8.199 -0.2005 -0.2247 -0.0589
  240YOPE   C1B 3011   9.050   5.605   9.015  0.0009 -0.0646  0.0281
  240YOPE   C2B 3012   9.080   5.469   8.577 -0.1848 -0.0360  0.1984
  240YOPE   D3B 3013   9.074   5.369   8.111  0.0948 -0.1070  0.0933
  240YOPE   C4B 3014   9.210   5.498   7.788  0.4452  0.1166  0.2163
  241YOPE   NH3 3015  15.161   1.931  10.688  0.1347 -0.0959 -0.2049
  241YOPE   PO4 3016  15.059   2.326  10.684 -0.0367  0.0277 -0.2612
  241YOPE   GL1 3017  15.159   2.609  10.401  0.1214 -0.0834 -0.2249
  241YOPE   GL2 3018  15.604   2.422  10.406  0.1169  0.1683 -0.2911
  241YOPE   C1A 3019  15.193   2.493   9.912 -0.1122 -0.0189 -0.0194
  241YOPE   D2A 3020  15.221   2.664   9.543 -0.0420  0.0366 -0.3095
  241YOPE   C3A 3021  15.156   2.709   9.124  0.1265 -0.0126  0.2529
  241YOPE   C4A 3022  15.133   2.509   8.868 -0.5642 -0.0369 -0.0518
  241YOPE   C1B 3023  15.658   2.270  10.027  0.2313  0.2083  0.1273
  241YOPE   C2B 3024  15.550   2.292   9.612  0.0553 -0.1808  0.1574
  241YOPE   D3B 3025  15.407   2.314   9.276 -0.2656  0.1183 -0.0378
  241YOPE   C4B 3026  15.626   2.389   8.900 -0.0342  0.0029 -0.1975
  242YOPE   NH3 3027   9.576  14.856  10.039 -0.0446  0.0698  0.0758
  242YOPE   PO4 3028   9.149  15.001  10.083  0.1604  0.0870  0.2598
  242YOPE   GL1 3029   8.927  14.788   9.710  0.1053  0.3180 -0.0456
  242YOPE   GL2 3030   9.208  14.796   9.586  0.0197 -0.0169  0.2982
  242YOPE   C1A 3031   8.714  14.596   9.289  0.2515  0.0344 -0.0784
  242YOPE   D2A 3032   8.640  14.458   8.933 -0.1534 -0.1105 -0.0560
  242YOPE   C3A 3033   8.275  14.385   8.820 -0.0190  0.0627 -0.0094
  242YOPE   C4A 3034   7.827  14.545   8.780  0.3524 -0.0773 -0.2105
  242YOPE   C1B 3035   9.198  14.682   9.137  0.0359 -0.1789 -0.0512
  242YOPE   C2B 3036   9.074  14.565   8.755 -0.0576  0.1890 -0.1066
  242YOPE   D3B 3037   9.062  14.288   8.412  0.0113  0.0141  0.1037
  242YOPE   C4B 3038   8.923  14.048   8.174 -0.1624 -0.1484 -0.0005
  243YOPE   NH3 3039  11.081   7.030  10.079  0.1049 -0.4087  0.2057
  243YOPE   PO4 3040  11.533   7.153  10.202  0.1131  0.3678 -0.2458
  243YOPE   GL1 3041  11.605   7.395   9.903  0.0084  0.0218 -0.1134
  243YOPE   GL2 3042  11.499   7.076   9.708 -0.1841  0.1143 -0.1729
  243YOPE   C1A 3043  11.714   7.443   9.490 -0.0210 -0.2262 -0.0424
  243YOPE   D2A 3044  11.935   7.447   9.082  0.2447  0.1268 -0.3532
  243YOPE   C3A 3045  11.666   7.333   8.776 -0.0648 -0.3444 -0.1273
  243YOPE   C4A 3046  11.607   7.370   8.383  0.1277 -0.0164 -0.2054
  243YOPE   C1B 3047  11.537   7.066   9.227  0.0538 -0.4513  0.1517
  243YOPE   C2B 3048  11.616   6.823   8.927  0.1074  0.0730  0.0796
  243YOPE   D3B 3049  11.608   6.909   8.360 -0.0162 -0.0946 -0.0778
  243YOPE   C4B 3050  11.507   6.743   7.975  0.1942  0.1904 -0.2023
  244YOPE   NH3 3051   4.139   9.020  10.584  0.0065 -0.0237 -0.1286
  244YOPE   PO4 3052   4.458   8.699  10.508  0.0014 -0.0498  0.1867
  244YOPE   GL1 3053   4.522   8.645  10.049  0.0121 -0.0636 -0.2098
  244YOPE   GL2 3054   4.767   8.400   9.844 -0.1126 -0.2106 -0.1095
  244YOPE   C1A 3055   4.510   8.942   9.651 -0.0971 -0.2946  0.0539
  244YOPE   D2A 3056   4.311   8.985   9.342  0.2360 -0.0554  0.2231
  244YOPE   C3A 3057   4.468   9.133   8.896  0.1680 -0.0064 -0.0100
  244YOPE   C4A 3058   4.669   9.379   8.524 -0.0251 -0.0968 -0.3473
  244YOPE   C1B 3059   4.886   8.017   9.623  0.1131 -0.0717 -0.1913
  244YOPE   C2B 3060   4.872   7.986   9.290  0.0147 -0.3102  0.0998
  244YOPE   D3B 3061   4.818   7.917   8.845  0.2694  0.1857 -0.1563
  244YOPE   C4B 3062   4.738   7.715   8.529  0.0523  0.0811  0.1844
  245YOPE   NH3 3063   5.549  12.953  10.131 -0.1263 -0.0687 -0.0630
  245YOPE   PO4 3064   5.116  13.065  10.279  0.3489  0.1058 -0.0240
  245YOPE   GL1 3065   5.202  13.285   9.990  0.4004 -0.2840  0.1121
  245YOPE   GL2 3066   5.322  13.615  10.091  0.1659  0.0330  0.1138
  245YOPE   C1A 3067   5.105  13.234   9.529  0.2239 -0.1374 -0.0821
  245YOPE   D2A 3068   5.110  13.121   9.073 -0.0988 -0.2359 -0.1171
  245YOPE   C3A 3069   4.941  13.426   8.768  0.2334  0.0089  0.2651
  245YOPE   C4A 3070   4.938  13.651   8.320 -0.2826 -0.3070 -0.1279
  245YOPE   C1B 3071   5.513  13.518   9.689  0.0845  0.0914  0.0361
  245YOPE   C2B 3072   5.549  13.394   9.343 -0.4038 -0.1610 -0.0975
  245YOPE   D3B 3073   5.537  13.305   8.953 -0.0249  0.1040 -0.2895
  245YOPE   C4B 3074   5.416  13.159   8.584  0.0914 -0.2314  0.2101
  246YOPE   NH3 3075   2.533  13.560  10.236 -0.1663 -0.1703  0.2154
  246YOPE   PO4 3076   2.310  13.263  10.098  0.1612 -0.4260 -0.2596
  246YOPE   GL1 3077   2.224  13.501   9.817 -0.0889  0.1483  0.1735
  246YOPE   GL2 3078   2.529  13.376   9.629 -0.1362  0.0144  0.0598
  246YOPE   C1A 3079   1.846  13.660   9.713 -0.1096 -0.0212 -0.0306
  246YOPE   D2A 3080   1.676  14.058   9.437 -0.0216  0.0278 -0.1414
  246YOPE   C3A 3081   1.641  14.216   9.025  0.1056  0.1716  0.0269
  246YOPE   C4A 3082   1.555  14.281   8.708 -0.0508 -0.2902  0.0746
  246YOPE   C1B 3083   2.550  13.358   9.168 -0.0753 -0.1682  0.1057
  246YOPE   C2B 3084   2.203  13.150   8.902  0.0745 -0.0443 -0.2231
  246YOPE   D3B 3085   1.901  13.365   8.573  0.0698 -0.3216 -0.4475
  246YOPE   C4B 3086   1.575  13.115   8.326  0.3157 -0.0163  0.1948
  247YOPE   NH3 3087  17.486   9.805  10.513 -0.0537  0.0227  0.1761
  247YOPE   PO4 3088  17.474   9.371  10.442  0.0175 -0.2962  0.2671
  247YOPE   GL1 3089  17.305   9.470  10.054 -0.1074 -0.1470  0.1638
  247YOPE   GL2 3090  17.246   9.802  10.055 -0.2432  0.3847 -0.0646
  247YOPE   C1A 3091  17.257   9.114   9.856  0.3955  0.1609 -0.2521
  247YOPE   D2A 3092  17.177   8.765   9.536 -0.0999 -0.0164  0.2618
  247YOPE   C3A 3093  17.550   8.507   9.394  0.2335  0.1098 -0.0532
  247YOPE   C4A 3094  17.623   8.312   8.983  0.0645 -0.0389 -0.1957
  247YOPE   C1B 3095  17.280   9.652   9.580  0.1844  0.2937  0.2067
  247YOPE   C2B 3096  17.284   9.603   9.130 -0.3530  0.1786  0.0403
  247YOPE   D3B 3097  17.060   9.515   8.808  0.1859  0.0457 -0.1197
  247YOPE   C4B 3098  16.610   9.586   8.709 -0.2024  0.1369  0.0007
  248YOPE   NH3 3099   8.165  10.371  10.836  0.0204 -0.0169  0.0794
  248YOPE   PO4 3100   8.129  10.203  10.455 -0.1460 -0.1501 -0.0049
  248YOPE   GL1 3101   7.851  10.320  10.134  0.2373  0.0549 -0.1198
  248YOPE   GL2 3102   7.543  10.489  10.063  0.0497 -0.1380  0.1950
  248YOPE   C1A 3103   7.635  10.165   9.718 -0.1455  0.1531 -0.2498
  248YOPE   D2A 3104   7.546  10.318   9.287 -0.0917  0.1112  0.0967
  248YOPE   C3A 3105   7.845  10.238   8.958 -0.2129 -0.3652 -0.0169
  248YOPE   C4A 3106   7.950  10.374   8.522 -0.0790  0.2175  0.0433
  248YOPE   C1B 3107   7.879  10.641   9.767 -0.2590  0.1795 -0.1729
  248YOPE   C2B 3108   7.928  10.592   9.349 -0.0989 -0.0351 -0.1666
  248YOPE   D3B 3109   7.977  10.752   8.904 -0.2086  0.0577  0.0680
  248YOPE   C4B 3110   8.087  10.865   8.527  0.2403 -0.3771  0.2180
  249YOPE   NH3 3111  11.898   4.962  10.758 -0.2341  0.4902  0.2222
  249YOPE   PO4 3112  11.690   4.572  10.556 -0.2509 -0.0657 -0.1124
  249YOPE   GL1 3113  11.532   4.764  10.232 -0.2892 -0.0693  0.3687
  249YOPE   GL2 3114  11.741   5.121  10.241  0.0205 -0.2087 -0.1654
  249YOPE   C1A 3115  11.441   4.820   9.861 -0.0929  0.2251 -0.3887
  249YOPE   D2A 3116  11.626   4.713   9.493 -0.2335 -0.1760  0.0382
  249YOPE   C3A 3117  12.069   4.750   9.237 -0.0564 -0.3557  0.2182
  249YOPE   C4A 3118  12.278   4.965   8.907 -0.3139 -0.0697  0.2656
  249YOPE   C1B 3119  11.707   5.237   9.810  0.0721 -0.2801 -0.0360
  249YOPE   C2B 3120  11.910   5.154   9.466  0.0637 -0.1040 -0.0571
  249YOPE   D3B 3121  11.926   5.229   9.140 -0.0703  0.0683  0.0133
  249YOPE   C4B 3122  11.795   5.104   8.736  0.0781  0.0469  0.2935
  250YOPE   NH3 3123  13.815  17.010  10.441  0.0501 -0.2611 -0.3020
  250YOPE   PO4 3124  13.836  16.650  10.188 -0.0325 -0.3058 -0.3193
  250YOPE   GL1 3125  14.124  16.698   9.864  0.0910  0.2352  0.3926
  250YOPE   GL2 3126  14.421  16.812   9.901  0.0347  0.2586  0.0304
  250YOPE   C1A 3127  14.245  16.648   9.434 -0.2034  0.2414 -0.0652
  250YOPE   D2A 3128  14.374  16.703   8.903 -0.2033 -0.1462  0.0264
  250YOPE   C3A 3129  14.046  16.658   8.633 -0.1767 -0.0573  0.3047
  250YOPE   C4A 3130  13.782  16.817   8.294 -0.1343  0.2742 -0.2372
  250YOPE   C1B 3131  14.503  16.995   9.600  0.0988  0.0833  0.2516
  250YOPE   C2B 3132  14.524  17.103   9.117 -0.1074 -0.3380  0.2006
  250YOPE   D3B 3133  14.597  17.162   8.790 -0.1340 -0.1538 -0.2478
  250YOPE   C4B 3134  14.442  17.025   8.486  0.1319  0.1987 -0.1944
  251YOPE   NH3 3135   8.963   0.595  10.018  0.1095 -0.0348  0.1814
  251YOPE   PO4 3136   9.311   0.297  10.037 -0.1452  0.0434  0.0706
  251YOPE   GL1 3137   9.213   0.379   9.584 -0.0233 -0.1510  0.1762
  251YOPE   GL2 3138   9.263   0.047   9.468  0.2240 -0.0773 -0.3733
  251YOPE   C1A 3139   9.336   0.536   9.231 -0.0167 -0.1332  0.1602
  251YOPE   D2A 3140   9.359   0.587   8.811 -0.0006  0.1585  0.3103
  251YOPE   C3A 3141   9.137   0.365   8.450  0.0336 -0.0727 -0.1619
  251YOPE   C4A 3142   8.729   0.188   8.276 -0.0542  0.1126  0.1169
  251YOPE   C1B 3143   9.255   0.053   9.061  0.1230  0.0092  0.1020
  251YOPE   C2B 3144   8.899  -0.048   8.746  0.1630  0.0596  0.2502
  251YOPE   D3B 3145   8.521   0.008   8.804 -0.1425 -0.0723 -0.1352
  251YOPE   C4B 3146   8.267   0.268   8.507 -0.1946 -0.0235 -0.0007
  252YOPE   NH3 3147   5.488   4.696  10.414  0.1414 -0.0497 -0.3470
  252YOPE   PO4 3148   5.506   4.282  10.106  0.2076 -0.1846 -0.2107
  252YOPE   GL1 3149   5.403   4.030   9.826 -0.0304 -0.2566 -0.0956
  252YOPE   GL2 3150   5.033   3.904   9.823 -0.0450  0.2488  0.2084
  252YOPE   C1A 3151   5.449   3.724   9.488  0.0149  0.0786 -0.0090
  252YOPE   D2A 3152   5.583   3.319   9.327  0.0765  0.2119  0.0902
  252YOPE   C3A 3153   5.496   3.274   8.838 -0.2551  0.0082 -0.2736
  252YOPE   C4A 3154   5.252   3.386   8.496 -0.1072 -0.0849  0.0909
  252YOPE   C1B 3155   4.939   3.964   9.403  0.2439 -0.0648 -0.0768
  252YOPE   C2B 3156   5.197   3.829   9.032 -0.0060 -0.0102  0.2617
  252YOPE   D3B 3157   5.238   3.859   8.607  0.0847  0.0235  0.0519
  252YOPE   C4B 3158   5.468   3.979   8.145 -0.2216  0.0454 -0.1934
  253YOPE   NH3 3159   1.148  14.640  10.588 -0.1810 -0.0082 -0.0597
  253YOPE   PO4 3160   0.684  14.505  10.478  0.0453 -0.2258 -0.0889
  253YOPE   GL1 3161   0.972  14.855  10.213  0.0729 -0.1164  0.0510
  253YOPE   GL2 3162   0.772  15.139  10.260 -0.0353  0.2308  0.0044
  253YOPE   C1A 3163   1.196  14.957   9.905 -0.1225 -0.1610  0.1372
  253YOPE   D2A 3164   1.152  15.020   9.471 -0.0911  0.0465 -0.0220
  253YOPE   C3A 3165   1.265  15.401   9.270  0.0053  0.1949  0.1081
  253YOPE   C4A 3166   1.144  15.911   9.143  0.0270 -0.2576 -0.2514
  253YOPE   C1B 3167   0.680  14.937   9.797  0.1651 -0.1502  0.0650
  253YOPE   C2B 3168   0.615  14.909   9.391 -0.0858  0.0744 -0.1764
  253YOPE   D3B 3169   0.535  14.672   9.082  0.2820 -0.2727 -0.1541
  253YOPE   C4B 3170   0.674  14.307   9.115 -0.0315 -0.0836  0.0729
  254YOPE   NH3 3171  16.679   0.277  10.555  0.0998  0.0787 -0.0737
  254YOPE   PO4 3172  17.096   0.438  10.530 -0.1258  0.0471 -0.1683
  254YOPE   GL1 3173  16.980   0.200  10.201  0.2641 -0.2060  0.0628
  254YOPE   GL2 3174  16.711   0.230  10.014 -0.0532  0.1531 -0.1164
  254YOPE   C1A 3175  16.978  -0.146   9.785 -0.2253 -0.0801  0.0608
  254YOPE   D2A 3176  16.744  -0.280   9.444 -0.2932 -0.2200  0.0228
  254YOPE   C3A 3177  16.942  -0.580   9.132 -0.3833  0.0772  0.0972
  254YOPE   C4A 3178  17.031  -0.845   8.687  0.3768  0.2623  0.0019
  254YOPE   C1B 3179  16.708   0.315   9.631  0.1961  0.0107 -0.1829
  254YOPE   C2B 3180  16.929   0.687   9.412 -0.0596  0.0827 -0.1086
  254YOPE   D3B 3181  16.948   1.039   9.255  0.0343 -0.0097  0.1717
  254YOPE   C4B 3182  17.055   1.277   8.852 -0.0632  0.4334 -0.2175
  255YOPE   NH3 3183   9.586   8.903  10.705  0.1280 -0.2062 -0.2460
  255YOPE   PO4 3184   9.242   9.152  10.572  0.2316 -0.1162 -0.3533
  255YOPE   GL1 3185   9.200   8.969  10.170  0.1725  0.0151 -0.1987
  255YOPE   GL2 3186   9.267   8.689  10.161  0.1083 -0.0180  0.0840
  255YOPE   C1A 3187   9.165   9.197   9.775  0.0581 -0.0342  0.3568
  255YOPE   D2A 3188   9.235   9.569   9.491 -0.1290 -0.2260  0.0979
  255YOPE   C3A 3189   9.220   9.430   8.956  0.0473 -0.0705 -0.1201
  255YOPE   C4A 3190   9.341   9.461   8.510 -0.0164 -0.3331  0.0094
  255YOPE   C1B 3191   9.482   8.842   9.802  0.2828 -0.1198 -0.0029
  255YOPE   C2B 3192   9.450   9.079   9.395  0.0354 -0.5640  0.0512
  255YOPE   D3B 3193   9.642   9.279   9.108  0.0437 -0.3549 -0.3237
  255YOPE   C4B 3194   9.751   9.209   8.697 -0.0145  0.0576 -0.1933
  256YOPE   NH3 3195   5.038   4.399  10.209  0.2168 -0.1774  0.1589
  256YOPE   PO4 3196   4.532   4.625  10.342 -0.2178  0.2120 -0.2359
  256YOPE   GL1 3197   4.195   4.512   9.961  0.0425 -0.2470 -0.0310
  256YOPE   GL2 3198   3.952   4.736   9.995 -0.0186  0.1412  0.0776
  256YOPE   C1A 3199   4.035   4.359   9.604  0.4537  0.0809  0.0287
  256YOPE   D2A 3200   4.031   4.075   9.282 -0.1688  0.0669 -0.1019
  256YOPE   C3A 3201   3.859   3.990   8.919 -0.2446 -0.2802 -0.1323
  256YOPE   C4A 3202   3.781   3.991   8.498  0.1175 -0.0943 -0.0836
  256YOPE   C1B 3203   4.081   4.925   9.589 -0.0149  0.3091 -0.0652
  256YOPE   C2B 3204   4.398   5.170   9.431 -0.2216 -0.2623  0.0085
  256YOPE   D3B 3205   4.578   5.207   9.043  0.0664 -0.0919 -0.2362
  256YOPE   C4B 3206   4.709   5.679   8.883 -0.2888  0.1060 -0.0795
  257YOPE   NH3 3207  15.591   5.534  11.226 -0.0631  0.0247  0.0355
  257YOPE   PO4 3208  15.608   5.769  10.866  0.0082 -0.1918  0.0090
  257YOPE   GL1 3209  15.714   5.938  10.526  0.2110  0.1572 -0.2273
  257YOPE   GL2 3210  16.068   5.924  10.518 -0.0432  0.0640 -0.1047
  257YOPE   C1A 3211  15.685   5.855  10.063 -0.0035  0.0179 -0.2181
  257YOPE   D2A 3212  15.457   5.839   9.651 -0.0997 -0.0300  0.1516
  257YOPE   C3A 3213  15.580   6.058   9.192  0.0282 -0.1535  0.2246
  257YOPE   C4A 3214  15.680   5.859   8.835 -0.2917  0.0270 -0.1939
  257YOPE   C1B 3215  16.141   6.004  10.071  0.1285  0.1237 -0.0234
  257YOPE   C2B 3216  16.008   5.888   9.688  0.0938  0.3598  0.0764
  257YOPE   D3B 3217  15.961   5.541   9.557 -0.0107 -0.0810 -0.0299
  257YOPE   C4B 3218  15.639   5.510   9.177  0.0994  0.2275 -0.0326
  258YOPE   NH3 3219   5.880  16.972  10.718 -0.1356  0.1358  0.2202
  258YOPE   PO4 3220   6.035  17.337  10.479 -0.2608  0.0090  0.2708
  258YOPE   GL1 3221   5.873  17.436  10.208  0.0662 -0.2083 -0.0154
  258YOPE   GL2 3222   6.223  17.642  10.038 -0.1288  0.0288 -0.0919
  258YOPE   C1A 3223   5.528  17.358   9.843  0.0964 -0.0975  0.1293
  258YOPE   D2A 3224   5.444  17.403   9.467 -0.2502 -0.1170 -0.1328
  258YOPE   C3A 3225   5.051  17.467   9.272  0.0465  0.1541  0.2000
  258YOPE   C4A 3226   4.697  17.420   9.051  0.2236  0.2796  0.0731
  258YOPE   C1B 3227   6.364  17.778   9.559  0.1699 -0.2652 -0.0472
  258YOPE   C2B 3228   6.404  17.493   9.170  0.1306 -0.2910  0.1807
  258YOPE   D3B 3229   6.339  17.169   9.055 -0.1346 -0.2416 -0.0816
  258YOPE   C4B 3230   5.972  16.724   9.030  0.2809 -0.0445  0.0007
  259YOPE   NH3 3231  17.308  17.582  10.608  0.1321 -0.1911  0.0351
  259YOPE   PO4 3232  17.824  17.561  10.589  0.0690 -0.0018  0.0156
  259YOPE   GL1 3233  17.832  17.689  10.165  0.1688 -0.2090 -0.0102
  259YOPE   GL2 3234  17.873  18.024  10.137 -0.0009 -0.2080 -0.0354
  259YOPE   C1A 3235  17.990  17.561   9.724 -0.0956 -0.0213 -0.0707
  259YOPE   D2A 3236  18.061  17.340   9.393  0.0375 -0.1746  0.1812
  259YOPE   C3A 3237  17.826  17.525   9.150 -0.0302 -0.1303  0.1477
  259YOPE   C4A 3238  17.452  17.405   8.885  0.2259  0.3199 -0.0696
  259YOPE   C1B 3239  17.925  18.251   9.836 -0.0557  0.0847 -0.0100
  259YOPE   C2B 3240  18.282  18.610   9.554  0.2629  0.1516 -0.2056
  259YOPE   D3B 3241  18.425  18.855   9.180 -0.0374  0.0269  0.2977
  259YOPE   C4B 3242  18.402  19.170   8.949  0.4701 -0.1412 -0.0670
  260YOPE   NH3 3243   2.467  11.485  10.217 -0.1437  0.0226  0.3133
  260YOPE   PO4 3244   2.017  11.426  10.073 -0.0395 -0.1347  0.4583
  260YOPE   GL1 3245   2.235  11.332   9.787 -0.0777 -0.0399  0.0559
  260YOPE   GL2 3246   2.202  11.023   9.774  0.1103 -0.0517 -0.2578
  260YOPE   C1A 3247   2.515  11.318   9.368 -0.1649 -0.0172  0.0149
  260YOPE   D2A 3248   3.020  11.287   9.161  0.0722 -0.3167 -0.0763
  260YOPE   C3A 3249   3.163  11.063   8.805  0.1007 -0.2746  0.2446
  260YOPE   C4A 3250   3.303  10.717   8.560  0.0664 -0.0618  0.0693
  260YOPE   C1B 3251   2.114  11.095   9.294 -0.0922  0.2121 -0.1457
  260YOPE   C2B 3252   2.104  10.922   8.950 -0.2078 -0.3903 -0.0997
  260YOPE   D3B 3253   2.335  10.931   8.621  0.1383  0.1859 -0.2381
  260YOPE   C4B 3254   2.370  11.159   8.362  0.1358  0.1615  0.2375
  261YOPE   NH3 3255  15.767   8.035  10.898  0.0376  0.2970 -0.2088
  261YOPE   PO4 3256  16.203   7.998  11.075  0.2464 -0.0970  0.0664
  261YOPE   GL1 3257  16.207   8.034  10.653 -0.0817 -0.2662 -0.5220
  261YOPE   GL2 3258  16.294   8.356  10.433 -0.0480  0.3619  0.1279
  261YOPE   C1A 3259  16.323   7.644  10.410 -0.1442  0.1305 -0.0617
  261YOPE   D2A 3260  16.670   7.424  10.313  0.0275  0.0664  0.3665
  261YOPE   C3A 3261  16.828   7.320   9.933 -0.0815 -0.0075 -0.1064
  261YOPE   C4A 3262  16.987   7.040   9.727  0.2698  0.2302 -0.0265
  261YOPE   C1B 3263  16.245   8.425   9.935  0.1405 -0.2308 -0.1672
  261YOPE   C2B 3264  16.088   8.532   9.440 -0.2288 -0.0461  0.2946
  261YOPE   D3B 3265  16.337   8.732   9.094 -0.0873  0.3897  0.2040
  261YOPE   C4B 3266  16.382   8.592   8.710 -0.1683  0.3680  0.2446
  262YOPE   NH3 3267   3.455   6.641  10.270 -0.1034  0.2769  0.0576
  262YOPE   PO4 3268   3.138   7.016  10.391  0.3337  0.0255 -0.1150
  262YOPE   GL1 3269   2.990   7.202  10.008 -0.0710  0.1935  0.0279
  262YOPE   GL2 3270   2.718   7.104   9.847  0.0011  0.1229  0.2041
  262YOPE   C1A 3271   3.152   7.205   9.593 -0.0103 -0.1216 -0.0723
  262YOPE   D2A 3272   3.048   7.237   9.139 -0.1299  0.0783  0.1964
  262YOPE   C3A 3273   2.698   7.003   9.026 -0.0241 -0.1484  0.0766
  262YOPE   C4A 3274   2.440   6.917   8.609 -0.0595  0.1984  0.1446
  262YOPE   C1B 3275   2.615   6.875   9.558  0.0973 -0.2868 -0.2864
  262YOPE   C2B 3276   2.256   6.758   9.442  0.2810  0.1908 -0.1267
  262YOPE   D3B 3277   2.298   6.292   9.402  0.0872  0.2074  0.2422
  262YOPE   C4B 3278   2.660   5.974   9.409 -0.0459 -0.0434  0.2046
  263YOPE   NH3 3279  13.433   9.852  10.608 -0.2057  0.1418  0.0191
  263YOPE   PO4 3280  13.077   9.989  10.424  0.0093  0.3420  0.1314
  263YOPE   GL1 3281  12.949  10.026   9.909 -0.1505 -0.1563 -0.1046
  263YOPE   GL2 3282  13.106   9.859   9.736  0.0845 -0.1016 -0.3911
  263YOPE   C1A 3283  13.010  10.328   9.670  0.0131  0.1191 -0.0832
  263YOPE   D2A 3284  12.807  10.709   9.631 -0.0880 -0.0281 -0.0904
  263YOPE   C3A 3285  12.849  10.919   9.366  0.0246  0.0578 -0.0109
  263YOPE   C4A 3286  12.871  10.885   8.909  0.2283  0.0517  0.1793
  263YOPE   C1B 3287  13.091   9.959   9.347 -0.2884  0.2876 -0.1610
  263YOPE   C2B 3288  13.057   9.948   8.961  0.1332  0.0993  0.0797
  263YOPE   D3B 3289  13.237   9.964   8.542 -0.0930 -0.0789 -0.0469
  263YOPE   C4B 3290  13.189  10.121   8.124  0.0759 -0.4042 -0.0738
  264YOPE   NH3 3291   6.105  12.168  10.242  0.0231  0.1471  0.1965
  264YOPE   PO4 3292   6.044  11.752  10.449 -0.0682 -0.1904 -0.0975
  264YOPE   GL1 3293   5.904  11.672  10.075  0.0204  0.1920 -0.0759
  264YOPE   GL2 3294   5.700  11.436  10.060  0.2348 -0.0919 -0.2930
  264YOPE   C1A 3295   5.987  11.555   9.701 -0.0023  0.1223  0.0836
  264YOPE   D2A 3296   6.108  11.190   9.519 -0.1150 -0.0655  0.0081
  264YOPE   C3A 3297   5.960  11.120   9.066 -0.3511  0.0432  0.2463
  264YOPE   C4A 3298   5.787  10.846   8.830 -0.1029  0.1471 -0.1376
  264YOPE   C1B 3299   5.325  11.411   9.875 -0.3989  0.2433  0.0297
  264YOPE   C2B 3300   5.064  11.295   9.525 -0.0257  0.3708  0.0947
  264YOPE   D3B 3301   5.044  11.471   9.108 -0.1477  0.2488 -0.3587
  264YOPE   C4B 3302   5.056  11.579   8.725 -0.0204 -0.2113 -0.1087
  265YOPE   NH3 3303  14.561   2.291  10.590  0.0556 -0.0900 -0.1383
  265YOPE   PO4 3304  14.172   2.515  10.645  0.1097  0.0822  0.2447
  265YOPE   GL1 3305  14.362   2.647  10.314 -0.0159 -0.0789  0.1701
  265YOPE   GL2 3306  14.715   2.496  10.165  0.1883 -0.1990  0.3623
  265YOPE   C1A 3307  14.282   2.650   9.888  0.1390 -0.0449  0.1400
  265YOPE   D2A 3308  14.308   2.919   9.461  0.0745  0.2217 -0.0646
  265YOPE   C3A 3309  14.007   2.878   9.151  0.6486  0.0213 -0.1297
  265YOPE   C4A 3310  13.745   2.840   8.824  0.0599  0.1390  0.0464
  265YOPE   C1B 3311  14.748   2.720   9.709 -0.0822  0.0993 -0.2913
  265YOPE   C2B 3312  14.764   2.973   9.275 -0.0016 -0.0272 -0.0722
  265YOPE   D3B 3313  14.517   3.167   9.064  0.1198 -0.4452  0.0146
  265YOPE   C4B 3314  14.507   3.545   8.744  0.0681 -0.0364 -0.1080
  266YOPE   NH3 3315   9.592   5.198  10.089  0.0425 -0.1253  0.2345
  266YOPE   PO4 3316   9.801   4.813  10.082  0.1839  0.2222 -0.1562
  266YOPE   GL1 3317   9.740   5.009   9.618  0.0192  0.1283  0.2704
  266YOPE   GL2 3318   9.736   5.238   9.619 -0.0841 -0.1939  0.2830
  266YOPE   C1A 3319   9.809   5.047   9.144 -0.2988 -0.1212  0.0318
  266YOPE   D2A 3320   9.727   5.016   8.774 -0.0979  0.1074 -0.2189
  266YOPE   C3A 3321   9.606   5.310   8.447  0.3423 -0.2032 -0.1215
  266YOPE   C4A 3322   9.514   5.564   8.200  0.1793 -0.1267 -0.0010
  266YOPE   C1B 3323  10.124   5.371   9.303 -0.0268  0.1467  0.0146
  266YOPE   C2B 3324  10.088   5.454   8.877 -0.2177  0.0834  0.0544
  266YOPE   D3B 3325  10.175   5.259   8.576 -0.4031 -0.1568 -0.1457
  266YOPE   C4B 3326  10.010   5.040   8.246  0.0111 -0.0466 -0.1346
  267YOPE   NH3 3327  14.054   5.775  11.008  0.2066  0.0234  0.1175
  267YOPE   PO4 3328  14.138   5.943  10.586  0.0630  0.1051  0.1515
  267YOPE   GL1 3329  14.417   5.736  10.306  0.4213  0.1156  0.2049
  267YOPE   GL2 3330  14.700   5.644  10.382  0.0397 -0.1566 -0.1090
  267YOPE   C1A 3331  14.528   5.529   9.859  0.1724 -0.0538 -0.0782
  267YOPE   D2A 3332  14.568   5.488   9.399  0.0150 -0.2006 -0.0615
  267YOPE   C3A 3333  14.315   5.297   9.016  0.1797 -0.2087  0.0047
  267YOPE   C4A 3334  14.299   5.349   8.534 -0.0418  0.1918 -0.0853
  267YOPE   C1B 3335  14.851   5.858  10.062 -0.1751 -0.1065 -0.1970
  267YOPE   C2B 3336  14.973   5.606   9.652 -0.1936 -0.1015  0.4138
  267YOPE   D3B 3337  15.111   5.545   9.236  0.2707 -0.1445  0.1421
  267YOPE   C4B 3338  15.356   5.486   8.777 -0.3026  0.0281 -0.0908
  268POPC   NC3 3339   7.217   2.375  10.154 -0.1497  0.1193 -0.0402
  268POPC   PO4 3340   7.211   1.963  10.235 -0.0258 -0.1005 -0.0344
  268POPC   GL1 3341   7.129   1.978   9.838  0.1254  0.0276 -0.0202
  268POPC   GL2 3342   6.847   2.146   9.756  0.0861 -0.1188 -0.1880
  268POPC   C1A 3343   7.268   1.919   9.425 -0.1586  0.1020 -0.1856
  268POPC   D2A 3344   7.308   1.852   9.057 -0.1499  0.0037  0.0654
  268POPC   C3A 3345   7.623   1.674   8.733  0.1729  0.1453 -0.2301
  268POPC   C4A 3346   7.619   1.764   8.308 -0.1060 -0.3066  0.2424
  268POPC   C1B 3347   6.704   2.088   9.377 -0.1783 -0.0102  0.0549
  268POPC   C2B 3348   6.487   1.932   9.075  0.2868  0.0767 -0.0826
  268POPC   C3B 3349   6.733   1.916   8.704 -0.0734 -0.1154  0.1547
  268POPC   C4B 3350   7.104   1.823   8.596 -0.0254  0.1281 -0.1270
  269POPC   NC3 3351   6.808  10.215  10.537  0.1702  0.0019 -0.0170
  269POPC   PO4 3352   6.924  10.563  10.450  0.4602 -0.0611 -0.0377
  269POPC   GL1 3353   7.079  10.361  10.088 -0.0920  0.1218  0.0042
  269POPC   GL2 3354   7.166  10.155   9.869 -0.1696  0.3088 -0.2958
  269POPC   C1A 3355   7.208  10.524   9.616  0.1887 -0.2027  0.4159
  269POPC   D2A 3356   7.008  10.349   9.254  0.1214  0.1458 -0.0709
  269POPC   C3A 3357   6.945  10.484   8.931  0.2537  0.0396 -0.0635
  269POPC   C4A 3358   7.130  10.385   8.627 -0.2152 -0.3839  0.2496
  269POPC   C1B 3359   7.254   9.686   9.781  0.0502 -0.0982  0.0109
  269POPC   C2B 3360   7.477   9.281   9.588 -0.0110  0.0425 -0.1394
  269POPC   C3B 3361   7.613   9.269   9.243 -0.0877 -0.1992  0.1757
  269POPC   C4B 3362   7.544   9.238   8.815 -0.1558  0.1114  0.1332
  270POPC   NC3 3363  14.507  10.928  10.676  0.1112  0.1747 -0.1014
  270POPC   PO4 3364  14.222  10.815  10.288  0.0074  0.1298  0.2034
  270POPC   GL1 3365  14.454  10.737   9.924 -0.1383 -0.2104 -0.3522
  270POPC   GL2 3366  14.570  11.035   9.929 -0.0446 -0.2332 -0.2461
  270POPC   C1A 3367  14.673  10.425   9.606  0.0083 -0.0383  0.1717
  270POPC   D2A 3368  14.757  10.399   9.234 -0.1991  0.0880 -0.0716
  270POPC   C3A 3369  14.953  10.486   8.889 -0.0229  0.0096 -0.3545
  270POPC   C4A 3370  15.022  10.558   8.505 -0.1495  0.1147 -0.2892
  270POPC   C1B 3371  14.635  10.887   9.480  0.1541  0.1662 -0.1255
  270POPC   C2B 3372  14.707  10.856   9.058 -0.0131 -0.1069  0.3465
  270POPC   C3B 3373  14.766  10.941   8.630  0.0006 -0.2459 -0.1309
  270POPC   C4B 3374  14.622  11.133   8.295  0.3635 -0.0035 -0.2783
  271POPC   NC3 3375   7.947  15.525  10.230  0.2216  0.4758  0.2336
  271POPC   PO4 3376   8.400  15.596  10.032 -0.2559  0.0468  0.1943
  271POPC   GL1 3377   8.346  15.795   9.580  0.2601 -0.0701 -0.0696
  271POPC   GL2 3378   8.493  16.145   9.622  0.0270  0.1680  0.1026
  271POPC   C1A 3379   8.356  15.752   9.171 -0.0864 -0.0545 -0.0141
  271POPC   D2A 3380   8.535  15.711   8.758 -0.1652 -0.0075 -0.0319
  271POPC   C3A 3381   8.773  15.834   8.355 -0.0625  0.1535  0.0676
  271POPC   C4A 3382   8.637  16.099   7.961  0.3127  0.1773  0.4294
  271POPC   C1B 3383   8.696  16.096   9.195  0.1402  0.1007 -0.0095
  271POPC   C2B 3384   8.882  16.080   8.766 -0.0455 -0.2652  0.0490
  271POPC   C3B 3385   9.152  16.199   8.441  0.0776  0.1764 -0.2063
  271POPC   C4B 3386   9.241  15.942   8.148 -0.0431  0.3346  0.3645
  272POPC   NC3 3387   9.940  16.469  10.098 -0.1001 -0.2968  0.0509
  272POPC   PO4 3388  10.406  16.417  10.045  0.0449  0.2311 -0.0000
  272POPC   GL1 3389  10.086  16.282   9.654 -0.1481  0.0477  0.0813
  272POPC   GL2 3390  10.121  16.079   9.362 -0.0819 -0.1186 -0.0388
  272POPC   C1A 3391   9.714  16.281   9.452  0.3276  0.1750  0.0517
  272POPC   D2A 3392   9.536  16.554   9.076 -0.2507  0.3408 -0.3566
  272POPC   C3A 3393   9.516  16.409   8.642 -0.0482  0.1219 -0.1461
  272POPC   C4A 3394   9.600  16.348   8.243 -0.0111  0.2395 -0.1653
  272POPC   C1B 3395   9.867  16.082   8.976  0.0888  0.2410  0.1622
  272POPC   C2B 3396   9.778  16.007   8.568  0.0135  0.0024  0.1677
  272POPC   C3B 3397   9.790  15.816   8.147  0.0919 -0.0022  0.0260
  272POPC   C4B 3398   9.521  15.698   7.769  0.0658  0.0624  0.1687
  273POPC   NC3 3399  11.773   0.921  10.097  0.0220 -0.2825  0.1903
  273POPC   PO4 3400  11.562   0.509   9.984  0.1495 -0.0447  0.0981
  273POPC   GL1 3401  11.403   0.336   9.638 -0.2834 -0.1091  0.0098
  273POPC   GL2 3402  11.012   0.382   9.519 -0.0430 -0.1513  0.0685
  273POPC   C1A 3403  11.551   0.236   9.240 -0.3902 -0.4201  0.0726
  273POPC   D2A 3404  11.544   0.212   8.795  0.2214  0.0621  0.1124
  273POPC   C3A 3405  11.460   0.579   8.501 -0.0380 -0.0075  0.0439
  273POPC   C4A 3406  11.611   0.887   8.256 -0.0382  0.0163  0.1571
  273POPC   C1B 3407  10.968   0.315   9.113 -0.3986  0.0142 -0.0257
  273POPC   C2B 3408  11.023   0.025   8.809 -0.1532  0.1095  0.3140
  273POPC   C3B 3409  10.898  -0.262   8.706  0.0641 -0.0220 -0.1168
  273POPC   C4B 3410  11.099  -0.632   8.653  0.0199 -0.1599 -0.0820
  274POPC   NC3 3411   8.207  17.458  10.349  0.1434 -0.0733 -0.0058
  274POPC   PO4 3412   8.638  17.214  10.395  0.0936  0.1448 -0.1931
  274POPC   GL1 3413   8.580  17.348   9.978 -0.2400  0.4107  0.0011
  274POPC   GL2 3414   8.201  17.360   9.897 -0.0426 -0.2618  0.1553
  274POPC   C1A 3415   8.552  17.579   9.634  0.0158  0.1301  0.2843
  274POPC   D2A 3416   8.583  17.821   9.293 -0.1171 -0.0751  0.0614
  274POPC   C3A 3417   8.798  18.143   9.283 -0.2725 -0.2429  0.2577
  274POPC   C4A 3418   8.943  18.491   8.973  0.0765  0.1768 -0.0207
  274POPC   C1B 3419   8.295  17.208   9.555 -0.0335  0.1967  0.0427
  274POPC   C2B 3420   8.297  16.885   9.250  0.0596 -0.1044  0.1756
  274POPC   C3B 3421   8.458  16.804   8.884 -0.0313 -0.0661  0.1950
  274POPC   C4B 3422   8.464  16.963   8.401 -0.0933  0.0106 -0.0955
  275POPC   NC3 3423   4.603   0.122  10.850 -0.2260 -0.0085 -0.1453
  275POPC   PO4 3424   4.732   0.447  10.590  0.2603 -0.1388  0.1664
  275POPC   GL1 3425   4.620   0.461  10.219 -0.2385 -0.2016  0.0896
  275POPC   GL2 3426   4.304   0.502  10.240 -0.0193  0.3313 -0.0642
  275POPC   C1A 3427   4.677   0.805   9.898  0.0029  0.2328 -0.2591
  275POPC   D2A 3428   4.803   0.954   9.546 -0.2125  0.1944 -0.1347
  275POPC   C3A 3429   4.677   0.814   9.089  0.1174  0.2487  0.3483
  275POPC   C4A 3430   4.551   0.616   8.757 -0.0484  0.0035  0.0928
  275POPC   C1B 3431   4.190   0.629   9.811  0.2624 -0.0878  0.0449
  275POPC   C2B 3432   4.367   0.401   9.389  0.3411  0.2798 -0.0625
  275POPC   C3B 3433   4.402   0.188   9.056  0.1851  0.0284 -0.1206
  275POPC   C4B 3434   4.451   0.104   8.696  0.0614  0.0743  0.0803
  276POPC   NC3 3435  11.792   1.564  10.556  0.1610  0.3872  0.2198
  276POPC   PO4 3436  11.778   1.464  10.130  0.2128  0.2229 -0.0351
  276POPC   GL1 3437  11.968   1.721   9.836  0.1267 -0.1920 -0.1321
  276POPC   GL2 3438  12.181   1.895  10.004  0.0276  0.1912 -0.1492
  276POPC   C1A 3439  12.079   1.622   9.399  0.1377  0.0496  0.4609
  276POPC   D2A 3440  12.050   1.198   9.227  0.0001 -0.1736  0.1690
  276POPC   C3A 3441  12.135   1.121   8.770 -0.3413 -0.0276  0.2047
  276POPC   C4A 3442  12.118   0.936   8.413  0.1172  0.0246  0.0389
  276POPC   C1B 3443  12.520   1.982   9.664  0.0390 -0.0814 -0.0454
  276POPC   C2B 3444  12.817   2.070   9.287 -0.0097  0.0725  0.1703
  276POPC   C3B 3445  12.976   2.041   8.815  0.0054  0.2604 -0.2641
  276POPC   C4B 3446  12.997   1.978   8.396  0.0081 -0.0179 -0.1629
  277POPC   NC3 3447   0.213   2.784  11.152 -0.4868  0.1466  0.2112
  277POPC   PO4 3448   0.612   3.014  11.034 -0.4278 -0.0085 -0.0660
  277POPC   GL1 3449   0.533   2.984  10.601  0.0418 -0.0657 -0.0123
  277POPC   GL2 3450   0.386   2.709  10.442 -0.0912  0.1572 -0.0323
  277POPC   C1A 3451   0.577   3.260  10.170  0.1804  0.5438  0.0612
  277POPC   D2A 3452   0.436   3.280   9.792 -0.4141  0.2001 -0.1170
  277POPC   C3A 3453   0.239   2.980   9.561  0.3055 -0.5503 -0.0830
  277POPC   C4A 3454  -0.210   2.895   9.620 -0.3306  0.0337  0.0482
  277POPC   C1B 3455   0.842   2.774  10.272 -0.1261  0.2508  0.2538
  277POPC   C2B 3456   1.204   2.840   9.929  0.0161  0.1735 -0.1703
  277POPC   C3B 3457   1.421   2.919   9.498 -0.0059 -0.0532 -0.0595
  277POPC   C4B 3458   1.383   2.664   9.109 -0.2025 -0.0194  0.0869
  278POPC   NC3 3459   4.769   6.241  10.440 -0.3912  0.0300  0.1061
  278POPC   PO4 3460   5.189   6.369  10.383  0.0726  0.2612 -0.1012
  278POPC   GL1 3461   5.309   6.356   9.985  0.2556  0.1196 -0.0575
  278POPC   GL2 3462   5.524   6.251   9.938 -0.0375  0.0210  0.2410
  278POPC   C1A 3463   5.153   6.521   9.527  0.1665 -0.1695 -0.3331
  278POPC   D2A 3464   4.889   6.777   9.254 -0.1813  0.0991  0.2190
  278POPC   C3A 3465   5.052   6.591   8.843 -0.1012  0.0569 -0.2501
  278POPC   C4A 3466   5.282   6.532   8.604 -0.0653 -0.0731  0.3449
  278POPC   C1B 3467   5.429   6.098   9.578 -0.0215 -0.0824 -0.0792
  278POPC   C2B 3468   5.459   5.832   9.218  0.1043  0.3290 -0.3007
  278POPC   C3B 3469   5.335   5.703   8.828  0.4833 -0.0590 -0.3658
  278POPC   C4B 3470   5.086   5.529   8.593 -0.3513  0.0478  0.2984
  279POPC   NC3 3471   5.069   9.267  10.633  0.1785 -0.1714  0.2186
  279POPC   PO4 3472   5.334   8.997  10.325  0.1200  0.1585  0.1465
  279POPC   GL1 3473   5.575   8.888   9.982  0.1623  0.0186  0.0267
  279POPC   GL2 3474   5.969   8.902   9.857  0.1931 -0.1108  0.1707
  279POPC   C1A 3475   5.609   8.817   9.509 -0.2610  0.1976  0.1229
  279POPC   D2A 3476   5.764   8.762   9.099 -0.2390  0.1800 -0.0788
  279POPC   C3A 3477   5.817   9.075   8.880 -0.1288 -0.1356  0.0889
  279POPC   C4A 3478   5.897   9.240   8.473  0.0120  0.0531 -0.0155
  279POPC   C1B 3479   6.114   8.720   9.543  0.2475 -0.0374  0.0363
  279POPC   C2B 3480   6.193   8.565   9.123  0.2290 -0.0936  0.1069
  279POPC   C3B 3481   6.139   8.531   8.719  0.1793 -0.1346  0.3314
  279POPC   C4B 3482   6.381   8.725   8.488  0.3997  0.0996 -0.0896
  280POPC   NC3 3483  17.752   1.481  10.666  0.0080 -0.0926  0.1083
  280POPC   PO4 3484  17.335   1.358  10.869 -0.0432 -0.2623  0.1321
  280POPC   GL1 3485  17.125   1.473  10.539  0.0141  0.0985 -0.1154
  280POPC   GL2 3486  17.341   1.545  10.376 -0.0067  0.1326 -0.0104
  280POPC   C1A 3487  16.763   1.517  10.377  0.2033  0.0366  0.2546
  280POPC   D2A 3488  16.451   1.693  10.189 -0.0073  0.0491 -0.2627
  280POPC   C3A 3489  16.046   1.603  10.038 -0.1332  0.0022 -0.2875
  280POPC   C4A 3490  15.879   1.278   9.867  0.0862 -0.0909  0.3070
  280POPC   C1B 3491  17.233   1.812  10.078 -0.2358 -0.1266 -0.1163
  280POPC   C2B 3492  17.223   1.972   9.681  0.0894  0.4735 -0.0304
  280POPC   C3B 3493  17.396   1.855   9.295 -0.0506  0.0709  0.0145
  280POPC   C4B 3494  17.803   1.965   9.039  0.0460 -0.0270 -0.1458
  281POPC   NC3 3495   9.023  17.480  10.185  0.1095 -0.2379 -0.0372
  281POPC   PO4 3496   9.436  17.275  10.023  0.2260 -0.0267 -0.2605
  281POPC   GL1 3497   9.674  17.229   9.618  0.0463  0.1633  0.3227
  281POPC   GL2 3498  10.062  17.291   9.588 -0.0923 -0.0507  0.0202
  281POPC   C1A 3499   9.683  17.030   9.189  0.1081 -0.4854  0.1218
  281POPC   D2A 3500   9.672  16.997   8.710  0.2145  0.0550 -0.2526
  281POPC   C3A 3501   9.324  16.812   8.456 -0.1320 -0.0538 -0.0648
  281POPC   C4A 3502   9.379  16.837   8.003  0.1616  0.0581  0.0215
  281POPC   C1B 3503  10.191  17.281   9.228 -0.0390 -0.2143  0.2293
  281POPC   C2B 3504  10.110  17.187   8.791  0.0927 -0.0948  0.0657
  281POPC   C3B 3505   9.990  17.312   8.374  0.1409 -0.3267 -0.1409
  281POPC   C4B 3506   9.767  17.106   8.088 -0.0020  0.1123  0.1336
  282POPC   NC3 3507   8.751  15.268  10.211 -0.0315  0.1999  0.0673
  282POPC   PO4 3508   8.309  15.140  10.115 -0.0055  0.0080  0.1703
  282POPC   GL1 3509   8.391  15.044   9.783  0.0369  0.0355  0.0882
  282POPC   GL2 3510   8.718  15.250   9.761  0.1510  0.1832  0.1996
  282POPC   C1A 3511   8.354  15.319   9.432  0.1879 -0.0240 -0.3521
  282POPC   D2A 3512   8.518  15.313   9.058 -0.0698 -0.0840  0.1916
  282POPC   C3A 3513   8.407  15.279   8.676 -0.2870  0.0577  0.2451
  282POPC   C4A 3514   8.146  15.465   8.392  0.1138 -0.0632 -0.1452
  282POPC   C1B 3515   8.849  15.137   9.407  0.2482  0.1243  0.2836
  282POPC   C2B 3516   8.824  14.944   8.963 -0.2819 -0.1939 -0.1922
  282POPC   C3B 3517   8.753  14.936   8.543  0.1178 -0.2052 -0.0921
  282POPC   C4B 3518   8.662  15.263   8.232  0.1022 -0.2590 -0.0976
  283POPC   NC3 3519  17.381  15.250  10.563 -0.0751 -0.3899  0.1240
  283POPC   PO4 3520  17.769  15.597  10.562  0.1059  0.1109 -0.4374
  283POPC   GL1 3521  17.759  15.437  10.153  0.4385 -0.3176  0.1576
  283POPC   GL2 3522  17.526  15.450  10.076  0.1395  0.0111  0.0329
  283POPC   C1A 3523  17.867  15.414   9.717  0.4475 -0.1833 -0.0588
  283POPC   D2A 3524  17.772  15.251   9.273 -0.1919  0.0769  0.0426
  283POPC   C3A 3525  17.937  15.236   8.909  0.0575 -0.1216  0.0416
  283POPC   C4A 3526  17.947  15.496   8.572 -0.1648  0.1053  0.2707
  283POPC   C1B 3527  17.358  15.738   9.778 -0.4013  0.1282 -0.0111
  283POPC   C2B 3528  17.371  15.949   9.439  0.0596 -0.1284 -0.1168
  283POPC   C3B 3529  17.345  16.107   9.101 -0.0775  0.1020 -0.3520
  283POPC   C4B 3530  17.191  15.988   8.793  0.0699 -0.0741  0.5170
  284POPC   NC3 3531  11.552   8.390  10.970  0.0799 -0.0064  0.0369
  284POPC   PO4 3532  11.750   8.755  10.632 -0.2066  0.0580 -0.1383
  284POPC   GL1 3533  11.552   8.834  10.196 -0.1346 -0.0385  0.5149
  284POPC   GL2 3534  11.326   8.940  10.001  0.3366  0.4381  0.0722
  284POPC   C1A 3535  11.756   8.567   9.824  0.0792 -0.1703  0.1613
  284POPC   D2A 3536  11.916   8.403   9.441  0.0390 -0.3080 -0.0531
  284POPC   C3A 3537  12.070   8.347   9.073  0.0599 -0.0391  0.3088
  284POPC   C4A 3538  12.045   8.304   8.788 -0.2259 -0.0513  0.1534
  284POPC   C1B 3539  11.467   8.941   9.567 -0.1129  0.2085  0.0145
  284POPC   C2B 3540  11.642   8.803   9.216 -0.3533 -0.2393  0.0570
  284POPC   C3B 3541  11.629   8.508   8.888  0.2878 -0.0536 -0.0299
  284POPC   C4B 3542  11.590   8.399   8.498 -0.0334 -0.0754 -0.1662
  285POPC   NC3 3543  14.841   0.719  10.879  0.1488  0.0625  0.2379
  285POPC   PO4 3544  14.460   0.926  10.640 -0.0183  0.0286 -0.0317
  285POPC   GL1 3545  14.669   0.817  10.313  0.1238 -0.1665 -0.0613
  285POPC   GL2 3546  14.776   0.442  10.408 -0.0029  0.0135 -0.2101
  285POPC   C1A 3547  14.941   1.179  10.070  0.0381  0.3998  0.0560
  285POPC   D2A 3548  15.025   1.117   9.620 -0.1515 -0.1658  0.2513
  285POPC   C3A 3549  15.243   0.882   9.414 -0.0147  0.0319 -0.0655
  285POPC   C4A 3550  15.517   0.913   9.191  0.4306  0.2278  0.0811
  285POPC   C1B 3551  14.844   0.579   9.947  0.1277  0.2460  0.0831
  285POPC   C2B 3552  14.802   0.702   9.582 -0.2809 -0.2361  0.0479
  285POPC   C3B 3553  14.755   0.865   9.174 -0.1849  0.1615  0.1133
  285POPC   C4B 3554  14.574   1.151   8.793 -0.0877  0.1023  0.0640
  286POPC   NC3 3555   4.419   2.259  10.297  0.0319  0.0796 -0.0973
  286POPC   PO4 3556   4.846   2.176  10.197 -0.0539 -0.1544 -0.0001
  286POPC   GL1 3557   4.587   2.202   9.851 -0.2000  0.0756  0.1809
  286POPC   GL2 3558   4.652   2.484   9.751 -0.0833 -0.3513  0.0322
  286POPC   C1A 3559   4.203   2.304   9.632  0.2407 -0.1123  0.1407
  286POPC   D2A 3560   4.038   2.295   9.242 -0.3592  0.0354 -0.0727
  286POPC   C3A 3561   3.812   2.481   8.942 -0.0259 -0.0152 -0.1491
  286POPC   C4A 3562   3.613   2.562   8.553 -0.0548  0.0164  0.1560
  286POPC   C1B 3563   4.507   2.537   9.327  0.1399  0.1262  0.1377
  286POPC   C2B 3564   4.351   2.538   8.895  0.0292 -0.1925 -0.5114
  286POPC   C3B 3565   4.151   2.748   8.642 -0.1952  0.0127 -0.1877
  286POPC   C4B 3566   4.440   3.042   8.444 -0.0818 -0.3755 -0.1484
  287POPC   NC3 3567  10.038   8.473  10.556  0.2293 -0.0586 -0.0481
  287POPC   PO4 3568   9.697   8.567  10.358  0.2181 -0.1839  0.3606
  287POPC   GL1 3569   9.756   8.377   9.893  0.0372 -0.0110  0.3832
  287POPC   GL2 3570   9.245   8.317   9.832 -0.2074  0.0615  0.0549
  287POPC   C1A 3571   9.579   8.415   9.502  0.0987 -0.3051  0.1686
  287POPC   D2A 3572   9.468   8.570   9.192  0.1164 -0.3478 -0.2006
  287POPC   C3A 3573   9.502   8.389   8.770  0.0936 -0.2846 -0.0806
  287POPC   C4A 3574   9.446   8.490   8.307 -0.0680 -0.1060  0.0596
  287POPC   C1B 3575   9.072   8.267   9.404  0.3078  0.4104 -0.1671
  287POPC   C2B 3576   9.058   8.309   9.006 -0.1631 -0.1751  0.0131
  287POPC   C3B 3577   8.991   8.561   8.621  0.0544  0.1081  0.1778
  287POPC   C4B 3578   8.640   8.784   8.373  0.0510  0.1565  0.1843
  288POPC   NC3 3579   1.498   3.775  11.010  0.1185  0.0285  0.0730
  288POPC   PO4 3580   1.900   3.568  11.030 -0.1802  0.0350 -0.2414
  288POPC   GL1 3581   1.855   3.749  10.629  0.2224 -0.1493 -0.0453
  288POPC   GL2 3582   1.693   3.643  10.411  0.1525  0.2103 -0.0005
  288POPC   C1A 3583   2.042   4.028  10.350  0.0905 -0.0680  0.0571
  288POPC   D2A 3584   2.070   4.060   9.905 -0.2367 -0.1281 -0.1102
  288POPC   C3A 3585   2.133   4.109   9.490 -0.1087 -0.2647 -0.5362
  288POPC   C4A 3586   2.479   4.233   9.156 -0.0401  0.0418 -0.3003
  288POPC   C1B 3587   1.741   3.691  10.061 -0.0157  0.2031  0.0958
  288POPC   C2B 3588   1.742   3.735   9.669  0.0127 -0.0729 -0.0041
  288POPC   C3B 3589   1.997   3.666   9.206  0.3069 -0.0686  0.2829
  288POPC   C4B 3590   2.216   3.501   8.851  0.4874 -0.1438 -0.0580
  289POPC   NC3 3591   1.664  14.101  10.111 -0.3548  0.3860  0.1298
  289POPC   PO4 3592   2.180  14.038  10.263  0.0955 -0.1794 -0.3329
  289POPC   GL1 3593   2.089  13.984   9.890  0.0275  0.0847 -0.2611
  289POPC   GL2 3594   2.056  14.293   9.804  0.3565  0.1481 -0.1098
  289POPC   C1A 3595   2.147  13.943   9.491 -0.6396 -0.0400 -0.1444
  289POPC   D2A 3596   2.107  13.962   9.159 -0.0098 -0.0270  0.0126
  289POPC   C3A 3597   2.256  13.661   8.815 -0.4004 -0.0491  0.0579
  289POPC   C4A 3598   2.198  13.665   8.371 -0.1312 -0.1250  0.2137
  289POPC   C1B 3599   1.932  14.508   9.402  0.0086 -0.0343  0.0318
  289POPC   C2B 3600   1.875  14.645   8.955 -0.1285 -0.0728 -0.1584
  289POPC   C3B 3601   1.752  14.763   8.617  0.2287 -0.0590 -0.2296
  289POPC   C4B 3602   1.581  14.879   8.292  0.2609  0.1480 -0.1304
  290POPC   NC3 3603  12.652  16.140  10.277 -0.0158  0.3300  0.0094
  290POPC   PO4 3604  13.054  16.323  10.114  0.1564  0.1802  0.1459
  290POPC   GL1 3605  12.985  16.223   9.729  0.0520  0.1521  0.2639
  290POPC   GL2 3606  12.761  16.042   9.728  0.1082 -0.2943 -0.2568
  290POPC   C1A 3607  12.855  16.209   9.251 -0.1676 -0.0625  0.0159
  290POPC   D2A 3608  12.677  16.474   8.912  0.0825 -0.0827  0.0314
  290POPC   C3A 3609  12.681  16.278   8.540  0.0883  0.0579 -0.0850
  290POPC   C4A 3610  12.746  16.608   8.274  0.3635  0.0543  0.1482
  290POPC   C1B 3611  12.585  15.723   9.526  0.0740  0.0022  0.0203
  290POPC   C2B 3612  12.433  15.383   9.518 -0.2332 -0.2753 -0.1987
  290POPC   C3B 3613  12.181  15.258   9.182  0.2866  0.2706  0.1260
  290POPC   C4B 3614  12.176  15.175   8.727 -0.3670  0.4925  0.1212
  291POPC   NC3 3615  13.635   1.148  11.010  0.3151  0.1219  0.0035
  291POPC   PO4 3616  13.500   1.180  10.582 -0.0078  0.3648 -0.0701
  291POPC   GL1 3617  13.313   1.186  10.156 -0.0426 -0.1692  0.3378
  291POPC   GL2 3618  13.548   0.957  10.032  0.2017  0.0535  0.0973
  291POPC   C1A 3619  13.087   1.424   9.829  0.0334  0.1681  0.2576
  291POPC   D2A 3620  13.158   1.856   9.575  0.0582 -0.0824  0.1830
  291POPC   C3A 3621  13.352   1.763   9.226  0.2907 -0.3118 -0.0828
  291POPC   C4A 3622  13.390   1.776   8.795 -0.1372 -0.0470 -0.1125
  291POPC   C1B 3623  13.286   0.995   9.648  0.1479  0.1337 -0.1306
  291POPC   C2B 3624  13.332   0.911   9.262 -0.0445  0.0634  0.1505
  291POPC   C3B 3625  13.478   0.950   8.825 -0.1088 -0.2684 -0.0452
  291POPC   C4B 3626  13.499   1.182   8.493 -0.3342  0.0557 -0.1795
  292POPC   NC3 3627   5.826   9.143  10.297  0.0442  0.1518 -0.0907
  292POPC   PO4 3628   6.211   8.966  10.318  0.0369 -0.1694  0.2305
  292POPC   GL1 3629   6.328   9.232   9.925 -0.0760 -0.3567 -0.0599
  292POPC   GL2 3630   6.592   9.447   9.890  0.0190 -0.0599 -0.0076
  292POPC   C1A 3631   6.353   9.207   9.444 -0.0264 -0.0310  0.1298
  292POPC   D2A 3632   6.288   9.027   9.028  0.0662 -0.1254 -0.2104
  292POPC   C3A 3633   6.362   9.300   8.710  0.1762 -0.1287  0.2774
  292POPC   C4A 3634   6.319   9.750   8.568  0.0368 -0.1900  0.2230
  292POPC   C1B 3635   6.578   9.716   9.543 -0.1791 -0.1825 -0.0178
  292POPC   C2B 3636   6.944   9.861   9.367 -0.0196 -0.1466  0.2832
  292POPC   C3B 3637   7.274   9.960   9.014  0.2252  0.1656  0.0586
  292POPC   C4B 3638   7.539  10.068   8.627  0.1575 -0.1887  0.2521
  293POPC   NC3 3639  12.709  15.477  10.462  0.0107 -0.0329 -0.3146
  293POPC   PO4 3640  12.356  15.727  10.382 -0.3124 -0.1957  0.1175
  293POPC   GL1 3641  12.158  15.610  10.018  0.1662  0.3625 -0.0862
  293POPC   GL2 3642  11.858  15.816   9.993  0.3104 -0.2272 -0.0160
  293POPC   C1A 3643  11.980  15.356   9.731  0.0176  0.2762  0.1008
  293POPC   D2A 3644  11.690  15.179   9.433 -0.0532  0.1899  0.2489
  293POPC   C3A 3645  11.625  15.227   8.979  0.0253  0.0386 -0.2597
  293POPC   C4A 3646  11.707  14.932   8.651 -0.1482 -0.1139  0.0693
  293POPC   C1B 3647  12.288  16.044   9.752 -0.1029 -0.0196 -0.0596
  293POPC   C2B 3648  12.373  16.134   9.305  0.0580  0.0915  0.1448
  293POPC   C3B 3649  12.131  16.096   8.937  0.0287 -0.3882  0.0368
  293POPC   C4B 3650  12.038  15.940   8.486 -0.0840 -0.2133  0.0847
  294POPC   NC3 3651  14.934  12.010  10.244  0.1516 -0.0609 -0.3743
  294POPC   PO4 3652  15.217  12.244  10.193  0.3650  0.1741  0.3625
  294POPC   GL1 3653  15.163  12.354   9.782 -0.2479 -0.2775 -0.0654
  294POPC   GL2 3654  15.305  12.677   9.687 -0.1537  0.1352 -0.3097
  294POPC   C1A 3655  15.277  12.334   9.316  0.1170 -0.2126  0.2520
  294POPC   D2A 3656  15.472  12.347   8.956 -0.1230 -0.2679 -0.0126
  294POPC   C3A 3657  15.312  12.549   8.607  0.0920 -0.1338  0.2702
  294POPC   C4A 3658  15.236  12.460   8.133 -0.3428  0.1108 -0.0566
  294POPC   C1B 3659  15.042  12.820   9.395 -0.2394 -0.0043 -0.0566
  294POPC   C2B 3660  14.594  12.993   9.227 -0.0094  0.3709 -0.0100
  294POPC   C3B 3661  14.728  13.300   8.888 -0.1815 -0.0302  0.0478
  294POPC   C4B 3662  14.865  13.724   8.954 -0.0783  0.0660  0.0243
  295POPC   NC3 3663   1.198  15.855  10.690 -0.1069 -0.1528  0.3174
  295POPC   PO4 3664   1.086  15.422  10.561 -0.2346  0.1182 -0.1676
  295POPC   GL1 3665   1.112  15.609  10.232  0.1893 -0.1556  0.0517
  295POPC   GL2 3666   1.259  15.904  10.140  0.0584  0.2822  0.2451
  295POPC   C1A 3667   1.009  15.371   9.841 -0.3017 -0.1161 -0.0300
  295POPC   D2A 3668   0.794  15.393   9.425  0.0449 -0.0427  0.0665
  295POPC   C3A 3669   0.915  15.216   8.960 -0.0203 -0.2980 -0.1339
  295POPC   C4A 3670   0.821  14.922   8.682  0.3932 -0.1768  0.1520
  295POPC   C1B 3671   1.288  16.322  10.042 -0.4235 -0.0615  0.2693
  295POPC   C2B 3672   1.013  16.613   9.964  0.2334  0.4161  0.1481
  295POPC   C3B 3673   0.752  16.450   9.717 -0.1671  0.1354 -0.1657
  295POPC   C4B 3674   0.703  16.380   9.199 -0.1461  0.0797  0.1651
  296POPC   NC3 3675   4.025  17.307  10.720  0.0724  0.1713  0.0182
  296POPC   PO4 3676   4.208  16.768  10.718  0.2604  0.1075  0.1889
  296POPC   GL1 3677   4.223  16.840  10.312  0.0248  0.2652  0.0681
  296POPC   GL2 3678   4.069  17.107  10.238  0.3048 -0.2785 -0.1225
  296POPC   C1A 3679   4.138  16.641   9.975 -0.1310  0.2875  0.0852
  296POPC   D2A 3680   3.991  16.518   9.519  0.0836  0.1473  0.1151
  296POPC   C3A 3681   3.849  16.416   9.134  0.3195  0.0511  0.1444
  296POPC   C4A 3682   4.068  16.366   8.817  0.1290  0.4446 -0.1040
  296POPC   C1B 3683   4.123  17.076   9.771  0.0640 -0.1431  0.1361
  296POPC   C2B 3684   4.095  17.132   9.364 -0.2543  0.0212 -0.1402
  296POPC   C3B 3685   4.302  17.112   9.023 -0.0670  0.1120 -0.2592
  296POPC   C4B 3686   4.197  16.798   8.686 -0.0153  0.2903 -0.0472
  297POPC   NC3 3687  17.250   4.944  11.193 -0.0199  0.1541 -0.0375
  297POPC   PO4 3688  17.425   5.357  11.157 -0.0876  0.0782 -0.0544
  297POPC   GL1 3689  17.254   5.310  10.686  0.0696 -0.2239 -0.0304
  297POPC   GL2 3690  17.467   5.556  10.624  0.1267  0.0691 -0.1376
  297POPC   C1A 3691  16.961   5.436  10.301 -0.2601  0.0093 -0.1279
  297POPC   D2A 3692  16.881   5.368   9.935  0.3968 -0.3095  0.0534
  297POPC   C3A 3693  16.876   5.472   9.592 -0.1437  0.0393  0.2060
  297POPC   C4A 3694  16.694   5.361   9.184  0.0484  0.3000 -0.1678
  297POPC   C1B 3695  17.401   5.549  10.163  0.0296  0.1114 -0.1816
  297POPC   C2B 3696  17.355   5.497   9.687 -0.0580  0.3725  0.1151
  297POPC   C3B 3697  17.397   5.527   9.202  0.0319 -0.4089  0.1067
  297POPC   C4B 3698  17.560   5.281   8.797  0.2057  0.0438  0.0418
  298POPC   NC3 3699   0.843  11.450  10.326 -0.2110 -0.0960  0.1512
  298POPC   PO4 3700   0.960  11.611   9.915 -0.0291 -0.0079  0.2168
  298POPC   GL1 3701   0.755  11.559   9.500 -0.0178  0.1559  0.1223
  298POPC   GL2 3702   0.575  11.838   9.303  0.2596  0.1044 -0.0239
  298POPC   C1A 3703   0.767  11.397   9.104 -0.0046 -0.0165 -0.0154
  298POPC   D2A 3704   0.692  11.352   8.707  0.1421  0.1012  0.0099
  298POPC   C3A 3705   0.996  11.307   8.338 -0.1171 -0.0247 -0.1809
  298POPC   C4A 3706   1.143  11.163   7.964  0.2214  0.2631 -0.1704
  298POPC   C1B 3707   0.858  11.856   8.966 -0.0856 -0.1136 -0.1973
  298POPC   C2B 3708   1.022  11.826   8.560 -0.0390  0.0363  0.1820
  298POPC   C3B 3709   0.954  11.754   8.188 -0.2067 -0.1439 -0.2312
  298POPC   C4B 3710   0.844  11.596   7.873 -0.0074  0.2251 -0.0501
  299POPC   NC3 3711   3.524   8.221  10.400 -0.0750  0.2032 -0.1295
  299POPC   PO4 3712   3.203   7.981  10.425 -0.0802 -0.0629  0.0695
  299POPC   GL1 3713   2.974   8.006  10.084  0.1653 -0.2102 -0.2154
  299POPC   GL2 3714   2.782   8.218  10.158 -0.2020  0.0389  0.0025
  299POPC   C1A 3715   2.762   8.171   9.618  0.0404  0.1200 -0.0659
  299POPC   D2A 3716   2.728   8.097   9.208  0.1500  0.2224  0.3045
  299POPC   C3A 3717   2.464   8.241   8.897 -0.2073  0.1543 -0.3637
  299POPC   C4A 3718   2.261   8.157   8.479  0.1485 -0.1913  0.1026
  299POPC   C1B 3719   3.046   8.524   9.920  0.0888  0.0687 -0.0487
  299POPC   C2B 3720   3.129   8.787   9.546  0.3747  0.0943  0.0682
  299POPC   C3B 3721   3.223   8.869   9.057  0.3852  0.2302  0.4414
  299POPC   C4B 3722   3.194   8.683   8.664  0.2893 -0.1378 -0.1454
  300POPC   NC3 3723   4.284  14.264  10.058 -0.1487 -0.1440  0.0444
  300POPC   PO4 3724   4.669  14.294  10.193 -0.1347  0.2815  0.1944
  300POPC   GL1 3725   4.800  14.447   9.811  0.1319  0.2638  0.3343
  300POPC   GL2 3726   4.427  14.611   9.752 -0.1632  0.1474 -0.0122
  300POPC   C1A 3727   5.134  14.493   9.670 -0.2140  0.0565 -0.0272
  300POPC   D2A 3728   5.534  14.274   9.503  0.0791 -0.3873  0.4443
  300POPC   C3A 3729   5.517  14.149   9.150  0.3342  0.0161 -0.2461
  300POPC   C4A 3730   5.787  14.091   8.744 -0.3531  0.0361  0.3052
  300POPC   C1B 3731   4.380  14.561   9.276 -0.1525  0.3447  0.3810
  300POPC   C2B 3732   4.441  14.569   8.950  0.2113  0.0186  0.0972
  300POPC   C3B 3733   4.580  14.443   8.570 -0.2447 -0.0851  0.1178
  300POPC   C4B 3734   4.770  14.180   8.394  0.3301  0.3236  0.0391
  301POPC   NC3 3735   0.976   0.529  10.992 -0.0152  0.0233 -0.1289
  301POPC   PO4 3736   0.800   0.890  10.836 -0.1472 -0.2275 -0.3291
  301POPC   GL1 3737   0.820   1.105  10.485  0.1851 -0.0094  0.0357
  301POPC   GL2 3738   0.581   1.035  10.335 -0.0193  0.1687 -0.3007
  301POPC   C1A 3739   1.093   1.026  10.184  0.0265  0.0293  0.1724
  301POPC   D2A 3740   1.297   0.987   9.774 -0.0866  0.0220 -0.2055
  301POPC   C3A 3741   1.240   0.892   9.353 -0.2741 -0.0672 -0.1300
  301POPC   C4A 3742   1.135   0.951   8.870  0.1741 -0.3308 -0.0471
  301POPC   C1B 3743   0.272   0.921  10.118 -0.0477 -0.2179  0.3810
  301POPC   C2B 3744   0.347   0.954   9.689 -0.1228 -0.0439 -0.1286
  301POPC   C3B 3745   0.205   1.289   9.421 -0.0079  0.0074  0.1037
  301POPC   C4B 3746   0.089   1.534   9.077  0.0242 -0.1356  0.0414
  302POPC   NC3 3747   2.534   6.332  10.609 -0.4556  0.0156  0.0845
  302POPC   PO4 3748   2.853   6.718  10.646 -0.0856 -0.2404  0.2531
  302POPC   GL1 3749   2.745   6.669  10.209 -0.0054 -0.0925  0.0154
  302POPC   GL2 3750   2.961   6.610  10.139  0.1223 -0.0132 -0.0523
  302POPC   C1A 3751   2.425   6.471   9.871 -0.1514 -0.0332  0.3011
  302POPC   D2A 3752   1.990   6.559   9.857 -0.0930  0.1824 -0.0942
  302POPC   C3A 3753   1.824   6.337   9.477  0.0937 -0.2823 -0.1317
  302POPC   C4A 3754   1.805   6.133   9.084 -0.0374  0.3285  0.2397
  302POPC   C1B 3755   3.029   6.749   9.770 -0.1067  0.4174 -0.0928
  302POPC   C2B 3756   3.140   6.760   9.399 -0.0067 -0.1229 -0.0122
  302POPC   C3B 3757   3.203   6.709   8.940 -0.1778  0.1618 -0.0092
  302POPC   C4B 3758   2.990   6.760   8.497  0.4682 -0.1673  0.2629
  303POPC   NC3 3759   0.915   3.193  11.426  0.0465  0.0227 -0.0399
  303POPC   PO4 3760   1.099   3.385  11.079  0.0674  0.0826  0.1266
  303POPC   GL1 3761   0.875   3.389  10.719  0.0189  0.2811 -0.1955
  303POPC   GL2 3762   0.690   3.566  10.639  0.1303  0.0915  0.0167
  303POPC   C1A 3763   1.052   3.239  10.345  0.1279  0.2988 -0.0492
  303POPC   D2A 3764   0.981   3.287   9.901  0.0584  0.0152  0.1765
  303POPC   C3A 3765   1.122   3.376   9.437 -0.0892 -0.0239  0.0239
  303POPC   C4A 3766   1.041   3.475   9.074 -0.1620  0.0518  0.2517
  303POPC   C1B 3767   0.761   3.663  10.264  0.0369 -0.2449 -0.1196
  303POPC   C2B 3768   0.712   3.681   9.798  0.2487 -0.4141 -0.0578
  303POPC   C3B 3769   0.642   3.592   9.474 -0.1869  0.1806  0.1075
  303POPC   C4B 3770   0.556   3.724   9.024  0.1154  0.0814  0.2109
  304POPC   NC3 3771   1.829  16.414  10.536  0.1414 -0.0319 -0.1030
  304POPC   PO4 3772   1.638  16.049  10.549 -0.1800 -0.0599  0.0368
  304POPC   GL1 3773   1.786  16.101  10.150  0.0600  0.0874 -0.4289
  304POPC   GL2 3774   1.910  15.800  10.178  0.1174  0.1662 -0.2228
  304POPC   C1A 3775   1.681  16.096   9.740 -0.3817  0.1705 -0.0328
  304POPC   D2A 3776   1.584  16.241   9.339  0.1797  0.1907 -0.1790
  304POPC   C3A 3777   1.824  16.084   9.053  0.1830 -0.1734 -0.0284
  304POPC   C4A 3778   2.241  16.074   8.975  0.3015 -0.0213  0.0229
  304POPC   C1B 3779   2.073  15.810   9.781 -0.1639 -0.0064 -0.1419
  304POPC   C2B 3780   2.236  15.946   9.480  0.0061  0.2091  0.0749
  304POPC   C3B 3781   2.566  15.818   9.266  0.2487  0.0812 -0.1234
  304POPC   C4B 3782   2.843  15.825   8.899  0.2076 -0.0018  0.3066
  305POPC   NC3 3783  17.623   0.582  10.627 -0.4070  0.1362  0.0405
  305POPC   PO4 3784  17.633   1.019  10.572 -0.1496  0.0539 -0.0661
  305POPC   GL1 3785  17.414   1.016  10.175  0.1276 -0.2582 -0.0205
  305POPC   GL2 3786  17.709   1.293  10.190  0.1507 -0.0870  0.1096
  305POPC   C1A 3787  17.299   0.863   9.700  0.0147 -0.2800  0.1153
  305POPC   D2A 3788  17.463   0.794   9.272 -0.1640 -0.2849  0.1388
  305POPC   C3A 3789  17.357   0.871   8.907 -0.1622 -0.3198 -0.0091
  305POPC   C4A 3790  17.508   1.011   8.629  0.0534  0.2128  0.3250
  305POPC   C1B 3791  17.436   1.431   9.856  0.3150 -0.1084  0.3727
  305POPC   C2B 3792  17.231   1.405   9.412 -0.1775 -0.0892 -0.0851
  305POPC   C3B 3793  16.816   1.579   9.199 -0.0193 -0.1200  0.2934
  305POPC   C4B 3794  16.524   1.538   8.793  0.1128  0.1570 -0.0016
  306POPC   NC3 3795   5.285   0.437  10.564 -0.3058 -0.2439  0.0530
  306POPC   PO4 3796   5.478   0.137  10.321  0.1615  0.4059 -0.0225
  306POPC   GL1 3797   5.622   0.031   9.887 -0.0319  0.1953 -0.0069
  306POPC   GL2 3798   5.714  -0.267   9.921  0.0442 -0.0150  0.1635
  306POPC   C1A 3799   5.684  -0.150   9.479  0.2032 -0.0251  0.1436
  306POPC   D2A 3800   5.783   0.047   9.066  0.0722  0.1009  0.2123
  306POPC   C3A 3801   6.073  -0.185   8.960 -0.1036  0.0283  0.2484
  306POPC   C4A 3802   6.379  -0.388   8.705 -0.0388  0.2334  0.0520
  306POPC   C1B 3803   5.947  -0.561   9.650  0.1914 -0.0126 -0.0867
  306POPC   C2B 3804   5.850  -0.554   9.199 -0.2401 -0.0007 -0.0201
  306POPC   C3B 3805   5.912  -0.843   8.932 -0.1412 -0.4075  0.0925
  306POPC   C4B 3806   5.746  -1.087   8.678  0.1258  0.0446 -0.0228
  307POPC   NC3 3807   4.172  11.204  10.544 -0.0813  0.2578 -0.0094
  307POPC   PO4 3808   4.637  11.266  10.629  0.1477  0.1031  0.0768
  307POPC   GL1 3809   4.535  11.124  10.244  0.0535 -0.1134  0.1427
  307POPC   GL2 3810   4.599  10.880  10.217  0.0554 -0.1399 -0.1777
  307POPC   C1A 3811   4.450  11.161   9.872 -0.1669 -0.0136  0.2990
  307POPC   D2A 3812   4.568  11.343   9.519 -0.2105  0.1205  0.1732
  307POPC   C3A 3813   4.308  11.463   9.200  0.2980 -0.0007  0.0085
  307POPC   C4A 3814   4.036  11.443   8.791 -0.0129 -0.2517  0.3515
  307POPC   C1B 3815   4.918  11.007   9.924 -0.0429  0.0335  0.1867
  307POPC   C2B 3816   5.386  10.910   9.902 -0.0479  0.0061 -0.1434
  307POPC   C3B 3817   5.800  10.977   9.855 -0.1641 -0.2843 -0.1675
  307POPC   C4B 3818   6.100  11.175  10.073 -0.2895  0.2293  0.3277
  308YOPC   NC3 3819   8.155  14.608  10.126 -0.2762  0.2391  0.0509
  308YOPC   PO4 3820   7.684  14.559  10.141 -0.1830 -0.0201  0.0542
  308YOPC   GL1 3821   7.483  14.669   9.715 -0.0959  0.1716 -0.0916
  308YOPC   GL2 3822   7.503  14.947   9.704 -0.1553 -0.2255  0.0564
  308YOPC   C1A 3823   7.547  14.722   9.223  0.2623  0.2503 -0.2119
  308YOPC   D2A 3824   7.474  14.921   8.846 -0.1454  0.0937 -0.2112
  308YOPC   C3A 3825   7.364  15.209   8.527 -0.0776 -0.1484 -0.1068
  308YOPC   C4A 3826   7.141  15.454   8.205  0.1853  0.0403 -0.2320
  308YOPC   C1B 3827   7.349  15.174   9.369 -0.1019 -0.2280 -0.2098
  308YOPC   C2B 3828   7.221  15.393   8.961 -0.0628  0.0449 -0.0331
  308YOPC   D3B 3829   6.904  15.373   8.698  0.0722 -0.3975 -0.3160
  308YOPC   C4B 3830   6.863  15.097   8.455 -0.0048  0.1100  0.0941
  309YOPC   NC3 3831  11.460  11.801  10.136  0.2639  0.0311 -0.1124
  309YOPC   PO4 3832  11.882  11.862  10.120 -0.1907 -0.3367 -0.1227
  309YOPC   GL1 3833  11.919  11.851   9.718 -0.1169  0.0238 -0.1381
  309YOPC   GL2 3834  11.940  12.147   9.501  0.1385 -0.3781  0.3743
  309YOPC   C1A 3835  12.017  11.692   9.321  0.0734 -0.1434  0.0683
  309YOPC   D2A 3836  12.095  11.614   8.948 -0.1131 -0.1637 -0.1925
  309YOPC   C3A 3837  12.000  11.866   8.596  0.0029 -0.0397 -0.3358
  309YOPC   C4A 3838  12.268  12.003   8.266  0.0860 -0.1247  0.0450
  309YOPC   C1B 3839  11.995  12.145   9.036  0.0046  0.0244 -0.1125
  309YOPC   C2B 3840  12.052  12.396   8.629  0.0889  0.2364  0.0679
  309YOPC   D3B 3841  12.162  12.455   8.329 -0.2077 -0.0586 -0.0477
  309YOPC   C4B 3842  12.321  12.807   8.154  0.1119  0.3369 -0.3082
  310YOPC   NC3 3843  18.046   4.185  11.198 -0.2894  0.0420  0.0789
  310YOPC   PO4 3844  17.912   4.582  11.086 -0.1038  0.2447  0.2172
  310YOPC   GL1 3845  18.106   4.759  10.778 -0.0634 -0.1717 -0.2142
  310YOPC   GL2 3846  18.460   4.588  10.618 -0.0506  0.3010 -0.2908
  310YOPC   C1A 3847  17.826   4.802  10.346  0.1300 -0.4608  0.0093
  310YOPC   D2A 3848  17.870   4.732   9.995 -0.0888  0.0586  0.2734
  310YOPC   C3A 3849  17.754   4.814   9.568 -0.0804 -0.0215  0.3963
  310YOPC   C4A 3850  17.598   4.824   9.036 -0.2653 -0.0488 -0.1332
  310YOPC   C1B 3851  18.626   4.656  10.308 -0.1968 -0.1492 -0.0279
  310YOPC   C2B 3852  18.820   4.715   9.962  0.3005  0.2350  0.0755
  310YOPC   D3B 3853  18.709   4.642   9.529 -0.3127  0.0826  0.0817
  310YOPC   C4B 3854  18.754   4.634   9.130 -0.2290  0.2977  0.1836
  311YOPC   NC3 3855   2.554  17.322  10.673  0.1763  0.2866  0.1698
  311YOPC   PO4 3856   2.736  16.970  10.397 -0.1735  0.4087  0.0941
  311YOPC   GL1 3857   2.955  16.980  10.016 -0.0527  0.2052 -0.1577
  311YOPC   GL2 3858   3.123  17.097  10.020  0.0490  0.2309  0.1476
  311YOPC   C1A 3859   2.870  16.997   9.620  0.0830 -0.0929 -0.0957
  311YOPC   D2A 3860   3.062  17.219   9.300  0.0037  0.0762  0.0822
  311YOPC   C3A 3861   3.133  17.036   8.849 -0.4077  0.0864  0.1324
  311YOPC   C4A 3862   3.258  16.890   8.596 -0.1058  0.1179  0.0982
  311YOPC   C1B 3863   3.243  17.413   9.702 -0.1121 -0.0389 -0.2008
  311YOPC   C2B 3864   3.219  17.726   9.305  0.2575  0.2411 -0.1555
  311YOPC   D3B 3865   3.114  17.522   8.960  0.0765 -0.2236 -0.0337
  311YOPC   C4B 3866   2.948  17.488   8.554 -0.0703  0.1500  0.0345
  312YOPC   NC3 3867   9.313  12.189  10.114  0.1862  0.0066  0.2749
  312YOPC   PO4 3868   9.663  12.490  10.250 -0.1304  0.2272 -0.0565
  312YOPC   GL1 3869   9.729  12.421   9.941  0.1177  0.2602  0.1183
  312YOPC   GL2 3870   9.441  12.525   9.758  0.0167 -0.0673  0.0254
  312YOPC   C1A 3871   9.769  12.199   9.593  0.2517  0.0302  0.0646
  312YOPC   D2A 3872   9.837  12.148   9.133  0.4314 -0.0654  0.1277
  312YOPC   C3A 3873   9.659  12.250   8.666  0.2313  0.0296  0.1996
  312YOPC   C4A 3874   9.677  12.540   8.413 -0.0621  0.0816  0.1362
  312YOPC   C1B 3875   9.498  12.813   9.500  0.0498  0.2151 -0.2766
  312YOPC   C2B 3876   9.359  12.812   9.146 -0.1708  0.1656 -0.2405
  312YOPC   D3B 3877   9.408  12.711   8.782  0.0194 -0.0437 -0.0188
  312YOPC   C4B 3878   9.173  12.710   8.330 -0.1723 -0.2014 -0.0255
  313YOPC   NC3 3879  12.977  10.935   9.991  0.0028 -0.7207  0.4241
  313YOPC   PO4 3880  13.289  10.912  10.291  0.3496 -0.0665 -0.2214
  313YOPC   GL1 3881  13.486  10.833   9.945 -0.2484 -0.1127  0.0199
  313YOPC   GL2 3882  13.339  10.966   9.675 -0.1439  0.3433  0.0028
  313YOPC   C1A 3883  13.808  10.783   9.632  0.1291 -0.0018 -0.1051
  313YOPC   D2A 3884  13.728  10.704   9.121 -0.1202 -0.2831  0.0653
  313YOPC   C3A 3885  13.991  10.644   8.702  0.0429  0.0571 -0.0001
  313YOPC   C4A 3886  13.946  10.461   8.289  0.3142 -0.0379 -0.0710
  313YOPC   C1B 3887  13.402  10.603   9.481  0.2703 -0.1445 -0.1809
  313YOPC   C2B 3888  13.280  10.387   9.184 -0.4040 -0.1534 -0.0979
  313YOPC   D3B 3889  13.564  10.297   8.827 -0.2694  0.1142 -0.1063
  313YOPC   C4B 3890  13.467  10.421   8.462  0.0760  0.2110  0.0606
  314YOPC   NC3 3891  16.806   9.562  11.025  0.3101 -0.2313 -0.0138
  314YOPC   PO4 3892  17.007   9.658  10.726  0.2978 -0.2836 -0.0077
  314YOPC   GL1 3893  16.893   9.371  10.429 -0.1200 -0.0563  0.3922
  314YOPC   GL2 3894  17.054   9.095  10.315 -0.1774  0.0676  0.3461
  314YOPC   C1A 3895  16.553   9.236  10.158 -0.0476  0.0037  0.2467
  314YOPC   D2A 3896  16.362   8.956   9.920 -0.0451 -0.4183 -0.3867
  314YOPC   C3A 3897  16.306   9.124   9.463 -0.1667  0.1837  0.1958
  314YOPC   C4A 3898  16.270   9.210   8.944 -0.1086 -0.1230 -0.2247
  314YOPC   C1B 3899  16.835   8.917   9.853 -0.1382  0.1209 -0.1726
  314YOPC   C2B 3900  16.645   8.813   9.511  0.2049 -0.1469 -0.0218
  314YOPC   D3B 3901  16.850   8.491   9.226  0.0669  0.4071 -0.2308
  314YOPC   C4B 3902  17.090   8.213   9.148  0.2043  0.1443  0.0544
  315YOPC   NC3 3903  14.007  10.600  10.739  0.1990  0.1461  0.1167
  315YOPC   PO4 3904  13.815  10.159  10.463 -0.1341  0.0098 -0.1338
  315YOPC   GL1 3905  14.021  10.359  10.124  0.2614  0.0756 -0.0640
  315YOPC   GL2 3906  14.061  10.020   9.972  0.3423 -0.0028 -0.2638
  315YOPC   C1A 3907  14.165  10.422   9.677  0.0277  0.1187  0.1504
  315YOPC   D2A 3908  14.194  10.552   9.298 -0.0723 -0.1894 -0.0141
  315YOPC   C3A 3909  14.418  10.441   8.909  0.0666 -0.4666 -0.3089
  315YOPC   C4A 3910  14.576  10.111   8.772  0.0868  0.3134  0.0359
  315YOPC   C1B 3911  13.920   9.739   9.653  0.1590  0.0280  0.0076
  315YOPC   C2B 3912  13.910   9.564   9.224 -0.1092 -0.1093 -0.1260
  315YOPC   D3B 3913  14.089   9.172   9.146  0.0535 -0.0209  0.0658
  315YOPC   C4B 3914  14.290   8.896   9.447  0.0029 -0.1246 -0.1439
  316YOPC   NC3 3915   1.298   2.516  11.038 -0.0903 -0.2159  0.0252
  316YOPC   PO4 3916   0.880   2.196  11.134 -0.1168 -0.0091  0.1658
  316YOPC   GL1 3917   0.966   2.195  10.747  0.0889 -0.1738  0.0001
  316YOPC   GL2 3918   1.275   2.143  10.672  0.0496  0.0518 -0.0466
  316YOPC   C1A 3919   0.810   2.330  10.370  0.0371  0.0405  0.0378
  316YOPC   D2A 3920   0.514   2.414  10.058  0.1088  0.0117  0.0801
  316YOPC   C3A 3921   0.631   2.287   9.671 -0.2412 -0.1185 -0.0590
  316YOPC   C4A 3922   0.699   2.172   9.251  0.0748  0.0204 -0.0574
  316YOPC   C1B 3923   1.187   1.954  10.353  0.0543 -0.0054 -0.3137
  316YOPC   C2B 3924   0.885   1.978  10.024 -0.0336  0.0740  0.3851
  316YOPC   D3B 3925   1.055   1.926   9.484  0.0291  0.0223 -0.0501
  316YOPC   C4B 3926   1.040   1.704   9.126 -0.0931  0.0888  0.3147
  317YOPC   NC3 3927   6.906  12.110  10.309  0.0092 -0.0827  0.4065
  317YOPC   PO4 3928   6.593  12.432  10.236  0.2025  0.2122 -0.0582
  317YOPC   GL1 3929   6.352  12.290   9.789 -0.1758 -0.1497  0.2853
  317YOPC   GL2 3930   6.034  12.134   9.746 -0.2862  0.2377  0.1856
  317YOPC   C1A 3931   6.265  12.143   9.308  0.0510  0.2861 -0.1992
  317YOPC   D2A 3932   6.235  12.133   8.945  0.0865  0.0324 -0.0508
  317YOPC   C3A 3933   6.422  12.395   8.523 -0.0211  0.0839 -0.0293
  317YOPC   C4A 3934   6.790  12.384   8.244 -0.0282  0.2534  0.2478
  317YOPC   C1B 3935   5.849  11.947   9.421 -0.1824  0.0128 -0.3754
  317YOPC   C2B 3936   5.873  11.572   9.172 -0.1595  0.1030  0.1423
  317YOPC   D3B 3937   5.923  11.496   8.709 -0.2583  0.2577 -0.0300
  317YOPC   C4B 3938   5.831  11.198   8.408 -0.1810  0.2417  0.1582
  318YOPC   NC3 3939   8.440   3.292  10.068  0.0048 -0.0622  0.3363
  318YOPC   PO4 3940   8.173   3.661   9.949 -0.2863 -0.1708 -0.1499
  318YOPC   GL1 3941   8.329   3.576   9.568  0.0712 -0.1770  0.3667
  318YOPC   GL2 3942   8.230   3.308   9.621  0.1163  0.2256  0.1135
  318YOPC   C1A 3943   8.646   3.443   9.243  0.3455  0.3012  0.1304
  318YOPC   D2A 3944   8.731   3.340   8.830 -0.1135 -0.3389 -0.0685
  318YOPC   C3A 3945   8.799   3.115   8.395  0.0514 -0.1552 -0.1371
  318YOPC   C4A 3946   8.991   2.808   8.085 -0.1865 -0.0630  0.0179
  318YOPC   C1B 3947   8.241   3.017   9.321  0.0995 -0.1589  0.1537
  318YOPC   C2B 3948   8.323   3.023   8.861 -0.0023 -0.1239  0.3074
  318YOPC   D3B 3949   8.307   3.272   8.579 -0.3512 -0.1329  0.2958
  318YOPC   C4B 3950   8.572   3.533   8.362 -0.0675 -0.0430  0.1702
  319YOPC   NC3 3951   3.396   0.370  10.535 -0.1633  0.0254 -0.1210
  319YOPC   PO4 3952   3.208   0.053  10.615  0.2455  0.0442  0.0416
  319YOPC   GL1 3953   3.093  -0.125  10.294  0.0002 -0.1740 -0.0171
  319YOPC   GL2 3954   3.316  -0.387  10.183  0.2494 -0.2270 -0.2411
  319YOPC   C1A 3955   2.973  -0.102   9.848  0.0323  0.3205 -0.0904
  319YOPC   D2A 3956   2.864   0.035   9.420  0.0947  0.0159 -0.2588
  319YOPC   C3A 3957   2.990  -0.006   9.049  0.0993  0.1536  0.3041
  319YOPC   C4A 3958   2.837   0.155   8.675 -0.2000 -0.1221 -0.2362
  319YOPC   C1B 3959   3.696  -0.253   9.905 -0.2874 -0.0468  0.1806
  319YOPC   C2B 3960   3.636  -0.156   9.530 -0.1019  0.3138  0.0850
  319YOPC   D3B 3961   3.485  -0.102   8.991  0.1409 -0.2530 -0.2949
  319YOPC   C4B 3962   3.249  -0.124   8.663 -0.1470  0.0520  0.1627
  320YOPC   NC3 3963  17.559   4.406  10.773  0.2804 -0.2104 -0.1548
  320YOPC   PO4 3964  17.585   4.009  11.064 -0.3072  0.1352  0.1003
  320YOPC   GL1 3965  17.830   3.955  10.712 -0.0650 -0.0985 -0.3469
  320YOPC   GL2 3966  18.010   4.180  10.627 -0.0282 -0.0723  0.0729
  320YOPC   C1A 3967  17.844   3.778  10.266  0.2637  0.0949 -0.1014
  320YOPC   D2A 3968  17.785   3.756   9.867  0.3079  0.1000  0.2685
  320YOPC   C3A 3969  17.680   3.889   9.424  0.2471 -0.1403 -0.2169
  320YOPC   C4A 3970  17.701   4.359   9.310 -0.0431 -0.1941  0.0330
  320YOPC   C1B 3971  18.190   4.364  10.262 -0.2404  0.1202  0.1712
  320YOPC   C2B 3972  18.371   4.449   9.896 -0.0890 -0.0770  0.1400
  320YOPC   D3B 3973  18.168   4.480   9.466 -0.2245  0.1731  0.0266
  320YOPC   C4B 3974  18.100   4.625   9.040 -0.1891  0.0779  0.1440
  321YOPC   NC3 3975  17.317   2.885  10.736  0.2014  0.0246  0.0195
  321YOPC   PO4 3976  17.175   3.351  10.768 -0.0217  0.1885 -0.0431
  321YOPC   GL1 3977  17.053   3.222  10.324  0.0866  0.2860 -0.0466
  321YOPC   GL2 3978  17.021   2.846  10.314  0.2941  0.2722 -0.0099
  321YOPC   C1A 3979  16.983   3.316   9.892 -0.0511  0.0914  0.2304
  321YOPC   D2A 3980  16.942   3.236   9.370 -0.0170 -0.1656  0.1864
  321YOPC   C3A 3981  16.893   2.862   9.231 -0.1682  0.0334  0.0230
  321YOPC   C4A 3982  16.632   2.493   9.185  0.1456 -0.0962 -0.2896
  321YOPC   C1B 3983  16.960   2.797   9.879  0.1230 -0.1240 -0.4608
  321YOPC   C2B 3984  17.033   2.467   9.580  0.1797 -0.0631 -0.0152
  321YOPC   D3B 3985  17.247   2.417   9.244  0.1914  0.2019 -0.2957
  321YOPC   C4B 3986  17.392   2.194   8.933  0.1340  0.2045 -0.0449
  322YOPC   NC3 3987   8.407  12.846  10.467 -0.2234 -0.3124 -0.4189
  322YOPC   PO4 3988   8.671  12.477  10.337 -0.1325  0.3424  0.1062
  322YOPC   GL1 3989   8.932  12.489  10.019 -0.2788 -0.3001  0.3036
  322YOPC   GL2 3990   8.972  12.339   9.824 -0.1111  0.0336  0.1937
  322YOPC   C1A 3991   9.007  12.793   9.669 -0.2564  0.1532 -0.0842
  322YOPC   D2A 3992   8.996  13.098   9.395 -0.1408 -0.0037 -0.2512
  322YOPC   C3A 3993   8.916  12.999   8.977 -0.0441  0.0087  0.1460
  322YOPC   C4A 3994   8.833  13.059   8.556 -0.1829 -0.0612  0.4485
  322YOPC   C1B 3995   9.171  12.351   9.421  0.0234  0.0344 -0.2630
  322YOPC   C2B 3996   9.303  12.262   9.045  0.1177  0.2634  0.1300
  322YOPC   D3B 3997   9.155  12.328   8.616 -0.2729 -0.0264 -0.0468
  322YOPC   C4B 3998   9.392  12.198   8.239 -0.1364  0.0975 -0.1141
  323YOPC   NC3 3999  11.388   5.883  10.843 -0.0186  0.1562 -0.2423
  323YOPC   PO4 4000  11.783   5.930  10.671 -0.2385 -0.0469  0.0171
  323YOPC   GL1 4001  11.860   5.748  10.278  0.3979 -0.0874  0.2521
  323YOPC   GL2 4002  11.757   5.866   9.974 -0.4034 -0.1419 -0.2558
  323YOPC   C1A 4003  12.137   5.447  10.238  0.0870  0.0411 -0.3302
  323YOPC   D2A 4004  12.529   5.445  10.185 -0.0355  0.1545 -0.0061
  323YOPC   C3A 4005  12.566   5.303   9.792 -0.2623  0.0145 -0.1465
  323YOPC   C4A 4006  12.390   4.994   9.571 -0.1618 -0.0879 -0.0863
  323YOPC   C1B 4007  11.873   6.102   9.701  0.3179  0.0694 -0.0619
  323YOPC   C2B 4008  12.241   5.936   9.402  0.1431  0.3297  0.1165
  323YOPC   D3B 4009  12.204   6.068   8.987  0.5669 -0.1192  0.1237
  323YOPC   C4B 4010  12.464   6.111   8.677 -0.1020  0.1375 -0.2769
  324YOPC   NC3 4011   3.845   2.599  10.920  0.0078 -0.2832  0.0081
  324YOPC   PO4 4012   3.965   3.051  10.869 -0.1871 -0.0755  0.2958
  324YOPC   GL1 4013   3.961   3.132  10.445 -0.2997 -0.0378  0.0775
  324YOPC   GL2 4014   4.144   3.497  10.275 -0.0821  0.1164 -0.2974
  324YOPC   C1A 4015   3.761   3.177   9.983 -0.2816 -0.1012  0.0265
  324YOPC   D2A 4016   3.673   3.230   9.570 -0.0050  0.0365  0.0162
  324YOPC   C3A 4017   3.945   3.399   9.327  0.0047  0.0796  0.3160
  324YOPC   C4A 4018   4.173   3.650   9.097 -0.0418 -0.0127 -0.0631
  324YOPC   C1B 4019   4.148   3.511   9.779  0.1677  0.2123  0.1038
  324YOPC   C2B 4020   4.516   3.741   9.463 -0.0296 -0.1396  0.0869
  324YOPC   D3B 4021   4.673   3.735   9.076 -0.1242 -0.1293  0.2237
  324YOPC   C4B 4022   4.783   3.956   8.787 -0.1564 -0.2227  0.3117
  325YOPC   NC3 4023   5.822  17.846  10.507  0.0134 -0.1435  0.0195
  325YOPC   PO4 4024   5.986  18.050  10.271  0.0922  0.0071 -0.1146
  325YOPC   GL1 4025   6.117  18.120   9.924 -0.2812  0.1268  0.0188
  325YOPC   GL2 4026   6.329  18.348  10.008  0.0855 -0.1454 -0.0235
  325YOPC   C1A 4027   6.087  18.179   9.478  0.5488 -0.2093 -0.0586
  325YOPC   D2A 4028   6.221  18.388   9.233  0.3451 -0.0471  0.2393
  325YOPC   C3A 4029   6.566  18.505   9.068  0.0095  0.3165 -0.3310
  325YOPC   C4A 4030   6.715  18.609   8.657 -0.3488 -0.1062  0.0954
  325YOPC   C1B 4031   5.940  18.612   9.747  0.0307  0.1184  0.1255
  325YOPC   C2B 4032   5.837  18.881   9.473 -0.2148  0.4693  0.0388
  325YOPC   D3B 4033   5.760  18.621   9.139 -0.2132 -0.0955  0.0071
  325YOPC   C4B 4034   5.642  18.435   8.692  0.0483  0.0351  0.0439
  326YOPC   NC3 4035   3.735   3.497  10.673 -0.2629  0.0146  0.1914
  326YOPC   PO4 4036   3.323   3.241  10.503  0.0114  0.1986  0.1620
  326YOPC   GL1 4037   3.292   2.873  10.104  0.0490 -0.0388  0.0154
  326YOPC   GL2 4038   3.066   2.655  10.076  0.0669 -0.0351 -0.1590
  326YOPC   C1A 4039   3.258   2.893   9.646 -0.0762  0.0447  0.1304
  326YOPC   D2A 4040   3.430   2.901   9.237  0.0341 -0.0607  0.2483
  326YOPC   C3A 4041   3.243   3.195   8.932  0.0937 -0.1551 -0.1457
  326YOPC   C4A 4042   3.105   3.118   8.560 -0.0278  0.0290 -0.1520
  326YOPC   C1B 4043   2.911   2.525   9.585  0.0804 -0.1741 -0.1608
  326YOPC   C2B 4044   2.862   2.379   9.184  0.0773 -0.0900 -0.1182
  326YOPC   D3B 4045   2.841   2.297   8.770 -0.1301  0.0690 -0.0414
  326YOPC   C4B 4046   2.718   2.340   8.390  0.1627 -0.2465  0.0944
  327YOPC   NC3 4047   6.456  14.486  10.479 -0.0456  0.2605 -0.2426
  327YOPC   PO4 4048   6.865  14.518  10.421 -0.3610  0.1385  0.1955
  327YOPC   GL1 4049   7.134  14.512  10.128 -0.0963 -0.3692 -0.1210
  327YOPC   GL2 4050   7.159  14.288   9.941  0.0023 -0.1387  0.2789
  327YOPC   C1A 4051   7.044  14.767   9.574 -0.1944  0.1891  0.1593
  327YOPC   D2A 4052   6.976  14.938   9.174  0.0162 -0.1680  0.0834
  327YOPC   C3A 4053   6.592  15.004   8.890 -0.1396  0.0564 -0.2702
  327YOPC   C4A 4054   6.354  15.212   8.575 -0.2601  0.2075 -0.2344
  327YOPC   C1B 4055   7.184  13.943   9.617 -0.1453 -0.1072 -0.0913
  327YOPC   C2B 4056   7.177  13.990   9.053  0.0185  0.1531  0.1228
  327YOPC   D3B 4057   7.042  14.176   8.659  0.0026 -0.2649 -0.0452
  327YOPC   C4B 4058   7.198  14.140   8.322 -0.2259 -0.2435 -0.2114
  328YOPC   NC3 4059   1.960   8.616  10.966 -0.1451 -0.2915 -0.1809
  328YOPC   PO4 4060   2.024   8.266  10.700  0.3156 -0.1315  0.0703
  328YOPC   GL1 4061   1.852   8.079  10.298 -0.1028  0.3064  0.0559
  328YOPC   GL2 4062   1.646   7.780  10.424  0.0549  0.2070 -0.0879
  328YOPC   C1A 4063   1.844   8.107   9.857  0.0308 -0.1588 -0.2223
  328YOPC   D2A 4064   1.872   8.085   9.537  0.0581  0.0430  0.1525
  328YOPC   C3A 4065   1.589   8.080   9.209  0.1155  0.1817 -0.1941
  328YOPC   C4A 4066   1.478   7.775   8.947  0.0495 -0.2243  0.0317
  328YOPC   C1B 4067   1.569   7.617   9.998 -0.1233 -0.1251 -0.0820
  328YOPC   C2B 4068   1.505   7.273   9.819 -0.2174  0.0760 -0.2777
  328YOPC   D3B 4069   1.902   7.066   9.659 -0.0666 -0.2891  0.2856
  328YOPC   C4B 4070   2.271   6.941   9.914  0.0778  0.5037 -0.0762
  329YOPC   NC3 4071  14.526  17.430  10.424  0.1088 -0.0791 -0.1197
  329YOPC   PO4 4072  14.211  17.585  10.529  0.1995  0.2818  0.0506
  329YOPC   GL1 4073  14.249  17.717  10.064 -0.0848 -0.1055  0.1206
  329YOPC   GL2 4074  14.415  17.509   9.913 -0.1439 -0.0009  0.1349
  329YOPC   C1A 4075  14.012  17.696   9.714 -0.1864 -0.3396 -0.0389
  329YOPC   D2A 4076  14.035  17.863   9.329  0.3527  0.0780  0.0642
  329YOPC   C3A 4077  13.995  17.670   8.907 -0.1297  0.1554 -0.0618
  329YOPC   C4A 4078  14.103  17.608   8.568  0.4028 -0.0005  0.3506
  329YOPC   C1B 4079  14.489  17.748   9.538  0.1289 -0.0137  0.0926
  329YOPC   C2B 4080  14.486  18.107   9.148  0.2033  0.0681  0.1708
  329YOPC   D3B 4081  14.098  18.179   8.850  0.1128  0.0899  0.3198
  329YOPC   C4B 4082  13.884  18.259   8.540  0.0840  0.0677 -0.1278
  330YOPC   NC3 4083  14.340  15.707  10.860 -0.1814 -0.0212  0.0464
  330YOPC   PO4 4084  14.138  15.738  10.472  0.1816 -0.0727  0.1890
  330YOPC   GL1 4085  14.236  15.785  10.046  0.2407  0.0789  0.1419
  330YOPC   GL2 4086  14.373  15.552   9.888 -0.3527  0.0489 -0.2511
  330YOPC   C1A 4087  14.019  16.111   9.820 -0.0948 -0.2388 -0.0537
  330YOPC   D2A 4088  13.873  16.235   9.420 -0.4504 -0.0167 -0.0056
  330YOPC   C3A 4089  14.044  16.326   9.068 -0.0162 -0.2832 -0.1480
  330YOPC   C4A 4090  14.073  16.084   8.654 -0.0165  0.0372 -0.1652
  330YOPC   C1B 4091  14.275  15.672   9.542  0.1120  0.1078  0.3135
  330YOPC   C2B 4092  14.183  15.849   9.150 -0.3337 -0.3855 -0.3212
  330YOPC   D3B 4093  14.438  15.722   8.763  0.3403 -0.0195 -0.0101
  330YOPC   C4B 4094  14.418  15.497   8.273 -0.1001 -0.0079 -0.1580
  331YOPC   NC3 4095   6.082   0.897  10.459 -0.1842  0.3118  0.0920
  331YOPC   PO4 4096   6.292   0.903  10.157  0.0347  0.1278  0.0753
  331YOPC   GL1 4097   6.407   0.737   9.736  0.0912 -0.0402 -0.0073
  331YOPC   GL2 4098   6.604   0.507   9.596  0.1200  0.0064 -0.2243
  331YOPC   C1A 4099   6.354   0.858   9.285 -0.0382  0.0258 -0.1861
  331YOPC   D2A 4100   6.083   0.913   8.943  0.1037 -0.1562 -0.0464
  331YOPC   C3A 4101   6.190   0.590   8.804  0.0582 -0.1154  0.0645
  331YOPC   C4A 4102   6.362   0.199   8.721  0.0336  0.4045 -0.1751
  331YOPC   C1B 4103   6.818   0.651   9.394 -0.2019 -0.2181  0.0140
  331YOPC   C2B 4104   7.092   0.787   9.046  0.1830 -0.0755  0.2876
  331YOPC   D3B 4105   7.072   0.941   8.603  0.1283 -0.1116 -0.0667
  331YOPC   C4B 4106   7.227   0.994   8.088 -0.1722 -0.0291 -0.4293
  332YOPC   NC3 4107  16.127   1.729  10.739 -0.2612 -0.0929  0.0322
  332YOPC   PO4 4108  15.697   1.942  10.698 -0.1600  0.2068  0.0542
  332YOPC   GL1 4109  15.989   2.102  10.335  0.0283  0.0738  0.0843
  332YOPC   GL2 4110  16.284   2.085  10.397 -0.0923 -0.3674 -0.0466
  332YOPC   C1A 4111  16.134   2.087   9.932  0.2039 -0.1504  0.0631
  332YOPC   D2A 4112  16.442   1.784   9.701  0.2177  0.0072  0.0880
  332YOPC   C3A 4113  16.791   1.988   9.500 -0.0387  0.1492 -0.2612
  332YOPC   C4A 4114  16.927   2.084   9.077 -0.2544  0.0367  0.1153
  332YOPC   C1B 4115  16.470   2.369  10.140 -0.1454 -0.0044 -0.1086
  332YOPC   C2B 4116  16.518   2.353   9.707  0.4918 -0.1931 -0.2794
  332YOPC   D3B 4117  16.283   2.167   9.450 -0.1697 -0.3223  0.2119
  332YOPC   C4B 4118  15.933   2.156   9.278  0.2758  0.0184  0.0418
  333YOPC   NC3 4119   1.636  17.886  10.644 -0.2902 -0.0226 -0.4739
  333YOPC   PO4 4120   1.870  18.098  10.873  0.0858  0.1078 -0.0079
  333YOPC   GL1 4121   1.971  18.320  10.478  0.0478  0.2682  0.0587
  333YOPC   GL2 4122   1.689  18.422  10.204 -0.0149  0.0711 -0.3379
  333YOPC   C1A 4123   2.253  18.362  10.039 -0.1303  0.1245  0.1464
  333YOPC   D2A 4124   2.125  18.400   9.532  0.1009  0.0637  0.2372
  333YOPC   C3A 4125   1.836  18.119   9.389 -0.0981  0.0914 -0.0427
  333YOPC   C4A 4126   1.738  18.058   9.023 -0.1053 -0.3240  0.0081
  333YOPC   C1B 4127   1.619  18.596   9.804 -0.2422 -0.2802 -0.1262
  333YOPC   C2B 4128   1.472  18.522   9.383  0.3505  0.0066 -0.2224
  333YOPC   D3B 4129   1.365  18.504   9.022  0.0453  0.0921  0.0704
  333YOPC   C4B 4130   1.540  18.408   8.659  0.2005 -0.2480  0.2817
  334YOPC   NC3 4131  13.711   1.947  10.356  0.4130  0.0685 -0.1095
  334YOPC   PO4 4132  14.180   1.784  10.298 -0.1426 -0.0756 -0.1164
  334YOPC   GL1 4133  14.027   1.778   9.939  0.2511  0.0298  0.1158
  334YOPC   GL2 4134  14.089   1.583   9.827  0.0061  0.2271 -0.0167
  334YOPC   C1A 4135  14.177   2.048   9.613  0.4624 -0.1793  0.2637
  334YOPC   D2A 4136  14.378   2.406   9.463  0.0117 -0.0581 -0.2375
  334YOPC   C3A 4137  14.397   2.609   9.099  0.0186 -0.0312  0.3204
  334YOPC   C4A 4138  14.179   2.493   8.663  0.1637 -0.2887  0.0942
  334YOPC   C1B 4139  14.180   1.578   9.393  0.3522  0.1403  0.1865
  334YOPC   C2B 4140  14.319   1.604   8.986 -0.1376  0.0665  0.1241
  334YOPC   D3B 4141  14.813   1.591   8.940 -0.2782 -0.1890  0.3499
  334YOPC   C4B 4142  15.101   1.326   9.179 -0.0085  0.0352 -0.0452
  335YOPC   NC3 4143   7.745  16.557  10.404  0.0288 -0.0022 -0.1265
  335YOPC   PO4 4144   8.172  16.344  10.461 -0.0166 -0.3633 -0.0958
  335YOPC   GL1 4145   8.122  16.567  10.090 -0.2051 -0.1988  0.0464
  335YOPC   GL2 4146   7.936  16.821  10.044 -0.1769  0.2572 -0.0542
  335YOPC   C1A 4147   8.114  16.412   9.658  0.2319  0.0019 -0.0758
  335YOPC   D2A 4148   7.810  16.504   9.307  0.1914 -0.2564 -0.0246
  335YOPC   C3A 4149   7.914  16.543   8.895  0.2381 -0.0407  0.3059
  335YOPC   C4A 4150   8.036  16.420   8.593 -0.1218  0.1505  0.1491
  335YOPC   C1B 4151   7.926  16.902   9.662  0.1917  0.1520  0.0429
  335YOPC   C2B 4152   7.843  17.027   9.279  0.3199  0.1765  0.1416
  335YOPC   D3B 4153   8.018  17.144   8.931  0.2598 -0.0238  0.0536
  335YOPC   C4B 4154   8.008  17.006   8.681  0.1439  0.1908  0.1601
  336YOPC   NC3 4155  10.828  13.042  10.324 -0.1479  0.1694 -0.0177
  336YOPC   PO4 4156  11.176  13.356  10.104  0.2511 -0.0403  0.0222
  336YOPC   GL1 4157  11.366  13.191   9.652 -0.3005 -0.0166  0.1335
  336YOPC   GL2 4158  11.654  13.243   9.535  0.0957  0.2101 -0.1601
  336YOPC   C1A 4159  11.154  13.044   9.286  0.2123 -0.0030  0.0734
  336YOPC   D2A 4160  11.225  13.035   8.880  0.2796  0.0624 -0.0598
  336YOPC   C3A 4161  11.044  12.947   8.519 -0.0338 -0.3278  0.0512
  336YOPC   C4A 4162  11.114  12.968   8.051 -0.1291 -0.0022 -0.2901
  336YOPC   C1B 4163  11.648  13.173   9.079  0.1979 -0.0106 -0.2980
  336YOPC   C2B 4164  11.703  13.145   8.662 -0.0871  0.2564  0.2254
  336YOPC   D3B 4165  11.817  13.535   8.394 -0.0847 -0.0291 -0.2182
  336YOPC   C4B 4166  11.647  13.878   8.107  0.2944 -0.2332  0.0094
  337YOPC   NC3 4167  11.626  13.091  10.085 -0.0422 -0.1880 -0.2567
  337YOPC   PO4 4168  12.025  13.306   9.926 -0.0518 -0.0439 -0.0314
  337YOPC   GL1 4169  12.145  13.448   9.632 -0.0299 -0.3045 -0.1833
  337YOPC   GL2 4170  12.127  13.318   9.394 -0.1048 -0.0314  0.0686
  337YOPC   C1A 4171  12.505  13.666   9.329  0.0413  0.0470 -0.0550
  337YOPC   D2A 4172  12.676  13.718   8.995 -0.0695  0.3150 -0.0823
  337YOPC   C3A 4173  13.085  13.895   8.970  0.0152 -0.0446  0.1453
  337YOPC   C4A 4174  13.249  14.259   9.240  0.1335 -0.3117  0.0734
  337YOPC   C1B 4175  12.188  13.467   9.057  0.2149 -0.0292 -0.0064
  337YOPC   C2B 4176  12.271  13.595   8.679  0.1424  0.1231 -0.0794
  337YOPC   D3B 4177  12.273  13.736   8.307  0.2513  0.0732 -0.0070
  337YOPC   C4B 4178  12.093  13.618   7.959  0.1043  0.1995 -0.0473
  338YOPC   NC3 4179   0.946   4.322  11.123 -0.0278 -0.1380 -0.1341
  338YOPC   PO4 4180   1.418   4.274  11.087 -0.3912  0.2919 -0.2269
  338YOPC   GL1 4181   1.300   4.325  10.701 -0.4688  0.1202 -0.1440
  338YOPC   GL2 4182   1.517   4.158  10.534 -0.4287  0.0860  0.2255
  338YOPC   C1A 4183   1.511   4.616  10.323  0.1510  0.1547 -0.2029
  338YOPC   D2A 4184   1.695   4.761   9.981  0.2174  0.2289 -0.0520
  338YOPC   C3A 4185   1.751   5.181  10.025 -0.4089 -0.2007  0.0172
  338YOPC   C4A 4186   1.954   5.544  10.223 -0.0073 -0.1733 -0.1935
  338YOPC   C1B 4187   1.565   4.213  10.074 -0.1442  0.0031 -0.0010
  338YOPC   C2B 4188   1.669   4.287   9.623 -0.0214  0.2205  0.0371
  338YOPC   D3B 4189   1.665   4.037   9.230  0.1746 -0.3252  0.2399
  338YOPC   C4B 4190   1.476   3.677   9.180  0.0172 -0.0405  0.1120
  339YOPC   NC3 4191  12.905   0.301  10.339 -0.1173 -0.0616  0.2531
  339YOPC   PO4 4192  12.790  -0.171  10.052 -0.1230  0.0700  0.0937
  339YOPC   GL1 4193  12.726   0.017   9.660  0.1053  0.1126 -0.4260
  339YOPC   GL2 4194  12.413   0.175   9.615 -0.0746  0.0304  0.1022
  339YOPC   C1A 4195  12.683  -0.073   9.219 -0.0176  0.3957 -0.0551
  339YOPC   D2A 4196  12.843   0.063   8.803  0.2177  0.1006 -0.0146
  339YOPC   C3A 4197  13.131  -0.163   8.440 -0.1665  0.0765 -0.1540
  339YOPC   C4A 4198  13.281  -0.518   8.308 -0.2797  0.1302 -0.1348
  339YOPC   C1B 4199  12.504   0.426   9.312 -0.1179 -0.2794  0.1383
  339YOPC   C2B 4200  12.615   0.479   8.852  0.1273 -0.0162  0.1433
  339YOPC   D3B 4201  13.029   0.661   8.644 -0.0072 -0.1196 -0.1298
  339YOPC   C4B 4202  13.172   0.775   8.276 -0.1241  0.1134 -0.2974
  340YOPC   NC3 4203   9.788   0.577  10.086 -0.0316 -0.1883  0.0848
  340YOPC   PO4 4204   9.926   0.960  10.078 -0.0420 -0.3036  0.0343
  340YOPC   GL1 4205   9.835   0.988   9.651  0.0679  0.0538  0.0382
  340YOPC   GL2 4206   9.655   0.751   9.604  0.2298  0.0030  0.0001
  340YOPC   C1A 4207   9.994   1.214   9.317  0.1653 -0.0686 -0.1778
  340YOPC   D2A 4208   9.984   1.167   8.874 -0.0453  0.0215  0.2491
  340YOPC   C3A 4209  10.054   1.095   8.419  0.0396 -0.2484  0.2618
  340YOPC   C4A 4210   9.986   0.853   8.169 -0.1644 -0.1073  0.0019
  340YOPC   C1B 4211   9.756   0.688   9.079 -0.0791 -0.0944 -0.0171
  340YOPC   C2B 4212   9.879   0.670   8.693 -0.0941 -0.5887 -0.1059
  340YOPC   D3B 4213   9.624   0.502   8.340  0.0497 -0.0319 -0.0820
  340YOPC   C4B 4214   9.630   0.135   8.154 -0.0830 -0.0134 -0.1195
  341YOPC   NC3 4215   0.917  12.664   9.985 -0.2755  0.1271  0.0001
  341YOPC   PO4 4216   0.983  13.061   9.990  0.2193 -0.0518 -0.0233
  341YOPC   GL1 4217   1.095  13.125   9.578 -0.1487 -0.1700 -0.2345
  341YOPC   GL2 4218   0.867  12.873   9.518  0.3092 -0.0337  0.0146
  341YOPC   C1A 4219   1.170  13.327   9.182 -0.1098  0.1309  0.0557
  341YOPC   D2A 4220   1.373  13.375   8.717  0.1798  0.1286  0.0034
  341YOPC   C3A 4221   1.481  13.642   8.366  0.3156  0.0715 -0.1279
  341YOPC   C4A 4222   1.786  13.617   8.099  0.0891  0.3155 -0.0918
  341YOPC   C1B 4223   0.772  13.027   9.019 -0.0639 -0.0478 -0.2849
  341YOPC   C2B 4224   0.883  13.358   8.734 -0.2050 -0.0916 -0.1093
  341YOPC   D3B 4225   1.058  13.245   8.329 -0.1570 -0.0104  0.1907
  341YOPC   C4B 4226   1.263  13.367   8.012  0.1611 -0.0405  0.3392
  342YOPC   NC3 4227  13.668  15.676  10.212  0.3478 -0.1803  0.1913
  342YOPC   PO4 4228  13.542  15.241  10.130  0.0974  0.3433  0.1440
  342YOPC   GL1 4229  13.841  15.268   9.835 -0.0960  0.2663  0.0541
  342YOPC   GL2 4230  13.767  15.600   9.718  0.2218 -0.0079 -0.0857
  342YOPC   C1A 4231  13.907  15.233   9.357  0.1362  0.0815 -0.0922
  342YOPC   D2A 4232  14.104  15.333   8.983 -0.0569  0.0677 -0.1286
  342YOPC   C3A 4233  14.048  15.423   8.569  0.1099 -0.4785 -0.2063
  342YOPC   C4A 4234  13.955  15.736   8.323 -0.0445  0.1240  0.0050
  342YOPC   C1B 4235  13.652  15.679   9.343 -0.1808 -0.3704  0.2082
  342YOPC   C2B 4236  13.790  15.691   8.886  0.2246 -0.2638 -0.2356
  342YOPC   D3B 4237  13.570  15.920   8.689  0.0756 -0.1253 -0.0276
  342YOPC   C4B 4238  13.665  16.288   8.508  0.1119 -0.0530  0.0972
  343YOPC   NC3 4239  16.585   5.644  10.784  0.2996  0.1119  0.2228
  343YOPC   PO4 4240  16.251   5.427  10.612  0.0165  0.0006  0.3566
  343YOPC   GL1 4241  16.408   5.090  10.295  0.1352 -0.1489 -0.0157
  343YOPC   GL2 4242  16.446   5.234  10.064 -0.1240  0.0918 -0.1655
  343YOPC   C1A 4243  16.300   4.732   9.906 -0.2912 -0.0307  0.2224
  343YOPC   D2A 4244  16.512   4.465   9.606  0.1673  0.0242  0.0193
  343YOPC   C3A 4245  16.932   4.305   9.758  0.0831  0.0266  0.3119
  343YOPC   C4A 4246  17.423   4.230   9.755 -0.1524 -0.0199 -0.0030
  343YOPC   C1B 4247  16.322   5.220   9.628 -0.0084 -0.1950 -0.3022
  343YOPC   C2B 4248  16.143   5.198   9.192 -0.1044  0.0125 -0.2332
  343YOPC   D3B 4249  16.250   5.564   9.079 -0.0098 -0.0375 -0.1137
  343YOPC   C4B 4250  16.029   5.866   9.192  0.1496 -0.1251  0.1696
  344YOPC   NC3 4251  12.397  12.943  10.176  0.0124  0.1373  0.0111
  344YOPC   PO4 4252  12.485  12.567  10.170 -0.1868  0.1285 -0.2121
  344YOPC   GL1 4253  12.649  12.501   9.790  0.0084  0.2730 -0.3406
  344YOPC   GL2 4254  12.969  12.675   9.684  0.1136  0.3118  0.1215
  344YOPC   C1A 4255  12.816  12.453   9.282 -0.2656 -0.2045 -0.3452
  344YOPC   D2A 4256  12.917  12.273   8.830  0.2425 -0.4422  0.0448
  344YOPC   C3A 4257  13.180  12.348   8.464  0.1080  0.0437  0.1408
  344YOPC   C4A 4258  13.330  11.978   8.219 -0.0370 -0.0791  0.1245
  344YOPC   C1B 4259  13.085  12.950   9.297  0.1127  0.1740 -0.1903
  344YOPC   C2B 4260  13.035  12.771   8.909  0.0186 -0.0838 -0.2955
  344YOPC   D3B 4261  13.104  13.029   8.639  0.4589 -0.2408 -0.2761
  344YOPC   C4B 4262  13.484  13.245   8.413  0.1864 -0.0319 -0.2021
  345YOPC   NC3 4263  11.819   9.244  10.336  0.0313 -0.0465  0.2339
  345YOPC   PO4 4264  12.184   9.353  10.233 -0.0087  0.1040 -0.2047
  345YOPC   GL1 4265  12.288   9.225   9.824  0.0564 -0.0038 -0.0359
  345YOPC   GL2 4266  11.857   9.101   9.799  0.3660  0.2758  0.1723
  345YOPC   C1A 4267  12.298   9.364   9.351  0.0436 -0.2007 -0.3388
  345YOPC   D2A 4268  12.230   9.468   9.000 -0.0544 -0.1101  0.0587
  345YOPC   C3A 4269  12.518   9.199   8.684  0.1258 -0.2119 -0.1205
  345YOPC   C4A 4270  12.388   9.045   8.346 -0.1732  0.0008  0.0352
  345YOPC   C1B 4271  12.109   8.858   9.500  0.0176  0.0126 -0.2696
  345YOPC   C2B 4272  12.100   8.948   9.140 -0.1299 -0.1124  0.2181
  345YOPC   D3B 4273  12.321   8.757   8.809  0.0923  0.0573  0.0120
  345YOPC   C4B 4274  12.491   8.570   8.542 -0.2081 -0.0052  0.0466
  346YOPC   NC3 4275   4.005   6.183  10.364  0.2312  0.1875 -0.2279
  346YOPC   PO4 4276   4.323   6.487  10.557  0.1328  0.0724  0.0176
  346YOPC   GL1 4277   4.367   6.498  10.151 -0.1969  0.2144 -0.1438
  346YOPC   GL2 4278   4.337   6.089  10.040 -0.0996 -0.1630 -0.1844
  346YOPC   C1A 4279   4.173   6.520   9.737  0.0503 -0.4575  0.2904
  346YOPC   D2A 4280   4.003   6.671   9.356 -0.1512 -0.4216 -0.1023
  346YOPC   C3A 4281   3.972   6.524   8.971 -0.1955  0.0794  0.0758
  346YOPC   C4A 4282   3.880   6.215   8.692 -0.2234  0.1890 -0.0252
  346YOPC   C1B 4283   4.311   6.020   9.543  0.0184  0.0736  0.0394
  346YOPC   C2B 4284   4.026   6.158   9.300 -0.1509 -0.1078  0.0669
  346YOPC   D3B 4285   3.944   5.873   9.040 -0.0790 -0.0506 -0.1470
  346YOPC   C4B 4286   3.598   5.807   8.845 -0.0546 -0.3397 -0.0607
  347YOPC   NC3 4287   2.900   2.958  10.455 -0.1691  0.0252 -0.2600
  347YOPC   PO4 4288   2.570   3.184  10.631 -0.0873 -0.1201  0.3508
  347YOPC   GL1 4289   2.794   3.417  10.278 -0.1368  0.0172 -0.0962
  347YOPC   GL2 4290   3.107   3.314  10.093  0.1106 -0.0968  0.0575
  347YOPC   C1A 4291   2.798   3.607   9.828  0.0237  0.2128 -0.0511
  347YOPC   D2A 4292   2.331   3.598   9.607  0.1328  0.1472 -0.0075
  347YOPC   C3A 4293   2.269   3.196   9.375  0.1216 -0.4670 -0.0511
  347YOPC   C4A 4294   2.246   3.030   8.941 -0.1457  0.2381 -0.1049
  347YOPC   C1B 4295   3.264   3.432   9.804  0.1697  0.0812  0.0857
  347YOPC   C2B 4296   3.215   3.433   9.431  0.0625  0.1663 -0.0779
  347YOPC   D3B 4297   3.437   3.635   9.197  0.0611 -0.2943  0.1597
  347YOPC   C4B 4298   3.377   4.073   8.963  0.0116 -0.0814 -0.1139
  348YOPC   NC3 4299   6.304   5.602  10.237 -0.0893  0.1031 -0.2755
  348YOPC   PO4 4300   6.618   5.343  10.397 -0.1428  0.2817  0.1036
  348YOPC   GL1 4301   6.504   5.301   9.908 -0.1742  0.0445  0.0411
  348YOPC   GL2 4302   6.791   5.557   9.951  0.0830 -0.2032 -0.1494
  348YOPC   C1A 4303   6.342   5.510   9.582  0.0197 -0.1141 -0.0511
  348YOPC   D2A 4304   6.231   5.373   9.183  0.1257  0.0371  0.1602
  348YOPC   C3A 4305   6.334   5.312   8.713 -0.0616  0.0992 -0.2203
  348YOPC   C4A 4306   6.191   5.271   8.284  0.0875  0.0874 -0.0929
  348YOPC   C1B 4307   6.907   5.638   9.526  0.2252 -0.1155  0.1651
  348YOPC   C2B 4308   6.989   5.881   9.144  0.3869 -0.2829 -0.0133
  348YOPC   D3B 4309   7.367   5.999   9.321  0.1637  0.1570 -0.1677
  348YOPC   C4B 4310   7.680   6.366   9.459 -0.0406 -0.1372 -0.1423
  349YOPC   NC3 4311   5.849   6.447  10.408 -0.0485 -0.3067  0.1282
  349YOPC   PO4 4312   5.942   6.821  10.511  0.0350  0.1415 -0.1986
  349YOPC   GL1 4313   5.884   6.816  10.099  0.0855 -0.0719  0.0018
  349YOPC   GL2 4314   5.835   7.117   9.845 -0.1258  0.1741  0.0524
  349YOPC   C1A 4315   5.641   6.673   9.686 -0.4106 -0.1865  0.0335
  349YOPC   D2A 4316   5.666   6.496   9.316 -0.2896  0.0205 -0.1478
  349YOPC   C3A 4317   5.513   6.333   9.097  0.0895 -0.0736 -0.0532
  349YOPC   C4A 4318   5.621   6.114   8.703 -0.0460  0.0243 -0.1676
  349YOPC   C1B 4319   5.970   6.962   9.379 -0.0128 -0.2567 -0.2007
  349YOPC   C2B 4320   6.025   7.146   8.951  0.1483 -0.1989 -0.0933
  349YOPC   D3B 4321   6.029   7.016   8.477  0.0991  0.0477 -0.1668
  349YOPC   C4B 4322   5.853   6.638   8.351  0.2564 -0.0936  0.0481
  350YOPC   NC3 4323   8.891  10.558  10.214 -0.1294  0.0792  0.2461
  350YOPC   PO4 4324   8.682  10.992  10.169 -0.0447 -0.0717 -0.2986
  350YOPC   GL1 4325   8.695  10.902   9.737  0.0581 -0.3896 -0.2977
  350YOPC   GL2 4326   8.917  10.621   9.707  0.0333  0.0169 -0.1085
  350YOPC   C1A 4327   8.746  10.887   9.282 -0.2727 -0.2397 -0.2514
  350YOPC   D2A 4328   9.270  10.832   9.171 -0.1750 -0.0537  0.2448
  350YOPC   C3A 4329   9.658  11.124   9.319 -0.0055 -0.1722  0.1314
  350YOPC   C4A 4330   9.636  11.523   9.319 -0.0760  0.2302 -0.0091
  350YOPC   C1B 4331   8.951  10.433   9.318  0.0101  0.0808 -0.1229
  350YOPC   C2B 4332   9.263  10.235   9.120  0.0229  0.0847 -0.0580
  350YOPC   D3B 4333   9.173   9.977   8.745  0.0128  0.0248 -0.1847
  350YOPC   C4B 4334   8.854   9.805   8.583  0.1402  0.0719  0.1979
  351YOPC   NC3 4335  15.980  11.810  10.622  0.0372 -0.0195  0.0980
  351YOPC   PO4 4336  15.762  11.536  10.367 -0.2012  0.1126  0.2304
  351YOPC   GL1 4337  15.651  11.555   9.989  0.1747 -0.0818  0.1054
  351YOPC   GL2 4338  15.928  11.559   9.836  0.0537  0.1177  0.0279
  351YOPC   C1A 4339  15.537  11.333   9.634 -0.0715  0.0251 -0.0312
  351YOPC   D2A 4340  15.493  11.240   9.229  0.0505  0.0622  0.1511
  351YOPC   C3A 4341  15.685  11.232   8.900  0.1248  0.1132 -0.1137
  351YOPC   C4A 4342  15.645  11.244   8.410 -0.2646  0.0873 -0.1133
  351YOPC   C1B 4343  15.872  11.611   9.331  0.0957  0.2914 -0.0062
  351YOPC   C2B 4344  16.087  11.569   8.948  0.3818 -0.2352 -0.1509
  351YOPC   D3B 4345  15.996  11.691   8.588  0.1118  0.2879 -0.0900
  351YOPC   C4B 4346  15.675  11.804   8.244  0.0256 -0.0852  0.0832
  352YOPC   NC3 4347  14.690   9.014  10.516 -0.3172  0.3452 -0.0846
  352YOPC   PO4 4348  14.354   8.766  10.478 -0.1702  0.2774  0.1602
  352YOPC   GL1 4349  14.353   8.896  10.135 -0.1357 -0.0688 -0.0688
  352YOPC   GL2 4350  14.558   8.811   9.979  0.2356  0.2504 -0.0168
  352YOPC   C1A 4351  14.072   9.057   9.859  0.1459  0.1718  0.0876
  352YOPC   D2A 4352  13.819   9.260   9.607 -0.3312 -0.0217 -0.2151
  352YOPC   C3A 4353  13.597   9.157   9.290 -0.1916  0.2319 -0.0240
  352YOPC   C4A 4354  13.667   9.165   8.841 -0.0723 -0.0785  0.1191
  352YOPC   C1B 4355  14.730   8.755   9.486 -0.0763  0.0202  0.0431
  352YOPC   C2B 4356  14.994   8.705   9.105  0.0015 -0.2677 -0.2412
  352YOPC   D3B 4357  15.064   8.457   8.784  0.0418  0.0165 -0.3252
  352YOPC   C4B 4358  15.453   8.186   8.783 -0.0948 -0.1116 -0.1107
  353YOPC   NC3 4359  11.489  16.031  10.250 -0.0123  0.0773 -0.1105
  353YOPC   PO4 4360  11.440  15.613  10.141  0.0402 -0.0101  0.1660
  353YOPC   GL1 4361  11.462  15.511   9.802  0.2693 -0.0025  0.0108
  353YOPC   GL2 4362  11.306  15.266   9.765  0.3922  0.1086 -0.1482
  353YOPC   C1A 4363  11.619  15.668   9.485 -0.0761 -0.0438  0.4047
  353YOPC   D2A 4364  12.080  15.684   9.413  0.3436  0.1334  0.2936
  353YOPC   C3A 4365  12.336  15.687   9.006  0.0330 -0.2538 -0.0569
  353YOPC   C4A 4366  12.634  15.967   8.906 -0.0360 -0.0048  0.3310
  353YOPC   C1B 4367  11.242  15.182   9.287 -0.1431  0.2555  0.1944
  353YOPC   C2B 4368  11.199  15.043   8.869 -0.0026 -0.1917  0.1798
  353YOPC   D3B 4369  10.949  15.204   8.503  0.0685  0.0796  0.1087
  353YOPC   C4B 4370  10.743  15.075   8.198  0.0024 -0.2048 -0.0494
  354YOPC   NC3 4371   0.605  14.020  10.862 -0.0471  0.1252  0.1950
  354YOPC   PO4 4372   0.352  14.089  10.470  0.0053  0.1489  0.0640
  354YOPC   GL1 4373   0.491  14.074  10.001 -0.1820 -0.0521  0.3667
  354YOPC   GL2 4374   0.384  13.749   9.733  0.1270  0.2726  0.0455
  354YOPC   C1A 4375   0.627  14.167   9.568  0.4375 -0.3895  0.0760
  354YOPC   D2A 4376   0.907  14.510   9.483  0.0807 -0.1228  0.0057
  354YOPC   C3A 4377   1.023  14.689   9.164 -0.3895  0.1334 -0.0554
  354YOPC   C4A 4378   1.267  14.678   8.762 -0.1251 -0.3181 -0.0321
  354YOPC   C1B 4379   0.234  13.550   9.350 -0.0461  0.0349  0.1306
  354YOPC   C2B 4380   0.126  13.555   8.838  0.0286 -0.1726  0.0464
  354YOPC   D3B 4381   0.385  13.270   8.616  0.1032 -0.1843 -0.0211
  354YOPC   C4B 4382   0.622  13.399   8.265  0.2114 -0.1023 -0.1684
  355YOPC   NC3 4383   3.895   7.483  10.299  0.0242 -0.1980  0.1804
  355YOPC   PO4 4384   3.881   7.910  10.119 -0.0958  0.0466  0.0550
  355YOPC   GL1 4385   3.502   7.909  10.037  0.2291  0.2113  0.1050
  355YOPC   GL2 4386   3.406   8.168   9.875  0.2105  0.0729  0.0385
  355YOPC   C1A 4387   3.156   7.680   9.753  0.3939 -0.1209 -0.3535
  355YOPC   D2A 4388   2.896   7.656   9.477 -0.1538  0.0545  0.0119
  355YOPC   C3A 4389   3.069   7.807   9.033  0.1634 -0.2386  0.1440
  355YOPC   C4A 4390   3.201   7.725   8.610 -0.0868 -0.1076 -0.1636
  355YOPC   C1B 4391   3.292   8.041   9.449  0.1523 -0.0630  0.2162
  355YOPC   C2B 4392   3.179   8.326   9.115  0.0631  0.1463  0.0498
  355YOPC   D3B 4393   2.953   8.222   8.775 -0.2203  0.1124 -0.1113
  355YOPC   C4B 4394   2.676   7.865   8.679  0.0996  0.0932  0.1551
  356YOPC   NC3 4395   9.556   5.995  10.349  0.3119 -0.2398  0.1076
  356YOPC   PO4 4396   9.764   6.409  10.265  0.0980 -0.3434 -0.0667
  356YOPC   GL1 4397   9.712   6.443   9.891 -0.1902  0.0293  0.2658
  356YOPC   GL2 4398   9.525   6.602   9.749 -0.0030 -0.1505  0.0355
  356YOPC   C1A 4399   9.847   6.467   9.398  0.0989 -0.0087 -0.0876
  356YOPC   D2A 4400   9.706   6.482   8.961  0.3811 -0.2083  0.3960
  356YOPC   C3A 4401   9.561   6.787   8.712  0.1320 -0.0785  0.1779
  356YOPC   C4A 4402   9.541   7.022   8.351 -0.0303 -0.3301 -0.2916
  356YOPC   C1B 4403   9.228   6.430   9.591 -0.1136 -0.1999 -0.1234
  356YOPC   C2B 4404   9.198   6.556   9.066  0.1795 -0.1712  0.2797
  356YOPC   D3B 4405   9.244   6.355   8.686  0.0321  0.0386  0.1390
  356YOPC   C4B 4406   8.989   6.348   8.299 -0.0155  0.0558  0.0577
  357YOPC   NC3 4407  13.796   0.496  10.142  0.1796  0.4181  0.1538
  357YOPC   PO4 4408  13.474   0.180  10.303  0.0043 -0.0747  0.2040
  357YOPC   GL1 4409  13.357   0.035   9.979 -0.2072  0.1903  0.1949
  357YOPC   GL2 4410  13.153   0.274   9.857  0.0732  0.3528  0.0144
  357YOPC   C1A 4411  13.487   0.016   9.566 -0.2414  0.2240 -0.1012
  357YOPC   D2A 4412  13.621  -0.050   9.063  0.0481  0.1938 -0.1049
  357YOPC   C3A 4413  13.613  -0.230   8.614 -0.2711  0.0836  0.1300
  357YOPC   C4A 4414  13.678  -0.249   8.241 -0.0368 -0.0635  0.1061
  357YOPC   C1B 4415  13.442   0.562   9.588 -0.1908  0.2415 -0.3149
  357YOPC   C2B 4416  13.752   0.779   9.447 -0.1740  0.0535 -0.0555
  357YOPC   D3B 4417  14.040   1.051   9.644  0.0975 -0.2449  0.1519
  357YOPC   C4B 4418  14.488   1.068   9.767 -0.1096 -0.0548 -0.0241
  358YOPC   NC3 4419   1.649  11.035  10.534 -0.1086  0.0655  0.0050
  358YOPC   PO4 4420   1.521  10.634  10.337  0.0378  0.0280 -0.0572
  358YOPC   GL1 4421   1.304  10.588   9.978 -0.2400 -0.1690 -0.0233
  358YOPC   GL2 4422   1.012  10.442   9.936  0.2203 -0.1101  0.3326
  358YOPC   C1A 4423   1.276  10.512   9.440 -0.3053 -0.1215 -0.0308
  358YOPC   D2A 4424   1.306  10.293   8.958 -0.0259  0.0762 -0.0066
  358YOPC   C3A 4425   1.252  10.453   8.563 -0.1529 -0.0703  0.1340
  358YOPC   C4A 4426   1.436  10.390   8.231  0.0474  0.0036  0.1547
  358YOPC   C1B 4427   1.033  10.127   9.684 -0.1550 -0.0532 -0.0304
  358YOPC   C2B 4428   1.243   9.898   9.329 -0.0614  0.0010  0.4104
  358YOPC   D3B 4429   1.073   9.841   8.887  0.0479  0.0178  0.1971
  358YOPC   C4B 4430   1.014   9.652   8.581  0.0515 -0.1714  0.2520
  359YOPC   NC3 4431   1.575   5.002  11.688 -0.2081 -0.0922 -0.0054
  359YOPC   PO4 4432   1.483   5.158  11.248 -0.2200 -0.2438 -0.2435
  359YOPC   GL1 4433   1.586   5.262  10.851 -0.0286 -0.1927  0.0843
  359YOPC   GL2 4434   1.881   5.407  10.727  0.0309 -0.1091  0.1084
  359YOPC   C1A 4435   1.455   5.331  10.419 -0.0830  0.1136 -0.2714
  359YOPC   D2A 4436   1.083   5.489  10.212 -0.0976  0.0486 -0.0521
  359YOPC   C3A 4437   1.114   5.501   9.704 -0.0662  0.2998  0.0038
  359YOPC   C4A 4438   1.312   5.358   9.266 -0.2030  0.1205  0.1784
  359YOPC   C1B 4439   1.804   4.957  10.518  0.2205  0.0868 -0.0206
  359YOPC   C2B 4440   2.017   4.571  10.386 -0.1284 -0.0938  0.0992
  359YOPC   D3B 4441   2.264   4.543   9.947 -0.1831 -0.2256  0.3561
  359YOPC   C4B 4442   2.070   4.637   9.591 -0.0921 -0.0265 -0.1937
  360YOPC   NC3 4443   3.043   1.327  10.738 -0.0389 -0.1910  0.0341
  360YOPC   PO4 4444   2.829   0.896  10.848 -0.2228 -0.0732 -0.0571
  360YOPC   GL1 4445   2.708   0.948  10.480  0.2832 -0.0246 -0.0056
  360YOPC   GL2 4446   2.661   0.661  10.260  0.2046  0.0538  0.0621
  360YOPC   C1A 4447   2.609   1.343  10.188  0.0726  0.0018  0.1696
  360YOPC   D2A 4448   2.610   1.874  10.169  0.0289  0.1975  0.0181
  360YOPC   C3A 4449   2.544   2.170   9.715  0.1586 -0.1586  0.0637
  360YOPC   C4A 4450   2.478   2.085   9.240  0.2184  0.0735 -0.1937
  360YOPC   C1B 4451   2.699   0.908   9.985  0.0079 -0.2362  0.2009
  360YOPC   C2B 4452   2.737   1.180   9.638 -0.1898 -0.0499  0.2824
  360YOPC   D3B 4453   2.694   1.021   9.217  0.1806 -0.0716 -0.1583
  360YOPC   C4B 4454   2.506   0.755   8.918 -0.1525  0.0642  0.0769
  361YOPC   NC3 4455  10.406  10.917  10.311  0.3273  0.3966 -0.2118
  361YOPC   PO4 4456  10.858  10.739  10.157  0.0018  0.0031  0.1245
  361YOPC   GL1 4457  10.561  10.573   9.926 -0.4439  0.2681  0.1193
  361YOPC   GL2 4458  10.430  10.904   9.822  0.0077  0.0099  0.0165
  361YOPC   C1A 4459  10.608  10.264   9.525  0.2707  0.0342 -0.0748
  361YOPC   D2A 4460  10.447  10.351   9.097 -0.3052 -0.3338 -0.1130
  361YOPC   C3A 4461  10.018  10.183   9.011  0.1245 -0.0761 -0.2063
  361YOPC   C4A 4462   9.683  10.289   8.833  0.0643  0.0638 -0.2471
  361YOPC   C1B 4463  10.468  10.816   9.335 -0.2521 -0.1377  0.0220
  361YOPC   C2B 4464  10.415  10.815   8.900 -0.0214 -0.2837 -0.0168
  361YOPC   D3B 4465  10.209  10.472   8.683  0.0109  0.2031 -0.2187
  361YOPC   C4B 4466  10.228  10.465   8.307 -0.1604  0.1764  0.2587
  362YOPC   NC3 4467   7.718   2.681  10.046 -0.1793  0.2056 -0.2469
  362YOPC   PO4 4468   7.713   2.193  10.137  0.0985  0.0144 -0.2644
  362YOPC   GL1 4469   7.604   2.086   9.766  0.0109 -0.0692  0.1042
  362YOPC   GL2 4470   7.659   1.730   9.637  0.0041 -0.1157 -0.0707
  362YOPC   C1A 4471   7.656   2.251   9.366 -0.1535 -0.1029 -0.0097
  362YOPC   D2A 4472   7.652   2.214   8.908  0.0012  0.0868 -0.2384
  362YOPC   C3A 4473   7.431   2.143   8.636  0.2406 -0.0012  0.1102
  362YOPC   C4A 4474   7.279   2.141   8.255  0.1186  0.1448 -0.0930
  362YOPC   C1B 4475   7.821   1.786   9.181  0.0503  0.0131  0.0779
  362YOPC   C2B 4476   8.123   1.679   9.069  0.0336  0.0087  0.1933
  362YOPC   D3B 4477   8.118   1.667   8.607 -0.0100  0.2105 -0.0803
  362YOPC   C4B 4478   8.116   1.621   8.261  0.3195  0.0669  0.3687
  363YOPC   NC3 4479  12.156  14.212  10.131 -0.0943 -0.0233 -0.1115
  363YOPC   PO4 4480  12.232  14.652  10.301  0.0263  0.2278 -0.0354
  363YOPC   GL1 4481  12.372  14.735   9.870 -0.1052  0.0136 -0.1489
  363YOPC   GL2 4482  12.088  14.847   9.602  0.2910 -0.0315  0.0396
  363YOPC   C1A 4483  12.539  14.816   9.447 -0.1002  0.0418  0.1290
  363YOPC   D2A 4484  12.403  14.681   9.051  0.0175  0.0241  0.4176
  363YOPC   C3A 4485  12.549  14.787   8.631 -0.2096  0.1167  0.1244
  363YOPC   C4A 4486  12.451  15.061   8.282 -0.1534 -0.1891 -0.0909
  363YOPC   C1B 4487  11.945  14.749   9.248  0.0965  0.0952 -0.1195
  363YOPC   C2B 4488  11.904  14.374   9.065 -0.0662 -0.0836 -0.2386
  363YOPC   D3B 4489  12.074  14.512   8.680  0.1991  0.2326  0.2998
  363YOPC   C4B 4490  12.040  14.807   8.319  0.0884 -0.0236 -0.0036
  364YOPC   NC3 4491  15.984  17.946  10.737 -0.2693 -0.2370  0.3084
  364YOPC   PO4 4492  15.851  17.671  10.889 -0.4918 -0.2828 -0.1297
  364YOPC   GL1 4493  15.799  17.637  10.386 -0.2921 -0.1506 -0.1990
  364YOPC   GL2 4494  16.007  17.425  10.250  0.1374 -0.2527 -0.0133
  364YOPC   C1A 4495  15.582  17.674   9.926 -0.1613 -0.1682 -0.2685
  364YOPC   D2A 4496  15.791  18.010   9.655  0.0569 -0.0169  0.1295
  364YOPC   C3A 4497  15.750  18.047   9.161  0.0735  0.0564 -0.1474
  364YOPC   C4A 4498  15.540  18.389   8.896 -0.1066 -0.0814 -0.0535
  364YOPC   C1B 4499  16.267  17.263   9.915  0.3090 -0.1513  0.1630
  364YOPC   C2B 4500  16.567  17.266   9.664  0.0420 -0.1613 -0.1194
  364YOPC   D3B 4501  16.464  17.334   9.249 -0.2049  0.2001  0.2256
  364YOPC   C4B 4502  16.506  17.442   8.857 -0.1645 -0.2380 -0.1030
  365YOPC   NC3 4503  14.973   8.045  10.702  0.2051 -0.1143 -0.1294
  365YOPC   PO4 4504  15.354   8.207  10.699  0.0110 -0.0183  0.0794
  365YOPC   GL1 4505  15.198   8.401  10.357  0.3413  0.2168 -0.1025
  365YOPC   GL2 4506  14.993   8.624  10.271  0.4513 -0.1930  0.0753
  365YOPC   C1A 4507  15.368   8.310   9.946  0.0008  0.1619  0.0581
  365YOPC   D2A 4508  15.778   8.381   9.791  0.2770 -0.3115  0.1521
  365YOPC   C3A 4509  15.956   8.097   9.608 -0.1589  0.0746  0.2179
  365YOPC   C4A 4510  16.107   7.787   9.374 -0.2252  0.1715  0.2407
  365YOPC   C1B 4511  14.804   8.419   9.917 -0.2907  0.1969 -0.0341
  365YOPC   C2B 4512  15.047   8.373   9.535  0.0676 -0.1456  0.1917
  365YOPC   D3B 4513  15.426   8.181   9.398  0.1514 -0.0107  0.0049
  365YOPC   C4B 4514  15.646   8.188   9.219  0.0167  0.1617 -0.2363
  366YOPC   NC3 4515   2.005  12.134  10.039 -0.1409  0.0338  0.1952
  366YOPC   PO4 4516   1.779  11.825   9.918 -0.1022  0.2849 -0.0818
  366YOPC   GL1 4517   1.820  12.069   9.570 -0.3223  0.3603 -0.0037
  366YOPC   GL2 4518   2.141  12.223   9.551  0.0650  0.2794 -0.0203
  366YOPC   C1A 4519   1.762  11.977   9.158 -0.0265  0.0866  0.1971
  366YOPC   D2A 4520   1.587  11.842   8.788 -0.0930  0.1945 -0.2822
  366YOPC   C3A 4521   1.764  12.109   8.441  0.0644  0.1486  0.0212
  366YOPC   C4A 4522   2.055  11.977   8.188  0.0050 -0.0025  0.2698
  366YOPC   C1B 4523   2.297  12.028   9.152  0.1267 -0.1982 -0.0448
  366YOPC   C2B 4524   2.138  11.903   8.728  0.4118  0.2132  0.2492
  366YOPC   D3B 4525   1.994  11.561   8.474  0.0572 -0.2685 -0.0593
  366YOPC   C4B 4526   2.147  11.495   8.036  0.1843 -0.0880 -0.1489
  367YOPC   NC3 4527   7.992   4.607   9.984 -0.0665 -0.0359  0.0487
  367YOPC   PO4 4528   7.656   4.925   9.957  0.1923 -0.1346  0.2533
  367YOPC   GL1 4529   7.636   4.601   9.543  0.2627 -0.4679 -0.0145
  367YOPC   GL2 4530   7.620   4.287   9.560 -0.1355  0.0509 -0.2604
  367YOPC   C1A 4531   7.915   4.608   9.144  0.3197  0.2158 -0.0469
  367YOPC   D2A 4532   7.802   4.640   8.811 -0.2564 -0.3182 -0.1520
  367YOPC   C3A 4533   7.910   5.027   8.575 -0.2208  0.0083 -0.1830
  367YOPC   C4A 4534   7.677   5.372   8.447  0.3681  0.1259  0.1821
  367YOPC   C1B 4535   7.519   4.303   9.208 -0.1226  0.0196  0.0286
  367YOPC   C2B 4536   7.683   4.156   8.886 -0.2060 -0.0298  0.0021
  367YOPC   D3B 4537   7.451   4.285   8.587  0.3590 -0.2071 -0.0616
  367YOPC   C4B 4538   7.308   4.486   8.229  0.0773  0.1314 -0.1016
  368YOPC   NC3 4539   5.477  12.838  10.628 -0.2324  0.0604 -0.2579
  368YOPC   PO4 4540   5.671  12.476  10.329  0.2547  0.1319  0.0385
  368YOPC   GL1 4541   5.613  12.481   9.849  0.0246 -0.1393 -0.0811
  368YOPC   GL2 4542   5.399  12.420   9.600 -0.1798  0.1347  0.3747
  368YOPC   C1A 4543   5.868  12.512   9.473  0.2026 -0.1887 -0.1716
  368YOPC   D2A 4544   6.075  12.610   9.063  0.0550  0.3167  0.1115
  368YOPC   C3A 4545   5.795  12.582   8.686  0.0514 -0.0862 -0.1594
  368YOPC   C4A 4546   5.459  12.712   8.381  0.0358 -0.1177  0.2473
  368YOPC   C1B 4547   5.423  12.167   9.250 -0.0331  0.4191 -0.2713
  368YOPC   C2B 4548   5.749  12.177   8.982  0.1158  0.1436  0.0532
  368YOPC   D3B 4549   5.921  11.944   8.571 -0.1325  0.1767  0.1567
  368YOPC   C4B 4550   5.661  12.091   8.229  0.4061 -0.0793 -0.0792
  369YOPC   NC3 4551   4.903   1.260  10.325  0.0670 -0.2360 -0.0389
  369YOPC   PO4 4552   4.543   1.297  10.240  0.2112 -0.0885 -0.0554
  369YOPC   GL1 4553   4.596   1.348   9.836 -0.0956 -0.0830 -0.0786
  369YOPC   GL2 4554   4.895   1.304   9.816  0.1329  0.0203  0.3786
  369YOPC   C1A 4555   4.511   1.342   9.372 -0.1762  0.0685 -0.1599
  369YOPC   D2A 4556   4.661   1.276   8.907  0.0088 -0.1193 -0.2368
  369YOPC   C3A 4557   4.419   1.106   8.500 -0.1608 -0.0035 -0.2400
  369YOPC   C4A 4558   4.243   0.794   8.357 -0.1004 -0.0669  0.0022
  369YOPC   C1B 4559   4.849   1.707   9.490 -0.1504 -0.2801 -0.0589
  369YOPC   C2B 4560   4.576   2.069   9.201 -0.1012 -0.0320 -0.0582
  369YOPC   D3B 4561   4.671   2.199   8.758  0.2087 -0.1710  0.0562
  369YOPC   C4B 4562   4.472   2.128   8.329 -0.2146 -0.0088  0.1804
  370YOPC   NC3 4563  16.898  14.375  10.490  0.1065  0.0749  0.0891
  370YOPC   PO4 4564  17.127  14.040  10.342  0.2357 -0.1367 -0.1744
  370YOPC   GL1 4565  17.290  13.936   9.909 -0.2965 -0.0231  0.1119
  370YOPC   GL2 4566  17.435  13.587   9.858  0.0168 -0.1009  0.0580
  370YOPC   C1A 4567  17.098  14.023   9.558 -0.1709 -0.0123  0.1714
  370YOPC   D2A 4568  17.146  14.372   9.303  0.0005 -0.1071 -0.0322
  370YOPC   C3A 4569  17.224  14.334   8.789  0.0631  0.0730  0.2944
  370YOPC   C4A 4570  17.294  14.450   8.278 -0.5718 -0.0620 -0.1447
  370YOPC   C1B 4571  17.536  13.756   9.469 -0.1053 -0.1631  0.0293
  370YOPC   C2B 4572  17.796  13.737   9.166  0.0174 -0.3367  0.1149
  370YOPC   D3B 4573  17.655  13.690   8.721  0.1106 -0.1030 -0.2000
  370YOPC   C4B 4574  17.541  14.048   8.487  0.0956 -0.1394 -0.0735
  371YOPC   NC3 4575  12.912   7.299  10.652  0.0327  0.0400 -0.1835
  371YOPC   PO4 4576  13.230   7.729  10.786  0.5540 -0.0018 -0.0277
  371YOPC   GL1 4577  13.174   7.674  10.328 -0.1001 -0.1377 -0.3397
  371YOPC   GL2 4578  13.380   7.867  10.172  0.0964  0.4652  0.0702
  371YOPC   C1A 4579  12.898   7.670  10.099  0.0134 -0.1036 -0.3867
  371YOPC   D2A 4580  12.630   7.274   9.851  0.2435 -0.0071 -0.1991
  371YOPC   C3A 4581  12.797   7.125   9.553  0.1980  0.0714 -0.0181
  371YOPC   C4A 4582  12.623   6.922   9.240  0.0623 -0.2795 -0.1389
  371YOPC   C1B 4583  13.350   7.444   9.923  0.1623  0.0613  0.1266
  371YOPC   C2B 4584  13.233   7.424   9.483 -0.0105 -0.1463  0.0989
  371YOPC   D3B 4585  13.026   7.290   9.081  0.0200  0.1038 -0.0170
  371YOPC   C4B 4586  13.095   7.231   8.672  0.0555  0.1149  0.1834
  372YOPC   NC3 4587   8.353   8.804  10.550 -0.0048  0.3658 -0.0088
  372YOPC   PO4 4588   8.236   8.378  10.382 -0.0069 -0.2199  0.0678
  372YOPC   GL1 4589   8.168   8.713  10.048 -0.0881  0.0234  0.2586
  372YOPC   GL2 4590   8.190   9.034   9.963  0.0386  0.1425  0.1664
  372YOPC   C1A 4591   8.182   8.778   9.528 -0.1064 -0.0619 -0.0221
  372YOPC   D2A 4592   8.158   8.971   9.174  0.2126  0.1694  0.1631
  372YOPC   C3A 4593   8.540   9.215   9.209 -0.2023 -0.0792  0.1502
  372YOPC   C4A 4594   8.943   9.208   9.326 -0.1707 -0.0606 -0.1249
  372YOPC   C1B 4595   8.018   9.219   9.631 -0.1195  0.0129  0.1073
  372YOPC   C2B 4596   8.109   9.517   9.309 -0.3473 -0.1809 -0.2786
  372YOPC   D3B 4597   8.031   9.322   8.887  0.0366 -0.2143 -0.1373
  372YOPC   C4B 4598   8.240   9.031   8.698 -0.0562 -0.5020 -0.1955
  373YOPC   NC3 4599   6.895  17.735  10.574  0.0063 -0.0597 -0.5420
  373YOPC   PO4 4600   7.081  17.427  10.408 -0.0452 -0.1137  0.1257
  373YOPC   GL1 4601   6.942  17.489  10.038  0.1478  0.1922 -0.0893
  373YOPC   GL2 4602   6.889  17.791  10.014  0.0087 -0.2639 -0.1350
  373YOPC   C1A 4603   6.599  17.302   9.808  0.0468  0.0599 -0.0488
  373YOPC   D2A 4604   6.390  17.140   9.571 -0.2085  0.0360  0.0476
  373YOPC   C3A 4605   6.059  17.089   9.438 -0.1882 -0.1001  0.0128
  373YOPC   C4A 4606   5.632  16.916   9.375 -0.0967 -0.1202  0.1510
  373YOPC   C1B 4607   6.938  17.801   9.635  0.3268 -0.0280  0.1130
  373YOPC   C2B 4608   6.837  17.442   9.340 -0.0633 -0.2560 -0.1126
  373YOPC   D3B 4609   6.883  17.005   9.475 -0.0697 -0.1025  0.0296
  373YOPC   C4B 4610   6.993  16.661   9.223  0.0755  0.1288 -0.1659
  374YOPC   NC3 4611   9.526   7.794  10.204 -0.0807 -0.0732 -0.2416
  374YOPC   PO4 4612   9.924   8.012  10.427 -0.0942 -0.1679  0.2249
  374YOPC   GL1 4613   9.998   7.898   9.995  0.0008  0.2721  0.1327
  374YOPC   GL2 4614  10.290   7.761   9.859  0.1816  0.0732 -0.0124
  374YOPC   C1A 4615   9.791   7.845   9.602  0.1135  0.1814 -0.1061
  374YOPC   D2A 4616   9.852   7.587   9.242 -0.0941 -0.0994 -0.1287
  374YOPC   C3A 4617   9.762   7.241   9.157  0.0285 -0.0545  0.0439
  374YOPC   C4A 4618   9.485   6.907   9.250  0.1524 -0.2109  0.1958
  374YOPC   C1B 4619  10.264   7.889   9.527 -0.0684  0.1433  0.1051
  374YOPC   C2B 4620  10.424   7.972   9.131  0.0631  0.2094 -0.0474
  374YOPC   D3B 4621  10.231   7.697   8.840 -0.1300 -0.3042  0.1599
  374YOPC   C4B 4622  10.262   7.274   8.745 -0.2009  0.2456  0.0122
  375YOPC   NC3 4623   7.885  12.390   9.929  0.2814  0.2739 -0.1583
  375YOPC   PO4 4624   8.014  12.828  10.058 -0.1095  0.0835  0.0265
  375YOPC   GL1 4625   7.847  12.919   9.660 -0.1823  0.0906  0.0237
  375YOPC   GL2 4626   7.660  12.685   9.582  0.1759 -0.1856  0.0617
  375YOPC   C1A 4627   7.904  12.989   9.233 -0.2482 -0.1022  0.1903
  375YOPC   D2A 4628   7.873  13.112   8.885 -0.0304 -0.0569  0.1616
  375YOPC   C3A 4629   7.791  13.052   8.472 -0.1553 -0.1231  0.1522
  375YOPC   C4A 4630   8.094  12.964   8.106  0.2880 -0.1304 -0.0852
  375YOPC   C1B 4631   7.632  12.540   9.337 -0.2186  0.2415 -0.1117
  375YOPC   C2B 4632   7.640  12.426   8.973  0.0469 -0.1730 -0.2525
  375YOPC   D3B 4633   7.480  12.673   8.557 -0.0520 -0.0032 -0.1429
  375YOPC   C4B 4634   7.129  12.799   8.273 -0.3330 -0.2017 -0.1130
  376YOPC   NC3 4635  14.322   1.495  10.682  0.1300 -0.0173  0.1789
  376YOPC   PO4 4636  14.646   1.837  10.595 -0.0022  0.1144 -0.0451
  376YOPC   GL1 4637  14.726   1.808  10.179 -0.1148 -0.0996  0.0539
  376YOPC   GL2 4638  14.562   2.043  10.099  0.2121 -0.0819 -0.1523
  376YOPC   C1A 4639  14.566   1.582   9.819 -0.0120 -0.0041 -0.4177
  376YOPC   D2A 4640  14.660   1.380   9.407  0.3191  0.2417  0.1253
  376YOPC   C3A 4641  14.336   1.140   9.262 -0.0129 -0.2555 -0.0973
  376YOPC   C4A 4642  14.179   0.916   9.058  0.0563  0.3138 -0.0415
  376YOPC   C1B 4643  14.683   2.191   9.724 -0.3306  0.0044  0.2538
  376YOPC   C2B 4644  14.906   2.335   9.355 -0.0714 -0.0734 -0.2131
  376YOPC   D3B 4645  14.716   2.174   8.994 -0.1470 -0.0369  0.3114
  376YOPC   C4B 4646  14.459   2.002   8.701  0.2045  0.2034 -0.2344
  377YOPC   NC3 4647  16.006  14.286  10.732 -0.1267 -0.1493 -0.0547
  377YOPC   PO4 4648  15.705  14.351  10.353  0.1447  0.0105 -0.1707
  377YOPC   GL1 4649  15.964  14.487   9.972 -0.1071 -0.2361  0.0806
  377YOPC   GL2 4650  16.223  14.533  10.009 -0.4436 -0.0258 -0.1765
  377YOPC   C1A 4651  15.716  14.714   9.568  0.0472  0.3172  0.3653
  377YOPC   D2A 4652  15.310  14.787   9.397  0.0095  0.0543  0.2941
  377YOPC   C3A 4653  15.201  14.701   8.968  0.2718  0.0670 -0.0468
  377YOPC   C4A 4654  14.993  14.891   8.700 -0.0573  0.2237  0.1672
  377YOPC   C1B 4655  16.290  14.550   9.560 -0.2013 -0.0403 -0.2107
  377YOPC   C2B 4656  16.059  14.594   9.145 -0.0975  0.0461 -0.0910
  377YOPC   D3B 4657  16.143  14.965   8.759  0.0492  0.1420 -0.0784
  377YOPC   C4B 4658  16.295  15.318   8.483 -0.0662 -0.0781  0.1439
  378YOPC   NC3 4659  13.663   2.504  10.659 -0.0617  0.2626  0.1137
  378YOPC   PO4 4660  13.318   2.287  10.321  0.1527 -0.3831 -0.0226
  378YOPC   GL1 4661  13.544   2.316   9.975 -0.0168  0.1223 -0.0393
  378YOPC   GL2 4662  13.614   2.088   9.807  0.0657  0.0534 -0.2312
  378YOPC   C1A 4663  13.847   2.490   9.628  0.0589 -0.1456 -0.0550
  378YOPC   D2A 4664  13.953   2.346   9.204  0.2579  0.0036  0.0212
  378YOPC   C3A 4665  14.219   2.087   9.107  0.1810  0.0636 -0.0412
  378YOPC   C4A 4666  14.599   1.875   9.350  0.3390 -0.4279 -0.0705
  378YOPC   C1B 4667  13.757   1.916   9.483  0.3250 -0.0258  0.1106
  378YOPC   C2B 4668  13.842   1.785   9.077 -0.2051  0.0338 -0.2735
  378YOPC   D3B 4669  13.914   2.021   8.716  0.1253  0.0888 -0.0391
  378YOPC   C4B 4670  14.114   1.962   8.388 -0.1869 -0.4137  0.1602
  379YOPC   NC3 4671   0.316   8.794  10.755  0.1523  0.0221  0.0727
  379YOPC   PO4 4672   0.306   8.368  10.754  0.2610  0.3086 -0.0476
  379YOPC   GL1 4673   0.240   8.093  10.433  0.2725  0.0266 -0.2763
  379YOPC   GL2 4674   0.160   7.713  10.453 -0.1058  0.2371  0.2680
  379YOPC   C1A 4675   0.014   8.054  10.045  0.0970  0.1859 -0.0092
  379YOPC   D2A 4676  -0.225   8.224   9.766  0.1324  0.0210 -0.0757
  379YOPC   C3A 4677  -0.083   8.075   9.286 -0.1564  0.2343  0.3191
  379YOPC   C4A 4678  -0.047   7.976   8.889 -0.0640 -0.1194 -0.2579
  379YOPC   C1B 4679   0.298   7.552  10.138 -0.0430  0.2633 -0.0007
  379YOPC   C2B 4680   0.291   7.188   9.972 -0.1963  0.0465  0.0786
  379YOPC   D3B 4681   0.439   7.355   9.539  0.0577 -0.3002 -0.1567
  379YOPC   C4B 4682   0.500   7.239   9.063 -0.2563 -0.1276 -0.0527
  380YOPC   NC3 4683   2.119   2.427  10.806 -0.2346 -0.1403  0.0267
  380YOPC   PO4 4684   1.776   2.669  10.906  0.2882 -0.0186 -0.3362
  380YOPC   GL1 4685   1.614   2.888  10.562  0.0420  0.0726  0.0870
  380YOPC   GL2 4686   1.415   2.585  10.549 -0.0084  0.0189  0.3656
  380YOPC   C1A 4687   1.575   3.172  10.240  0.0628 -0.0542 -0.2187
  380YOPC   D2A 4688   1.501   3.317   9.839  0.0089  0.2018 -0.0328
  380YOPC   C3A 4689   1.734   3.283   9.427  0.0576 -0.1252 -0.1248
  380YOPC   C4A 4690   1.780   3.240   8.980  0.0712  0.2675 -0.2403
  380YOPC   C1B 4691   1.267   2.523  10.287 -0.2962  0.1609  0.3177
  380YOPC   C2B 4692   1.040   2.381   9.890  0.0547 -0.1945  0.0902
  380YOPC   D3B 4693   0.976   2.592   9.468 -0.2454 -0.2505 -0.2215
  380YOPC   C4B 4694   0.890   2.515   9.000 -0.2594 -0.1747 -0.1148
  381YOPC   NC3 4695   4.374   9.967  10.536 -0.1497 -0.1711  0.1387
  381YOPC   PO4 4696   4.548   9.398  10.621 -0.0351  0.1912  0.0972
  381YOPC   GL1 4697   4.433   9.461  10.265 -0.1955 -0.0720  0.0855
  381YOPC   GL2 4698   4.450   9.259  10.034 -0.2152 -0.0423  0.2410
  381YOPC   C1A 4699   4.261   9.784   9.972 -0.1979 -0.1315 -0.3828
  381YOPC   D2A 4700   4.140   9.911   9.522  0.1715 -0.2760 -0.0075
  381YOPC   C3A 4701   4.110  10.315   9.442  0.0467 -0.3983  0.1078
  381YOPC   C4A 4702   4.309  10.643   9.283 -0.1966  0.1888  0.3060
  381YOPC   C1B 4703   4.171   9.410   9.686  0.0246 -0.3252  0.1243
  381YOPC   C2B 4704   4.117   9.493   9.258  0.0559  0.0643 -0.0391
  381YOPC   D3B 4705   4.133   9.890   9.035  0.0831 -0.0252 -0.3039
  381YOPC   C4B 4706   4.424  10.155   9.007  0.0515 -0.0282 -0.1348
  382YOPC   NC3 4707  11.966   6.829  10.481  0.2426 -0.0650  0.0453
  382YOPC   PO4 4708  11.866   6.442  10.533 -0.1179 -0.0029  0.2055
  382YOPC   GL1 4709  11.994   6.435  10.118 -0.0109  0.0093 -0.1145
  382YOPC   GL2 4710  11.780   6.658  10.051  0.0977 -0.2584 -0.3436
  382YOPC   C1A 4711  12.210   6.523   9.729  0.1010  0.2437  0.1224
  382YOPC   D2A 4712  12.507   6.405   9.478  0.0425  0.0295  0.0125
  382YOPC   C3A 4713  12.466   6.476   9.059 -0.3010 -0.1790 -0.2343
  382YOPC   C4A 4714  12.514   6.644   8.696  0.0901  0.1331 -0.0276
  382YOPC   C1B 4715  11.746   6.581   9.695  0.0351  0.0076 -0.2175
  382YOPC   C2B 4716  11.643   6.604   9.339 -0.1923 -0.0652 -0.0089
  382YOPC   D3B 4717  12.002   6.516   9.055  0.0982 -0.1256  0.0295
  382YOPC   C4B 4718  12.020   6.567   8.613 -0.0537 -0.1011  0.0259
  383YOPC   NC3 4719  12.316  12.090  10.138 -0.2081  0.0401  0.1032
  383YOPC   PO4 4720  12.301  11.581  10.094  0.1339 -0.1180 -0.1652
  383YOPC   GL1 4721  12.362  11.708   9.669  0.0675 -0.1461  0.1550
  383YOPC   GL2 4722  12.414  12.075   9.625  0.2337 -0.1256 -0.1608
  383YOPC   C1A 4723  12.462  11.494   9.294 -0.1646  0.2069  0.1813
  383YOPC   D2A 4724  12.486  11.265   8.910 -0.2112  0.0387 -0.0710
  383YOPC   C3A 4725  12.206  11.301   8.552  0.1020  0.0267 -0.0495
  383YOPC   C4A 4726  12.007  11.472   8.226 -0.1243 -0.0438  0.0343
  383YOPC   C1B 4727  12.437  11.963   9.161 -0.3377 -0.1879  0.1010
  383YOPC   C2B 4728  12.421  11.979   8.735 -0.3051  0.2152 -0.1990
  383YOPC   D3B 4729  12.610  11.680   8.732 -0.0035 -0.1963  0.0127
  383YOPC   C4B 4730  12.756  11.306   8.433  0.1847 -0.0281  0.1356
  384YOPC   NC3 4731   4.720   2.675  10.237 -0.0297 -0.0901 -0.0997
  384YOPC   PO4 4732   5.044   3.029  10.209 -0.1915  0.4069 -0.0338
  384YOPC   GL1 4733   4.782   2.981   9.856 -0.0504 -0.1648  0.1706
  384YOPC   GL2 4734   4.588   3.257   9.727 -0.0897 -0.1280  0.0091
  384YOPC   C1A 4735   4.806   2.847   9.443 -0.1441  0.4735 -0.0282
  384YOPC   D2A 4736   4.716   2.917   8.915 -0.2854 -0.0418  0.0106
  384YOPC   C3A 4737   4.998   2.966   8.617  0.1531  0.3405 -0.1624
  384YOPC   C4A 4738   4.841   3.191   8.233 -0.1763  0.0559 -0.0009
  384YOPC   C1B 4739   4.485   3.207   9.297  0.2757  0.0970  0.0478
  384YOPC   C2B 4740   4.304   3.210   8.900  0.0447  0.1509  0.2215
  384YOPC   D3B 4741   3.929   3.433   8.723  0.0774 -0.0621 -0.0177
  384YOPC   C4B 4742   3.549   3.543   8.718 -0.0608 -0.2465  0.2706
  385YOPC   NC3 4743   3.148  11.159  10.138 -0.3267 -0.0421 -0.0869
  385YOPC   PO4 4744   3.336  10.769  10.360  0.2066 -0.0757 -0.2384
  385YOPC   GL1 4745   3.476  10.760   9.969  0.1975  0.1274  0.1302
  385YOPC   GL2 4746   3.330  10.501   9.849  0.1355  0.0853  0.1976
  385YOPC   C1A 4747   3.704  10.772   9.620  0.0145 -0.0416  0.0591
  385YOPC   D2A 4748   3.764  10.646   9.228  0.2537  0.1770  0.0519
  385YOPC   C3A 4749   3.601  10.833   8.940 -0.1384 -0.5191  0.1636
  385YOPC   C4A 4750   3.706  11.095   8.609  0.0712  0.0895  0.2416
  385YOPC   C1B 4751   3.491  10.210   9.528  0.0577 -0.0537  0.0420
  385YOPC   C2B 4752   3.758  10.140   9.163  0.2464  0.2898 -0.1673
  385YOPC   D3B 4753   4.015  10.396   8.869  0.0531  0.1392  0.2553
  385YOPC   C4B 4754   4.345  10.315   8.565  0.2198  0.1056 -0.0425
  386YOPC   NC3 4755   2.628   0.459  11.117 -0.2088 -0.3731  0.1235
  386YOPC   PO4 4756   2.379   0.681  10.759  0.1702  0.0322  0.1783
  386YOPC   GL1 4757   2.170   0.767  10.227 -0.1107  0.3509  0.0927
  386YOPC   GL2 4758   2.117   1.092  10.314 -0.2560  0.2380 -0.2261
  386YOPC   C1A 4759   2.181   0.763   9.845 -0.2180  0.1057 -0.1193
  386YOPC   D2A 4760   2.280   0.820   9.441 -0.0614  0.0207 -0.0434
  386YOPC   C3A 4761   2.019   0.722   9.169 -0.0097  0.0538  0.1894
  386YOPC   C4A 4762   2.046   0.540   8.812  0.0856 -0.0402 -0.1571
  386YOPC   C1B 4763   2.242   1.240   9.904  0.0752 -0.0734 -0.1006
  386YOPC   C2B 4764   1.986   1.349   9.498  0.1728 -0.0517 -0.0749
  386YOPC   D3B 4765   2.042   1.196   9.090 -0.0652  0.0416  0.0214
  386YOPC   C4B 4766   2.055   1.020   8.638  0.0911  0.1280  0.2722
  387YOPC   NC3 4767  16.945   8.672  11.378 -0.3097 -0.0849 -0.0601
  387YOPC   PO4 4768  17.061   8.639  10.927  0.0619 -0.0717  0.1033
  387YOPC   GL1 4769  17.031   8.632  10.484 -0.2105 -0.1681 -0.1319
  387YOPC   GL2 4770  17.312   8.574  10.371 -0.1023 -0.2051 -0.1039
  387YOPC   C1A 4771  16.605   8.673  10.318  0.0104 -0.1301 -0.2204
  387YOPC   D2A 4772  16.229   8.836  10.396 -0.1558  0.0682 -0.0207
  387YOPC   C3A 4773  16.017   9.231  10.190 -0.0923 -0.0834 -0.0344
  387YOPC   C4A 4774  16.078   9.383   9.842 -0.4044  0.0125  0.0331
  387YOPC   C1B 4775  17.345   8.163  10.234 -0.1842  0.0192 -0.0261
  387YOPC   C2B 4776  17.517   7.899   9.996 -0.2119 -0.0940  0.0513
  387YOPC   D3B 4777  17.738   7.713   9.778  0.0115 -0.1213  0.5811
  387YOPC   C4B 4778  18.139   7.698   9.649 -0.2902  0.1227  0.2538
  388YOPC   NC3 4779  11.350   2.331  10.092  0.0077 -0.1070 -0.0689
  388YOPC   PO4 4780  11.511   2.111   9.727  0.0499  0.0272  0.0742
  388YOPC   GL1 4781  11.690   2.043   9.371 -0.1403  0.2508 -0.2801
  388YOPC   GL2 4782  12.080   2.237   9.488  0.0914 -0.1117 -0.0793
  388YOPC   C1A 4783  11.973   2.050   9.015 -0.2182 -0.2136 -0.2385
  388YOPC   D2A 4784  12.003   2.129   8.545 -0.2228 -0.1160 -0.1313
  388YOPC   C3A 4785  11.689   2.258   8.265  0.0326 -0.2548 -0.0369
  388YOPC   C4A 4786  11.472   2.476   7.957 -0.2788  0.2826  0.1363
  388YOPC   C1B 4787  11.782   2.477   9.155 -0.2405 -0.0201 -0.0604
  388YOPC   C2B 4788  11.631   2.609   8.752 -0.0068  0.0357 -0.2865
  388YOPC   D3B 4789  11.259   2.478   8.496 -0.2371 -0.3025  0.0983
  388YOPC   C4B 4790  10.985   2.378   8.080  0.1519 -0.0700  0.1296
  389YOPC   NC3 4791   6.715   7.884  10.474 -0.0106 -0.1302 -0.3193
  389YOPC   PO4 4792   6.590   7.449  10.524 -0.1537 -0.0787 -0.3231
  389YOPC   GL1 4793   6.399   7.679  10.077 -0.0355 -0.0740  0.2026
  389YOPC   GL2 4794   6.500   7.852   9.860  0.0041 -0.0962  0.0444
  389YOPC   C1A 4795   6.187   7.522   9.665  0.3520 -0.0929  0.3704
  389YOPC   D2A 4796   6.069   7.575   9.249 -0.0212 -0.0119  0.4951
  389YOPC   C3A 4797   5.775   7.833   9.057 -0.0191 -0.2955  0.0194
  389YOPC   C4A 4798   5.395   7.788   8.842 -0.0241  0.0252  0.1376
  389YOPC   C1B 4799   6.516   7.769   9.410  0.0386 -0.1298 -0.1682
  389YOPC   C2B 4800   6.556   7.619   9.042  0.1013 -0.3056 -0.1804
  389YOPC   D3B 4801   6.714   7.836   8.800  0.0275 -0.0366 -0.2190
  389YOPC   C4B 4802   7.035   8.111   8.530  0.2655  0.2386  0.1278
  390YOPC   NC3 4803   9.124   2.704  10.469  0.2328  0.0732 -0.1626
  390YOPC   PO4 4804   9.415   2.934  10.182  0.0705 -0.0497 -0.3472
  390YOPC   GL1 4805   9.661   2.792   9.788  0.1296 -0.1364 -0.1429
  390YOPC   GL2 4806   9.951   3.007   9.784 -0.0229 -0.1089 -0.3298
  390YOPC   C1A 4807   9.946   2.655   9.391 -0.1921  0.1795  0.3294
  390YOPC   D2A 4808  10.039   2.391   9.079  0.0311  0.3057 -0.1457
  390YOPC   C3A 4809  10.200   2.507   8.692 -0.2530 -0.2009  0.0714
  390YOPC   C4A 4810  10.333   2.535   8.244  0.1470 -0.1106 -0.2432
  390YOPC   C1B 4811   9.763   3.123   9.367  0.3110  0.0889  0.1884
  390YOPC   C2B 4812   9.662   3.303   9.008  0.1409 -0.1098 -0.0320
  390YOPC   D3B 4813   9.696   3.238   8.663  0.4636 -0.2066 -0.2329
  390YOPC   C4B 4814   9.902   2.847   8.449 -0.0462  0.0097  0.1677
  391YOPC   NC3 4815  11.808  17.581  10.103 -0.2984 -0.0415  0.0781
  391YOPC   PO4 4816  12.090  17.324  10.071  0.4414  0.1735 -0.2019
  391YOPC   GL1 4817  12.290  17.043   9.710  0.2548  0.0820 -0.1144
  391YOPC   GL2 4818  12.150  16.713   9.708  0.1512 -0.3374  0.1327
  391YOPC   C1A 4819  12.277  16.921   9.291  0.0645  0.0722 -0.4059
  391YOPC   D2A 4820  12.220  16.581   9.146 -0.2899  0.0954 -0.0334
  391YOPC   C3A 4821  12.271  16.597   8.638 -0.2213  0.1368  0.0981
  391YOPC   C4A 4822  12.226  16.434   8.235 -0.2962 -0.0768  0.1175
  391YOPC   C1B 4823  12.517  16.516   9.590 -0.1555 -0.2379  0.1752
  391YOPC   C2B 4824  13.032  16.635   9.388 -0.1861  0.0147  0.1464
  391YOPC   D3B 4825  13.181  16.722   9.055 -0.0744  0.2356  0.1528
  391YOPC   C4B 4826  13.029  16.879   8.691  0.0253 -0.0085  0.1231
  392YOPC   NC3 4827  17.191   4.111  11.388  0.0426  0.0218  0.0006
  392YOPC   PO4 4828  17.203   4.465  11.100 -0.0970  0.0864  0.3968
  392YOPC   GL1 4829  17.076   4.262  10.686 -0.0868  0.0444 -0.1684
  392YOPC   GL2 4830  16.701   4.190  10.435  0.0039 -0.2020  0.1573
  392YOPC   C1A 4831  17.184   4.089  10.284 -0.1690 -0.0460  0.2248
  392YOPC   D2A 4832  17.331   3.834  10.102  0.0813 -0.3179  0.1812
  392YOPC   C3A 4833  17.184   3.804   9.657 -0.0702 -0.0640  0.2550
  392YOPC   C4A 4834  17.166   4.083   9.330  0.1560  0.0222 -0.0390
  392YOPC   C1B 4835  16.472   4.236  10.030  0.2076  0.0164 -0.0569
  392YOPC   C2B 4836  16.273   3.996   9.718 -0.0337  0.1775  0.2011
  392YOPC   D3B 4837  16.190   4.264   9.287 -0.1915 -0.0478 -0.0416
  392YOPC   C4B 4838  15.883   4.472   9.054 -0.2752  0.0192 -0.1619
  393YOPC   NC3 4839  14.174  14.304  10.901  0.2810 -0.2481 -0.0985
  393YOPC   PO4 4840  14.271  14.024  10.566  0.2459 -0.0635  0.1222
  393YOPC   GL1 4841  14.262  13.899  10.133 -0.1632 -0.0554  0.1740
  393YOPC   GL2 4842  14.177  13.517  10.041 -0.1984  0.1483  0.2116
  393YOPC   C1A 4843  14.352  13.979   9.684  0.2116  0.1530 -0.2205
  393YOPC   D2A 4844  14.512  14.073   9.230  0.1620  0.0599 -0.1367
  393YOPC   C3A 4845  14.526  14.106   8.872 -0.1938 -0.0254 -0.0199
  393YOPC   C4A 4846  14.224  13.925   8.517 -0.1218 -0.1892  0.1024
  393YOPC   C1B 4847  14.365  13.460   9.722 -0.0058  0.4903  0.1824
  393YOPC   C2B 4848  14.552  13.498   9.355  0.0480 -0.1169 -0.2936
  393YOPC   D3B 4849  14.350  13.593   8.871  0.2825 -0.2502  0.0104
  393YOPC   C4B 4850  14.324  13.437   8.441 -0.1686 -0.0792  0.4526
  394YOPC   NC3 4851   2.790   4.431  10.818 -0.0605  0.0130 -0.0175
  394YOPC   PO4 4852   2.791   3.980  11.013 -0.1048  0.0605  0.2756
  394YOPC   GL1 4853   2.824   3.984  10.576 -0.2287  0.1101  0.2137
  394YOPC   GL2 4854   2.525   3.986  10.396  0.1861 -0.1227 -0.1995
  394YOPC   C1A 4855   3.030   3.940  10.169 -0.2069 -0.1426  0.0700
  394YOPC   D2A 4856   3.243   3.903   9.770 -0.0856 -0.1666  0.0276
  394YOPC   C3A 4857   3.113   3.945   9.415  0.1587  0.1511 -0.0563
  394YOPC   C4A 4858   2.888   3.852   9.028 -0.1545 -0.0780  0.1403
  394YOPC   C1B 4859   2.639   4.121   9.955  0.1638 -0.1414 -0.0798
  394YOPC   C2B 4860   2.658   3.989   9.588  0.0546  0.0432 -0.0192
  394YOPC   D3B 4861   2.747   3.496   9.354 -0.1102  0.0991 -0.0329
  394YOPC   C4B 4862   2.749   3.402   8.959 -0.1892  0.0300  0.2904
  395YOPC   NC3 4863  10.967   9.124  10.263 -0.1457 -0.1253  0.1651
  395YOPC   PO4 4864  10.877   9.581  10.183  0.1482 -0.1193  0.0384
  395YOPC   GL1 4865  11.020   9.327   9.825  0.2890 -0.0185 -0.4625
  395YOPC   GL2 4866  11.391   9.455   9.680  0.2211 -0.1965  0.0485
  395YOPC   C1A 4867  11.074   9.308   9.367 -0.1009  0.1753  0.1823
  395YOPC   D2A 4868  10.936   9.389   8.953 -0.0295  0.3360  0.1387
  395YOPC   C3A 4869  10.661   9.156   8.710  0.1091 -0.1824 -0.5181
  395YOPC   C4A 4870  10.788   8.876   8.397 -0.1698  0.3240 -0.1025
  395YOPC   C1B 4871  11.377   9.752   9.345  0.2625  0.1781  0.0179
  395YOPC   C2B 4872  11.211   9.799   9.010 -0.4058  0.0305  0.0520
  395YOPC   D3B 4873  11.374   9.837   8.631 -0.0860 -0.1236  0.1326
  395YOPC   C4B 4874  11.211  10.038   8.278  0.0093 -0.5327  0.0828
  396YOPC   NC3 4875  14.627   4.085  10.921 -0.3225  0.2029  0.1933
  396YOPC   PO4 4876  14.685   3.666  10.838  0.0744 -0.1008 -0.0143
  396YOPC   GL1 4877  14.844   3.879  10.496  0.0456 -0.3823 -0.2968
  396YOPC   GL2 4878  14.711   4.211  10.431 -0.4196  0.1974  0.1668
  396YOPC   C1A 4879  15.006   3.972  10.089 -0.3089  0.2321 -0.0313
  396YOPC   D2A 4880  14.855   4.260   9.725  0.0879  0.1264  0.0809
  396YOPC   C3A 4881  15.061   4.651   9.567 -0.2707 -0.0750 -0.2279
  396YOPC   C4A 4882  15.043   4.749   9.192  0.4114 -0.1570  0.0979
  396YOPC   C1B 4883  14.775   4.586  10.083 -0.2567  0.2308  0.1550
  396YOPC   C2B 4884  14.530   4.672   9.676 -0.2315 -0.2632  0.0807
  396YOPC   D3B 4885  14.620   4.420   9.354 -0.0540  0.2718 -0.3029
  396YOPC   C4B 4886  14.332   4.374   8.894 -0.0042 -0.2902 -0.2448
  397YOPC   NC3 4887  10.926   2.995  10.537 -0.0968  0.0546 -0.3188
  397YOPC   PO4 4888  11.270   3.204  10.312 -0.0209  0.0258 -0.0347
  397YOPC   GL1 4889  11.329   3.169   9.924 -0.3194  0.2182  0.1905
  397YOPC   GL2 4890  11.596   3.268   9.822  0.1267  0.1431 -0.2586
  397YOPC   C1A 4891  11.079   3.055   9.668 -0.0666 -0.0296  0.2241
  397YOPC   D2A 4892  11.020   3.116   9.208  0.1790  0.0756 -0.0988
  397YOPC   C3A 4893  10.689   3.222   9.004  0.1703  0.0942  0.0387
  397YOPC   C4A 4894  10.475   3.280   8.546  0.1614 -0.0962  0.0377
  397YOPC   C1B 4895  11.477   3.346   9.434 -0.0712  0.3057 -0.0910
  397YOPC   C2B 4896  11.474   3.211   8.980  0.0334 -0.0621  0.2223
  397YOPC   D3B 4897  11.827   3.100   8.776 -0.2686 -0.0533  0.1385
  397YOPC   C4B 4898  12.077   3.253   8.368 -0.1666  0.0040  0.0636
  398YOPC   NC3 4899  15.444  13.006  10.536  0.0199 -0.1329  0.1116
  398YOPC   PO4 4900  15.340  13.377  10.377  0.0527 -0.2279 -0.0035
  398YOPC   GL1 4901  15.411  13.208   9.966  0.0642 -0.1488  0.0428
  398YOPC   GL2 4902  15.200  13.159   9.886 -0.1163  0.3375  0.1597
  398YOPC   C1A 4903  15.494  13.111   9.439  0.2318 -0.2459  0.2273
  398YOPC   D2A 4904  15.410  12.849   9.037  0.1676 -0.0389  0.0670
  398YOPC   C3A 4905  15.546  12.954   8.608 -0.0527 -0.2188  0.1249
  398YOPC   C4A 4906  15.598  13.021   8.195 -0.0903  0.1294  0.1115
  398YOPC   C1B 4907  15.210  13.601   9.728  0.0774 -0.1559 -0.2455
  398YOPC   C2B 4908  15.155  14.012   9.891 -0.2009 -0.2380  0.1091
  398YOPC   D3B 4909  15.395  14.488   9.946 -0.0888 -0.1111 -0.1635
  398YOPC   C4B 4910  15.244  14.902   9.913 -0.0664  0.2778 -0.1744
  399YOPC   NC3 4911  14.320   3.249  10.677  0.0219 -0.0182 -0.0600
  399YOPC   PO4 4912  13.933   3.570  10.551 -0.3253 -0.1181 -0.2858
  399YOPC   GL1 4913  14.112   3.376  10.223  0.3309  0.0301 -0.0220
  399YOPC   GL2 4914  14.119   3.068  10.259  0.0847 -0.1662 -0.1547
  399YOPC   C1A 4915  14.241   3.603   9.886 -0.0518 -0.0969 -0.1417
  399YOPC   D2A 4916  14.019   3.786   9.640  0.0911 -0.1198 -0.1727
  399YOPC   C3A 4917  14.166   4.018   9.159 -0.1802 -0.6048 -0.0370
  399YOPC   C4A 4918  14.171   3.898   8.708  0.0290 -0.0431 -0.0319
  399YOPC   C1B 4919  14.445   3.127   9.893 -0.3621 -0.2042 -0.1525
  399YOPC   C2B 4920  14.580   3.328   9.538  0.1385 -0.2873 -0.0975
  399YOPC   D3B 4921  14.885   3.502   9.162  0.2839  0.0616  0.3516
  399YOPC   C4B 4922  15.035   3.706   8.845  0.0542 -0.1157 -0.0049
  400YOPC   NC3 4923  11.438  13.999  10.557 -0.2186 -0.2037 -0.0932
  400YOPC   PO4 4924  11.644  13.997  10.184 -0.0880  0.0357 -0.2951
  400YOPC   GL1 4925  11.795  14.069   9.738  0.0939 -0.2262 -0.0639
  400YOPC   GL2 4926  11.903  14.365   9.654 -0.1203  0.0088 -0.1061
  400YOPC   C1A 4927  11.865  13.742   9.408  0.0563 -0.0125 -0.1921
  400YOPC   D2A 4928  11.806  13.708   8.947 -0.0894 -0.0480 -0.1187
  400YOPC   C3A 4929  11.939  14.007   8.616  0.0096 -0.0412 -0.1220
  400YOPC   C4A 4930  11.697  14.342   8.375  0.3579  0.0389 -0.2298
  400YOPC   C1B 4931  12.282  14.259   9.386  0.2592 -0.2845  0.0243
  400YOPC   C2B 4932  12.261  13.992   9.025  0.1654  0.0190  0.2147
  400YOPC   D3B 4933  12.463  14.108   8.605  0.1355  0.0179 -0.0626
  400YOPC   C4B 4934  12.467  14.448   8.197  0.1052  0.1944  0.0713
  401YOPC   NC3 4935   0.600   0.143  10.829 -0.0082  0.0603  0.0414
  401YOPC   PO4 4936   0.426   0.560  10.693  0.0633 -0.1134 -0.0774
  401YOPC   GL1 4937   0.107   0.576  10.429  0.0232 -0.0835  0.3044
  401YOPC   GL2 4938  -0.059   0.408  10.337 -0.2535  0.1881  0.0016
  401YOPC   C1A 4939   0.312   0.449  10.034 -0.0132 -0.1488 -0.1316
  401YOPC   D2A 4940   0.636   0.266   9.788  0.2399  0.1641  0.3160
  401YOPC   C3A 4941   0.549   0.299   9.273  0.0986 -0.1725 -0.4736
  401YOPC   C4A 4942   0.203   0.379   9.017 -0.2447 -0.3405 -0.0163
  401YOPC   C1B 4943  -0.177   0.693   9.966 -0.1496  0.3154 -0.3930
  401YOPC   C2B 4944  -0.252   0.624   9.573 -0.4256 -0.0657  0.1164
  401YOPC   D3B 4945  -0.139   0.953   9.226  0.1384  0.0050 -0.0085
  401YOPC   C4B 4946  -0.163   1.163   8.866  0.2060 -0.0345 -0.1890
  402YOPC   NC3 4947  11.783   2.759  10.603 -0.1191  0.3990 -0.4735
  402YOPC   PO4 4948  11.597   2.768  10.144 -0.0019 -0.0758 -0.0523
  402YOPC   GL1 4949  11.446   2.645   9.702 -0.1703  0.0209 -0.0482
  402YOPC   GL2 4950  11.757   2.737   9.611 -0.0004  0.1063 -0.2806
  402YOPC   C1A 4951  11.367   2.823   9.327  0.0808  0.1152  0.2219
  402YOPC   D2A 4952  11.118   2.717   8.874 -0.0582  0.0974 -0.2214
  402YOPC   C3A 4953  11.217   3.004   8.542  0.0723  0.2676 -0.2011
  402YOPC   C4A 4954  11.477   3.323   8.514  0.2752 -0.2220 -0.2702
  402YOPC   C1B 4955  11.912   3.040   9.354 -0.2493 -0.0264 -0.2634
  402YOPC   C2B 4956  12.177   2.885   8.956  0.1644  0.0314  0.1815
  402YOPC   D3B 4957  12.260   2.447   8.845  0.0729  0.0045  0.0194
  402YOPC   C4B 4958  12.435   2.099   8.896 -0.1032 -0.0359 -0.0167
  403YOPC   NC3 4959   3.774  12.007  10.955  0.0876  0.1859  0.3295
  403YOPC   PO4 4960   3.662  12.081  10.564  0.0415  0.2622  0.0880
  403YOPC   GL1 4961   3.716  11.960  10.049 -0.1280 -0.0320 -0.0812
  403YOPC   GL2 4962   3.750  12.181   9.941 -0.0792  0.1687  0.0103
  403YOPC   C1A 4963   3.672  11.670   9.813 -0.0814  0.1901 -0.0902
  403YOPC   D2A 4964   3.603  11.264   9.708  0.0105  0.1917  0.1587
  403YOPC   C3A 4965   3.507  11.122   9.330 -0.0453  0.0911  0.2824
  403YOPC   C4A 4966   3.524  11.353   8.966 -0.1204  0.2134 -0.1951
  403YOPC   C1B 4967   4.039  12.072   9.671 -0.3753  0.0422 -0.1345
  403YOPC   C2B 4968   4.242  11.626   9.743  0.2202 -0.1092  0.1800
  403YOPC   D3B 4969   4.523  11.703   9.951 -0.0864  0.0341  0.0580
  403YOPC   C4B 4970   4.812  11.576   9.923 -0.3189  0.0068 -0.1032
  404YOPC   NC3 4971   2.730  17.861  10.639 -0.1910 -0.1261 -0.0293
  404YOPC   PO4 4972   2.347  17.750  10.825  0.0680 -0.1739  0.0334
  404YOPC   GL1 4973   2.190  17.895  10.422 -0.2443 -0.0599 -0.0184
  404YOPC   GL2 4974   1.937  17.816  10.242 -0.1515 -0.0757  0.0278
  404YOPC   C1A 4975   2.369  17.861  10.038  0.1804  0.1392 -0.0646
  404YOPC   D2A 4976   2.462  18.055   9.720  0.3461 -0.0771  0.0669
  404YOPC   C3A 4977   2.353  18.016   9.352 -0.2335  0.0276  0.4249
  404YOPC   C4A 4978   2.484  18.339   9.028  0.1462  0.2957  0.3332
  404YOPC   C1B 4979   1.848  18.029   9.869  0.0466 -0.1778  0.0988
  404YOPC   C2B 4980   1.441  18.150   9.700 -0.4174 -0.1777  0.0062
  404YOPC   D3B 4981   1.358  17.946   9.300 -0.0252  0.0592  0.1808
  404YOPC   C4B 4982   1.391  17.729   8.948 -0.2589  0.0519  0.1133
  405YOPC   NC3 4983  17.699   7.267  11.501  0.1052  0.1224 -0.0581
  405YOPC   PO4 4984  17.675   7.010  11.118 -0.1457  0.1266 -0.1595
  405YOPC   GL1 4985  17.482   7.025  10.770  0.1833 -0.3081  0.1131
  405YOPC   GL2 4986  17.236   6.782  10.620  0.4681  0.2024 -0.0363
  405YOPC   C1A 4987  17.534   7.016  10.316 -0.0795 -0.0363 -0.2496
  405YOPC   D2A 4988  17.487   6.803   9.884  0.0636 -0.1181  0.0338
  405YOPC   C3A 4989  17.334   6.847   9.451 -0.3400  0.0413  0.1357
  405YOPC   C4A 4990  17.552   6.645   9.082  0.0439 -0.1182  0.0126
  405YOPC   C1B 4991  17.079   6.972  10.241 -0.1630 -0.0825  0.0448
  405YOPC   C2B 4992  17.342   7.310   9.948  0.0786 -0.2009 -0.1002
  405YOPC   D3B 4993  17.379   7.337   9.514  0.0145  0.3192 -0.0853
  405YOPC   C4B 4994  17.648   7.125   9.151 -0.0278 -0.0223  0.0000
  406YOPC   NC3 4995  12.268   6.180  10.792 -0.2277  0.0597 -0.0308
  406YOPC   PO4 4996  12.357   6.673  10.684  0.0961  0.0150 -0.2595
  406YOPC   GL1 4997  12.433   6.428  10.289 -0.0148  0.2873  0.1966
  406YOPC   GL2 4998  12.451   6.002  10.329  0.1967 -0.1172 -0.1559
  406YOPC   C1A 4999  12.670   6.223   9.914 -0.2532 -0.2145  0.1099
  406YOPC   D2A 5000  12.909   6.088   9.621 -0.3817 -0.1024  0.1362
  406YOPC   C3A 5001  12.722   5.979   9.175 -0.2189 -0.3034 -0.1265
  406YOPC   C4A 5002  12.842   5.776   8.763 -0.2713 -0.0119  0.1699
  406YOPC   C1B 5003  12.276   5.933   9.981 -0.2781  0.5852 -0.0497
  406YOPC   C2B 5004  12.089   5.563   9.756 -0.0076  0.0929 -0.4334
  406YOPC   D3B 5005  12.317   5.434   9.353 -0.0108 -0.0127 -0.3070
  406YOPC   C4B 5006  12.379   5.472   8.920  0.1274  0.0808  0.1450
  407YOPC   NC3 5007  10.935  17.353  10.288  0.1230 -0.0735  0.1231
  407YOPC   PO4 5008  11.378  17.408  10.120  0.0238 -0.0015  0.4199
  407YOPC   GL1 5009  11.561  17.463   9.726 -0.0989 -0.0453  0.1974
  407YOPC   GL2 5010  11.864  17.435   9.652 -0.0096  0.0578 -0.0964
  407YOPC   C1A 5011  11.385  17.425   9.388 -0.2673 -0.1746  0.0692
  407YOPC   D2A 5012  10.990  17.461   9.221  0.4038  0.3254  0.0983
  407YOPC   C3A 5013  10.688  17.453   9.007 -0.1302 -0.2745 -0.2896
  407YOPC   C4A 5014  10.460  17.434   8.594 -0.1608  0.0002 -0.2572
  407YOPC   C1B 5015  11.795  17.400   9.139 -0.1911  0.0474  0.2678
  407YOPC   C2B 5016  11.562  17.292   8.828 -0.0585  0.1727  0.1179
  407YOPC   D3B 5017  11.552  17.286   8.390 -0.0248  0.0748  0.1008
  407YOPC   C4B 5018  11.425  17.543   8.083  0.0228  0.2431 -0.1252
  408YOPC   NC3 5019   6.915   3.302  10.035  0.0150 -0.1139  0.2467
  408YOPC   PO4 5020   7.115   3.659  10.141  0.0107 -0.2046 -0.2982
  408YOPC   GL1 5021   7.253   3.605   9.728  0.0582  0.2946  0.1031
  408YOPC   GL2 5022   7.431   3.873   9.557 -0.1100  0.1851 -0.2310
  408YOPC   C1A 5023   7.267   3.385   9.252  0.0523  0.2352  0.0356
  408YOPC   D2A 5024   7.177   3.242   8.841  0.1442  0.2794 -0.0016
  408YOPC   C3A 5025   7.441   3.196   8.494 -0.1728 -0.0810  0.1084
  408YOPC   C4A 5026   7.844   3.109   8.201 -0.0497 -0.1509 -0.1407
  408YOPC   C1B 5027   7.446   3.816   9.150 -0.1270  0.2428  0.2947
  408YOPC   C2B 5028   7.471   3.619   8.795 -0.0354  0.0376 -0.0785
  408YOPC   D3B 5029   7.619   3.830   8.500  0.0727  0.0716  0.0871
  408YOPC   C4B 5030   7.595   4.080   8.136 -0.0463  0.2492  0.3151
  409YOPC   NC3 5031   0.849   9.109  10.977  0.0638  0.0815 -0.1219
  409YOPC   PO4 5032   1.282   8.959  10.672  0.1969 -0.0459 -0.1491
  409YOPC   GL1 5033   1.141   8.820  10.306  0.0878  0.1765  0.1697
  409YOPC   GL2 5034   1.208   8.566  10.241 -0.0264  0.2643 -0.0468
  409YOPC   C1A 5035   0.838   8.827  10.051 -0.1074 -0.0129 -0.2733
  409YOPC   D2A 5036   0.579   8.546   9.865  0.0305 -0.0666 -0.0454
  409YOPC   C3A 5037   0.485   8.635   9.370 -0.3779  0.0479  0.0967
  409YOPC   C4A 5038   0.216   8.414   9.079 -0.0508 -0.0885  0.1419
  409YOPC   C1B 5039   1.046   8.389   9.814 -0.2896 -0.0717  0.1545
  409YOPC   C2B 5040   1.023   8.270   9.425  0.1304 -0.0910  0.2155
  409YOPC   D3B 5041   0.674   8.209   9.322 -0.1805 -0.0549  0.0899
  409YOPC   C4B 5042   0.338   8.137   9.556  0.0090  0.1728  0.0670
  410YOPC   NC3 5043   3.983   4.451  10.426 -0.0679 -0.0939 -0.0320
  410YOPC   PO4 5044   3.732   4.275  10.667 -0.1853  0.0218  0.0999
  410YOPC   GL1 5045   3.460   4.243  10.324 -0.2132  0.0166 -0.1329
  410YOPC   GL2 5046   3.646   4.357  10.003  0.0438  0.1459 -0.0105
  410YOPC   C1A 5047   3.171   4.424  10.083 -0.0375  0.4235  0.2706
  410YOPC   D2A 5048   3.016   4.347   9.722  0.1426 -0.0132  0.0687
  410YOPC   C3A 5049   3.126   4.460   9.336 -0.0031  0.1749  0.1558
  410YOPC   C4A 5050   2.962   4.404   8.875  0.0040 -0.0754 -0.0940
  410YOPC   C1B 5051   3.528   4.596   9.671 -0.1378 -0.2064  0.1728
  410YOPC   C2B 5052   3.609   4.920   9.314 -0.0807  0.1969 -0.3312
  410YOPC   D3B 5053   3.355   4.808   8.998  0.2238 -0.0007  0.1186
  410YOPC   C4B 5054   3.224   4.919   8.625  0.0209  0.2335  0.0704
  411YOPC   NC3 5055   8.352   6.041  10.250  0.0526  0.3299  0.1193
  411YOPC   PO4 5056   8.387   5.668  10.034 -0.0374  0.0436  0.2633
  411YOPC   GL1 5057   8.440   5.480   9.603 -0.2266  0.2160  0.0593
  411YOPC   GL2 5058   8.210   5.533   9.504  0.1577  0.1440  0.2941
  411YOPC   C1A 5059   8.501   5.661   9.051  0.0562 -0.2120 -0.0726
  411YOPC   D2A 5060   8.311   5.970   8.746  0.0941 -0.1143  0.1097
  411YOPC   C3A 5061   8.486   6.044   8.310  0.0332 -0.2329 -0.2829
  411YOPC   C4A 5062   8.655   6.239   7.970 -0.5848  0.0818  0.1818
  411YOPC   C1B 5063   7.901   5.789   9.272  0.3102 -0.1145 -0.0550
  411YOPC   C2B 5064   7.895   6.128   9.113  0.0913  0.2586 -0.0694
  411YOPC   D3B 5065   7.634   6.402   8.927 -0.0955  0.2699  0.0038
  411YOPC   C4B 5066   7.528   6.430   8.478 -0.1474 -0.2252 -0.2497
  412YOPC   NC3 5067   6.771   3.979   9.874  0.0192  0.1621  0.1536
  412YOPC   PO4 5068   6.513   3.753  10.196  0.1466  0.0110  0.1891
  412YOPC   GL1 5069   6.580   3.478   9.702  0.1119 -0.1123  0.2330
  412YOPC   GL2 5070   6.786   3.589   9.531 -0.0159  0.0872  0.0200
  412YOPC   C1A 5071   6.501   3.250   9.327  0.1074  0.1604  0.0147
  412YOPC   D2A 5072   6.430   3.174   8.913  0.2715  0.0263  0.1992
  412YOPC   C3A 5073   6.423   3.168   8.450  0.0945 -0.0063  0.1222
  412YOPC   C4A 5074   6.592   3.324   8.054 -0.0269  0.1057  0.0013
  412YOPC   C1B 5075   6.793   3.552   9.065  0.1361  0.0496 -0.0806
  412YOPC   C2B 5076   6.756   3.452   8.648  0.4200 -0.3920 -0.0904
  412YOPC   D3B 5077   7.121   3.547   8.338  0.1560 -0.0123  0.0410
  412YOPC   C4B 5078   7.457   3.434   8.027  0.0527 -0.0549  0.2356
  413YOPC   NC3 5079  13.129   6.870  11.271 -0.0410  0.1213 -0.2226
  413YOPC   PO4 5080  13.297   6.931  10.775 -0.2200 -0.1076 -0.1978
  413YOPC   GL1 5081  13.400   6.826  10.368  0.1368  0.0767 -0.1406
  413YOPC   GL2 5082  13.202   7.109  10.262  0.0764  0.1622 -0.2986
  413YOPC   C1A 5083  13.629   6.907   9.978  0.1245  0.2599 -0.2133
  413YOPC   D2A 5084  13.808   6.575   9.678  0.3518  0.0726  0.1614
  413YOPC   C3A 5085  13.819   6.725   9.209 -0.0036 -0.1982  0.2262
  413YOPC   C4A 5086  13.997   6.709   8.772 -0.1743 -0.3680 -0.1703
  413YOPC   C1B 5087  13.119   6.963   9.897 -0.0170 -0.2075 -0.2359
  413YOPC   C2B 5088  13.389   6.851   9.532  0.0509 -0.1967  0.1640
  413YOPC   D3B 5089  13.282   6.805   9.153  0.0595  0.0999 -0.0414
  413YOPC   C4B 5090  12.904   6.789   8.846 -0.0357 -0.3006 -0.0244
  414YOPC   NC3 5091  12.574   4.191  10.838  0.1588 -0.1653  0.1742
  414YOPC   PO4 5092  12.359   4.157  10.379 -0.1378 -0.1494 -0.1447
  414YOPC   GL1 5093  12.602   4.234  10.045 -0.2874  0.1821 -0.1275
  414YOPC   GL2 5094  12.354   4.342   9.861 -0.2343  0.1067  0.0099
  414YOPC   C1A 5095  12.835   4.254   9.713 -0.1022  0.2509 -0.1061
  414YOPC   D2A 5096  12.919   4.258   9.317  0.2578 -0.2526  0.2777
  414YOPC   C3A 5097  13.210   4.519   9.153  0.2505  0.0414 -0.0866
  414YOPC   C4A 5098  13.354   4.484   8.754 -0.0507  0.0740 -0.1032
  414YOPC   C1B 5099  12.487   4.544   9.471  0.0168  0.0374 -0.2990
  414YOPC   C2B 5100  12.455   4.468   9.104  0.1250  0.2490 -0.0787
  414YOPC   D3B 5101  12.703   4.615   8.911 -0.0773  0.0453  0.1662
  414YOPC   C4B 5102  12.919   4.671   8.550  0.0050 -0.1450  0.0347
  415YOPC   NC3 5103  11.293  10.772  10.356 -0.0863  0.0456 -0.2045
  415YOPC   PO4 5104  11.330  11.344  10.258  0.1224  0.1191 -0.1578
  415YOPC   GL1 5105  11.554  11.479   9.803  0.1810  0.2642  0.2809
  415YOPC   GL2 5106  11.874  11.243   9.793 -0.0002 -0.2783 -0.0148
  415YOPC   C1A 5107  11.544  11.557   9.433  0.1834 -0.0911  0.0676
  415YOPC   D2A 5108  11.642  11.468   8.988  0.1277  0.0662  0.4267
  415YOPC   C3A 5109  11.703  11.465   8.612  0.1452  0.1195 -0.0723
  415YOPC   C4A 5110  11.450  11.448   8.242  0.1526  0.0531 -0.0515
  415YOPC   C1B 5111  11.980  11.198   9.366  0.0224 -0.1481  0.0602
  415YOPC   C2B 5112  11.986  11.016   8.962  0.2009  0.0026  0.2018
  415YOPC   D3B 5113  11.677  10.766   8.714 -0.0258  0.0761  0.2121
  415YOPC   C4B 5114  11.257  10.552   8.642 -0.3292 -0.2154  0.3988
  416YOPC   NC3 5115   5.573   2.821  10.262 -0.0880  0.0481 -0.0852
  416YOPC   PO4 5116   6.011   2.648  10.292  0.1172  0.0830  0.3038
  416YOPC   GL1 5117   6.260   2.582   9.958  0.2497  0.1355 -0.1951
  416YOPC   GL2 5118   6.264   2.332   9.752 -0.1381 -0.2457 -0.3093
  416YOPC   C1A 5119   6.520   2.673   9.523 -0.0202 -0.0084  0.2943
  416YOPC   D2A 5120   6.433   2.693   9.124  0.3433  0.0722 -0.2181
  416YOPC   C3A 5121   6.455   2.592   8.765  0.2859  0.1131  0.1259
  416YOPC   C4A 5122   6.442   2.375   8.407 -0.0849  0.3017 -0.0072
  416YOPC   C1B 5123   6.141   2.280   9.321  0.2497  0.0678 -0.4847
  416YOPC   C2B 5124   6.124   2.200   8.895 -0.0847  0.1422  0.0150
  416YOPC   D3B 5125   5.919   2.343   8.554 -0.0674  0.0078 -0.5406
  416YOPC   C4B 5126   5.567   2.245   8.245 -0.3728  0.2286  0.0043
  417YOPC   NC3 5127  11.064   0.584  10.125  0.1007  0.1063  0.0138
  417YOPC   PO4 5128  10.606   0.715  10.283 -0.1629  0.0724  0.0273
  417YOPC   GL1 5129  10.386   0.754   9.872 -0.0601  0.0315  0.0354
  417YOPC   GL2 5130  10.584   0.585   9.742 -0.0053 -0.1891  0.1607
  417YOPC   C1A 5131  10.364   1.086   9.613 -0.2143 -0.3624 -0.3421
  417YOPC   D2A 5132  10.604   1.258   9.222  0.0654 -0.1651  0.0123
  417YOPC   C3A 5133  10.590   1.221   8.734  0.2842  0.1444 -0.0580
  417YOPC   C4A 5134  10.902   1.089   8.432  0.0265 -0.0064 -0.2599
  417YOPC   C1B 5135  10.707   0.828   9.424 -0.3016 -0.2327  0.1302
  417YOPC   C2B 5136  10.889   0.905   9.039  0.0140  0.0586 -0.2249
  417YOPC   D3B 5137  10.903   0.569   8.661  0.0310 -0.2504 -0.0191
  417YOPC   C4B 5138  10.876   0.199   8.343  0.2587 -0.0493  0.1284
  418YOPC   NC3 5139   0.843   6.667  10.977 -0.0956  0.1185  0.0846
  418YOPC   PO4 5140   0.863   7.147  10.996 -0.0841  0.3514  0.0335
  418YOPC   GL1 5141   0.843   7.078  10.514 -0.0502  0.2595 -0.1712
  418YOPC   GL2 5142   0.672   7.312  10.378  0.2528 -0.0135 -0.0144
  418YOPC   C1A 5143   0.730   6.818  10.144  0.0458 -0.1502 -0.1178
  418YOPC   D2A 5144   0.544   6.839   9.735 -0.1197 -0.3016  0.0806
  418YOPC   C3A 5145   0.306   6.593   9.586 -0.1553 -0.1971  0.0597
  418YOPC   C4A 5146   0.219   6.379   9.136 -0.3616  0.0110 -0.3707
  418YOPC   C1B 5147   0.769   7.300   9.893  0.0346 -0.1344  0.0022
  418YOPC   C2B 5148   1.118   7.456   9.688  0.0871  0.2245 -0.0418
  418YOPC   D3B 5149   1.121   7.764   9.318 -0.2265 -0.0859 -0.0856
  418YOPC   C4B 5150   0.962   8.008   9.018  0.1494  0.1452  0.1060
  419YOPC   NC3 5151  17.187   1.566  11.230  0.1035 -0.3606 -0.1026
  419YOPC   PO4 5152  17.310   1.865  10.876  0.2939 -0.0673  0.1568
  419YOPC   GL1 5153  17.542   1.992  10.522  0.0594  0.1994 -0.1145
  419YOPC   GL2 5154  17.705   1.813  10.204  0.0561 -0.0535  0.1920
  419YOPC   C1A 5155  17.535   2.250  10.086  0.1800  0.2221 -0.4533
  419YOPC   D2A 5156  17.537   2.383   9.687 -0.0164 -0.1983 -0.1058
  419YOPC   C3A 5157  17.756   2.257   9.410 -0.2409 -0.5835  0.1599
  419YOPC   C4A 5158  17.842   2.524   9.053  0.1017  0.2335  0.2700
  419YOPC   C1B 5159  17.693   1.838   9.715  0.1354  0.0023  0.1672
  419YOPC   C2B 5160  18.068   1.827   9.476 -0.0944 -0.0846 -0.0360
  419YOPC   D3B 5161  18.286   2.096   9.141  0.0986 -0.1270 -0.3018
  419YOPC   C4B 5162  18.300   2.382   8.731  0.1382  0.3542 -0.1463
  420YOPC   NC3 5163  17.994  14.609  10.516 -0.1305  0.2373 -0.2125
  420YOPC   PO4 5164  17.880  14.958  10.528  0.3149  0.0328  0.1706
  420YOPC   GL1 5165  17.935  14.931  10.124 -0.2754  0.0475  0.0013
  420YOPC   GL2 5166  17.591  14.954  10.059 -0.1062 -0.1617 -0.1651
  420YOPC   C1A 5167  18.204  14.960   9.768 -0.0043 -0.2173 -0.1672
  420YOPC   D2A 5168  18.159  14.951   9.342  0.1191 -0.2362  0.0559
  420YOPC   C3A 5169  18.463  15.164   9.017  0.0607 -0.2178  0.2506
  420YOPC   C4A 5170  18.387  15.317   8.604 -0.2100  0.0313 -0.1238
  420YOPC   C1B 5171  17.450  15.150   9.672 -0.1620 -0.2619 -0.1018
  420YOPC   C2B 5172  17.371  15.464   9.311  0.1345 -0.1457  0.3579
  420YOPC   D3B 5173  17.467  15.468   8.828 -0.0480  0.1267 -0.3097
  420YOPC   C4B 5174  17.309  15.307   8.515  0.1908 -0.2025 -0.0501
  421YOPC   NC3 5175   1.920  13.057   9.967 -0.3478  0.1590  0.3761
  421YOPC   PO4 5176   2.019  12.625   9.855  0.1984  0.0335 -0.1398
  421YOPC   GL1 5177   2.079  12.721   9.515 -0.2907  0.2164 -0.0933
  421YOPC   GL2 5178   2.170  13.007   9.488 -0.0882  0.2932  0.0953
  421YOPC   C1A 5179   2.290  12.580   9.134 -0.2104 -0.0249 -0.0722
  421YOPC   D2A 5180   2.488  12.771   8.758 -0.1345 -0.0326  0.1750
  421YOPC   C3A 5181   2.668  13.292   8.691 -0.0531  0.0790 -0.3976
  421YOPC   C4A 5182   2.687  13.562   8.432  0.0918  0.1185  0.1494
  421YOPC   C1B 5183   2.059  13.381   9.274  0.0093  0.3574 -0.2096
  421YOPC   C2B 5184   1.775  13.574   9.217  0.0678 -0.0084  0.0917
  421YOPC   D3B 5185   1.772  13.801   8.825 -0.0417 -0.0931 -0.0040
  421YOPC   C4B 5186   2.083  14.098   8.685 -0.0357 -0.0759 -0.1959
  422YOPC   NC3 5187   8.542   9.617  10.394  0.0335  0.4484 -0.1264
  422YOPC   PO4 5188   8.374   9.293  10.392  0.0804  0.1255 -0.1685
  422YOPC   GL1 5189   8.229   9.510  10.000 -0.2250  0.1028  0.2963
  422YOPC   GL2 5190   8.181   9.853  10.108  0.1846 -0.0325  0.0473
  422YOPC   C1A 5191   7.928   9.721   9.702 -0.1025  0.2049 -0.0477
  422YOPC   D2A 5192   7.597   9.777   9.417 -0.2584 -0.1545  0.1892
  422YOPC   C3A 5193   7.696   9.742   8.958 -0.1882  0.1054 -0.0830
  422YOPC   C4A 5194   7.953   9.835   8.520 -0.3673 -0.1426 -0.0276
  422YOPC   C1B 5195   8.169  10.114   9.762 -0.0784 -0.2570  0.0646
  422YOPC   C2B 5196   8.040  10.088   9.404  0.1739 -0.1626 -0.1725
  422YOPC   D3B 5197   8.228   9.938   8.998  0.0866  0.1428 -0.0048
  422YOPC   C4B 5198   8.411  10.099   8.530 -0.0923  0.2707  0.0471
  423YOPC   NC3 5199   6.691  16.470  10.926 -0.1241 -0.0196 -0.1617
  423YOPC   PO4 5200   6.198  16.606  10.904 -0.2719 -0.0939  0.0757
  423YOPC   GL1 5201   6.049  16.612  10.450 -0.1997 -0.1561  0.2496
  423YOPC   GL2 5202   5.759  16.559  10.359  0.0452 -0.4783 -0.0575
  423YOPC   C1A 5203   6.246  16.539  10.129  0.4981 -0.0169 -0.0000
  423YOPC   D2A 5204   6.208  16.604   9.688 -0.0267 -0.1144 -0.1440
  423YOPC   C3A 5205   6.441  16.689   9.337  0.0358  0.1225 -0.0006
  423YOPC   C4A 5206   6.443  16.678   8.814 -0.1322 -0.0343  0.0460
  423YOPC   C1B 5207   5.401  16.977  10.221 -0.0432 -0.0627 -0.0112
  423YOPC   C2B 5208   5.059  17.297  10.218  0.0629  0.0967 -0.0428
  423YOPC   D3B 5209   5.241  17.761  10.043 -0.0200 -0.0782 -0.1329
  423YOPC   C4B 5210   5.171  17.999   9.602 -0.1620  0.1478  0.0609
  424YOPC   NC3 5211  18.035  17.474  11.041  0.0256 -0.0540 -0.2316
  424YOPC   PO4 5212  18.318  17.403  10.695 -0.0716 -0.1569  0.1905
  424YOPC   GL1 5213  18.217  17.387  10.314 -0.1230 -0.1560  0.0666
  424YOPC   GL2 5214  18.351  17.559  10.071  0.0345 -0.0475  0.0878
  424YOPC   C1A 5215  18.268  17.086   9.994 -0.2978 -0.2541 -0.2806
  424YOPC   D2A 5216  18.320  16.823   9.662  0.1126  0.0325 -0.3348
  424YOPC   C3A 5217  18.375  16.900   9.245 -0.3550  0.2953  0.0836
  424YOPC   C4A 5218  18.227  16.848   8.825 -0.0129 -0.0924 -0.1027
  424YOPC   C1B 5219  18.493  17.425   9.683  0.0229 -0.1003  0.0507
  424YOPC   C2B 5220  18.564  17.331   9.288  0.1162  0.0799  0.0309
  424YOPC   D3B 5221  18.269  17.518   8.936  0.0576  0.1267 -0.0578
  424YOPC   C4B 5222  18.019  17.960   8.880 -0.1536  0.3084 -0.3144
  425YOPC   NC3 5223  14.313   9.605  10.763  0.0147 -0.2491 -0.1788
  425YOPC   PO4 5224  14.300   9.291  10.461  0.1223  0.1991 -0.0908
  425YOPC   GL1 5225  14.393   9.400  10.097 -0.2897 -0.5174 -0.0623
  425YOPC   GL2 5226  14.220   9.507   9.972  0.1108 -0.0520  0.1196
  425YOPC   C1A 5227  14.617   9.181   9.716  0.0297  0.0802 -0.1954
  425YOPC   D2A 5228  15.003   9.152   9.419 -0.3501 -0.0545 -0.1236
  425YOPC   C3A 5229  15.000   9.194   8.959 -0.1574 -0.0477  0.0640
  425YOPC   C4A 5230  14.717   9.551   8.762  0.1750 -0.0606  0.1124
  425YOPC   C1B 5231  14.363   9.532   9.531  0.1201 -0.1634 -0.1792
  425YOPC   C2B 5232  14.575   9.339   9.244  0.2580  0.0738 -0.2132
  425YOPC   D3B 5233  14.552   8.980   9.018  0.3298 -0.1507  0.0645
  425YOPC   C4B 5234  14.396   8.960   8.642 -0.0497  0.1028 -0.1394
  426YOPC   NC3 5235  12.993   9.033  10.662  0.0692  0.1917 -0.3490
  426YOPC   PO4 5236  13.454   8.959  10.439 -0.4496 -0.0911  0.0004
  426YOPC   GL1 5237  13.505   8.920   9.966  0.1948  0.2781 -0.0188
  426YOPC   GL2 5238  13.245   9.041   9.745 -0.0285  0.3883 -0.2818
  426YOPC   C1A 5239  13.790   8.717   9.633 -0.1437 -0.0725 -0.1989
  426YOPC   D2A 5240  13.728   8.684   9.246  0.3015  0.1853  0.0106
  426YOPC   C3A 5241  14.077   8.708   9.023  0.0521 -0.1393  0.0441
  426YOPC   C4A 5242  13.905   8.780   8.616  0.1929 -0.2686  0.0014
  426YOPC   C1B 5243  13.321   8.813   9.544 -0.1366 -0.0964 -0.2239
  426YOPC   C2B 5244  13.250   8.809   9.135  0.1149 -0.1451 -0.1967
  426YOPC   D3B 5245  13.421   8.695   8.859 -0.1789 -0.0167  0.0177
  426YOPC   C4B 5246  13.456   8.946   8.425  0.1496 -0.0540 -0.1781
  427YOPC   NC3 5247   3.609   5.332  10.645  0.2121 -0.1698 -0.1674
  427YOPC   PO4 5248   3.832   5.727  10.469  0.0317  0.0417  0.1519
  427YOPC   GL1 5249   3.752   5.798  10.092  0.0304 -0.3543  0.0572
  427YOPC   GL2 5250   3.843   5.949   9.940  0.0657 -0.1638 -0.1912
  427YOPC   C1A 5251   3.416   5.826   9.713 -0.2421 -0.2243  0.0773
  427YOPC   D2A 5252   3.341   5.710   9.273  0.0899 -0.0567 -0.3500
  427YOPC   C3A 5253   3.028   5.878   9.145 -0.1313  0.1494 -0.0504
  427YOPC   C4A 5254   2.672   6.084   8.903  0.1092 -0.1684  0.2764
  427YOPC   C1B 5255   3.859   5.725   9.501 -0.2016  0.3641 -0.4349
  427YOPC   C2B 5256   3.748   5.414   9.219 -0.0933 -0.1378  0.0222
  427YOPC   D3B 5257   4.098   5.075   9.061 -0.2436 -0.1072 -0.0345
  427YOPC   C4B 5258   4.163   4.584   9.203  0.0534  0.1862  0.0442
  428YOPC   NC3 5259  15.977   7.023  10.937 -0.2312 -0.3487  0.1505
  428YOPC   PO4 5260  16.243   6.643  10.877 -0.1066 -0.0237  0.1223
  428YOPC   GL1 5261  16.058   6.668  10.525  0.0735  0.2603 -0.0744
  428YOPC   GL2 5262  16.169   6.424  10.376 -0.0538  0.2994 -0.1418
  428YOPC   C1A 5263  15.804   6.793  10.153 -0.2087 -0.2588  0.0716
  428YOPC   D2A 5264  15.801   7.088   9.911 -0.2351  0.1566  0.0412
  428YOPC   C3A 5265  15.644   7.050   9.531  0.0044  0.0748 -0.6060
  428YOPC   C4A 5266  15.437   7.004   9.115  0.1781 -0.1481 -0.0543
  428YOPC   C1B 5267  16.202   6.593   9.968  0.3180 -0.0343 -0.1233
  428YOPC   C2B 5268  16.072   6.763   9.574 -0.5444  0.2059 -0.2242
  428YOPC   D3B 5269  16.299   6.943   9.235  0.0957 -0.2896 -0.1074
  428YOPC   C4B 5270  16.366   7.356   9.039  0.2124  0.2211  0.0818
  429YOPC   NC3 5271   6.515   9.152  10.714 -0.1063 -0.0985 -0.0349
  429YOPC   PO4 5272   6.706   9.190  10.296 -0.3016  0.2299  0.1112
  429YOPC   GL1 5273   6.941   9.069   9.946  0.0914  0.1112 -0.1318
  429YOPC   GL2 5274   7.278   9.009   9.911  0.0671  0.2446 -0.0327
  429YOPC   C1A 5275   6.948   9.366   9.533  0.3357  0.0064  0.2934
  429YOPC   D2A 5276   7.166   9.472   9.245 -0.1673 -0.1007 -0.0818
  429YOPC   C3A 5277   7.115   9.560   8.773  0.1818 -0.0795  0.0672
  429YOPC   C4A 5278   7.493   9.552   8.500 -0.2073 -0.0900  0.0930
  429YOPC   C1B 5279   7.095   8.819   9.470 -0.1749  0.2719  0.1394
  429YOPC   C2B 5280   7.151   9.001   9.101 -0.0267  0.1276  0.1768
  429YOPC   D3B 5281   6.742   9.362   9.036  0.0779 -0.0881  0.3701
  429YOPC   C4B 5282   6.537   9.653   9.060 -0.0830  0.1626 -0.1895
  430YOPC   NC3 5283  10.905   1.093  10.381 -0.0115 -0.1223 -0.0089
  430YOPC   PO4 5284  11.276   1.128  10.111  0.2516 -0.0049 -0.0754
  430YOPC   GL1 5285  11.423   1.095   9.747  0.0064  0.1401  0.0021
  430YOPC   GL2 5286  11.299   0.797   9.701 -0.1837 -0.5363 -0.1388
  430YOPC   C1A 5287  11.608   1.229   9.402  0.1485  0.0749 -0.0777
  430YOPC   D2A 5288  11.601   1.597   9.221  0.0087 -0.0308 -0.2006
  430YOPC   C3A 5289  11.866   1.562   8.924  0.0787 -0.0650 -0.1571
  430YOPC   C4A 5290  12.112   1.685   8.672  0.1090  0.1783 -0.1628
  430YOPC   C1B 5291  11.364   0.709   9.292 -0.0495  0.1578 -0.0184
  430YOPC   C2B 5292  11.379   0.769   8.923 -0.3251  0.1153 -0.1001
  430YOPC   D3B 5293  11.658   1.054   8.816  0.1530  0.0400  0.1102
  430YOPC   C4B 5294  11.775   1.330   8.503 -0.1723 -0.0912 -0.2251
  431YOPC   NC3 5295   1.307  17.299  10.875  0.0684  0.3166  0.0244
  431YOPC   PO4 5296   1.241  17.603  10.632 -0.2058 -0.0066 -0.5558
  431YOPC   GL1 5297   1.298  17.763  10.308 -0.4193 -0.0217  0.1370
  431YOPC   GL2 5298   1.435  18.003  10.222  0.0613 -0.1153 -0.0605
  431YOPC   C1A 5299   1.323  17.691   9.849  0.0454  0.1516 -0.0309
  431YOPC   D2A 5300   1.688  17.569   9.626  0.0044  0.1979 -0.0856
  431YOPC   C3A 5301   1.708  17.455   9.210 -0.0075 -0.0817  0.1754
  431YOPC   C4A 5302   1.845  17.436   8.742  0.1302 -0.3826 -0.3173
  431YOPC   C1B 5303   1.029  18.083   9.927 -0.0484 -0.0152  0.0422
  431YOPC   C2B 5304   0.690  17.862   9.581 -0.1902  0.0078 -0.0245
  431YOPC   D3B 5305   0.883  17.729   9.221 -0.0983 -0.2375 -0.0345
  431YOPC   C4B 5306   0.922  17.625   8.828 -0.1064 -0.1502 -0.0615
  432YOPC   NC3 5307   5.788   9.567  10.717 -0.0426 -0.0678 -0.1109
  432YOPC   PO4 5308   5.462   9.517  10.471  0.0554  0.0449 -0.0601
  432YOPC   GL1 5309   5.419   9.422  10.016 -0.1777 -0.0334  0.0915
  432YOPC   GL2 5310   5.329   9.659   9.839  0.1074  0.1803 -0.0031
  432YOPC   C1A 5311   5.415   9.264   9.637  0.1019 -0.3772  0.0182
  432YOPC   D2A 5312   5.434   9.199   9.249 -0.3357  0.3327  0.3620
  432YOPC   C3A 5313   5.398   9.379   8.825 -0.0580  0.1257  0.1964
  432YOPC   C4A 5314   5.264   9.147   8.431  0.0087  0.0905  0.2113
  432YOPC   C1B 5315   4.989   9.884   9.646 -0.5849 -0.2316 -0.0353
  432YOPC   C2B 5316   4.898  10.002   9.148  0.3687  0.2357 -0.1048
  432YOPC   D3B 5317   5.109   9.873   8.812  0.3150 -0.2712 -0.0462
  432YOPC   C4B 5318   5.457   9.836   8.713  0.0406 -0.3098 -0.0497
  433YOPC   NC3 5319  16.830  12.801  10.127  0.1392 -0.3845 -0.1962
  433YOPC   PO4 5320  16.805  13.261  10.366  0.1747 -0.1333 -0.0451
  433YOPC   GL1 5321  16.534  13.155  10.044 -0.1203 -0.0424  0.2145
  433YOPC   GL2 5322  16.392  13.391  10.018  0.0999  0.2451 -0.1808
  433YOPC   C1A 5323  16.548  13.329   9.550  0.5616  0.0936  0.1570
  433YOPC   D2A 5324  16.312  13.597   9.315 -0.3545 -0.0478  0.2275
  433YOPC   C3A 5325  16.357  13.684   8.867 -0.0812  0.3608  0.3699
  433YOPC   C4A 5326  16.221  13.870   8.501 -0.3581 -0.1240  0.1142
  433YOPC   C1B 5327  16.226  13.617   9.809  0.1364 -0.1221  0.0273
  433YOPC   C2B 5328  16.149  14.022   9.633  0.1326  0.1099 -0.1833
  433YOPC   D3B 5329  16.102  14.070   9.185  0.1686 -0.0158 -0.1716
  433YOPC   C4B 5330  16.175  14.207   8.835 -0.1374  0.0399  0.0139
  434YOPC   NC3 5331  11.078   4.446  10.501  0.4169 -0.2946  0.3478
  434YOPC   PO4 5332  11.279   4.050  10.430 -0.0817  0.0880  0.0017
  434YOPC   GL1 5333  11.156   4.262   9.990  0.1370  0.1304  0.0712
  434YOPC   GL2 5334  11.122   4.573  10.058  0.0769  0.1322 -0.3156
  434YOPC   C1A 5335  11.405   4.338   9.593  0.1344  0.2035  0.1619
  434YOPC   D2A 5336  11.563   4.261   9.144  0.0118 -0.5968  0.0556
  434YOPC   C3A 5337  11.397   4.318   8.816  0.1654  0.1277  0.0692
  434YOPC   C4A 5338  11.247   4.342   8.490  0.1208  0.3072  0.1742
  434YOPC   C1B 5339  10.994   4.666   9.608 -0.2038  0.0753  0.2674
  434YOPC   C2B 5340  11.133   4.588   9.243  0.1159  0.1336 -0.1821
  434YOPC   D3B 5341  11.494   4.855   9.068  0.2467 -0.0645 -0.1519
  434YOPC   C4B 5342  11.780   4.636   8.821  0.0018  0.0201 -0.0906
  435YOPC   NC3 5343   3.250  16.002  10.309 -0.1815 -0.0020  0.0403
  435YOPC   PO4 5344   3.021  16.405  10.430 -0.0081 -0.1244 -0.0138
  435YOPC   GL1 5345   3.210  16.486  10.074  0.0637  0.1897  0.2279
  435YOPC   GL2 5346   2.985  16.150   9.952  0.1507  0.2685  0.0088
  435YOPC   C1A 5347   3.068  16.489   9.576  0.2871  0.1860 -0.1648
  435YOPC   D2A 5348   3.160  16.614   9.197 -0.1726 -0.2409 -0.1461
  435YOPC   C3A 5349   2.887  16.635   8.862  0.2127 -0.0945  0.2202
  435YOPC   C4A 5350   2.696  16.238   8.709  0.0441 -0.0667  0.0225
  435YOPC   C1B 5351   2.966  15.963   9.592 -0.1576  0.1064  0.0188
  435YOPC   C2B 5352   2.896  16.191   9.204  0.0719 -0.0655  0.0396
  435YOPC   D3B 5353   3.184  16.187   8.867  0.0321  0.1079 -0.1439
  435YOPC   C4B 5354   3.481  16.467   8.753 -0.1896  0.1850 -0.3356
  436YOPC   NC3 5355   6.581   8.660  10.266  0.0614  0.1929 -0.1455
  436YOPC   PO4 5356   6.723   8.236  10.171  0.1830  0.1173  0.0997
  436YOPC   GL1 5357   6.417   8.421   9.867  0.1215 -0.0359 -0.1116
  436YOPC   GL2 5358   6.480   8.819   9.796 -0.0155  0.1603  0.1505
  436YOPC   C1A 5359   6.279   8.205   9.484  0.2881 -0.4302  0.0541
  436YOPC   D2A 5360   6.298   8.037   9.061  0.1104  0.1446 -0.0345
  436YOPC   C3A 5361   6.190   8.026   8.685  0.0360 -0.2823  0.0853
  436YOPC   C4A 5362   5.817   8.074   8.435  0.0495  0.2046  0.2429
  436YOPC   C1B 5363   6.641   8.741   9.392 -0.0925  0.2773 -0.0935
  436YOPC   C2B 5364   6.698   8.823   8.865 -0.1302  0.0948  0.3296
  436YOPC   D3B 5365   6.934   9.145   8.631 -0.0203 -0.0382 -0.0620
  436YOPC   C4B 5366   7.368   8.937   8.382  0.2404  0.0701  0.3726
  437YOPC   NC3 5367   3.711   1.813  10.526  0.3845  0.1640 -0.0494
  437YOPC   PO4 5368   3.945   2.207  10.467 -0.1382  0.1494  0.0941
  437YOPC   GL1 5369   3.985   1.934  10.100 -0.1773  0.1727 -0.0860
  437YOPC   GL2 5370   4.252   1.781   9.975 -0.0650  0.3278 -0.1794
  437YOPC   C1A 5371   3.848   1.929   9.685  0.0402  0.0709  0.1774
  437YOPC   D2A 5372   3.891   1.799   9.246 -0.0911 -0.1245  0.2949
  437YOPC   C3A 5373   3.785   2.026   8.865  0.2853  0.3680 -0.2729
  437YOPC   C4A 5374   3.677   2.034   8.433  0.3371 -0.1949  0.1468
  437YOPC   C1B 5375   4.256   1.730   9.507 -0.1920  0.1701 -0.2536
  437YOPC   C2B 5376   4.345   1.648   9.016  0.2797  0.0058 -0.0005
  437YOPC   D3B 5377   4.230   1.973   8.827 -0.4347 -0.0391 -0.2650
  437YOPC   C4B 5378   4.068   2.259   8.522  0.0277 -0.0867  0.1477
  438YOPC   NC3 5379  17.099  16.494  11.059  0.1398  0.3246  0.3926
  438YOPC   PO4 5380  16.660  16.546  11.001 -0.2396 -0.2089 -0.0982
  438YOPC   GL1 5381  16.681  16.697  10.481  0.0163 -0.1518  0.3303
  438YOPC   GL2 5382  16.297  16.703  10.472  0.1320 -0.0889  0.2065
  438YOPC   C1A 5383  16.916  16.547  10.091  0.0361 -0.0293  0.1498
  438YOPC   D2A 5384  17.343  16.670   9.940  0.1423 -0.1435 -0.2290
  438YOPC   C3A 5385  17.367  16.709   9.462  0.3007 -0.1430 -0.0076
  438YOPC   C4A 5386  17.229  16.954   9.022  0.3932 -0.0970  0.0176
  438YOPC   C1B 5387  16.409  16.745   9.984 -0.0568  0.2044 -0.1473
  438YOPC   C2B 5388  16.195  16.962   9.546 -0.1580  0.0925 -0.0392
  438YOPC   D3B 5389  16.265  16.871   9.182 -0.1387  0.1116 -0.2557
  438YOPC   C4B 5390  16.218  16.975   8.807 -0.0789  0.0097  0.0045
  439YOPC   NC3 5391  11.815   4.052  10.616  0.3342 -0.0959 -0.0685
  439YOPC   PO4 5392  12.002   3.823  10.280 -0.0675 -0.2157 -0.0602
  439YOPC   GL1 5393  11.975   3.609   9.912 -0.3555 -0.0934  0.2605
  439YOPC   GL2 5394  12.112   3.226   9.848 -0.0799 -0.2417  0.2078
  439YOPC   C1A 5395  11.980   3.529   9.517  0.1074 -0.2039  0.2588
  439YOPC   D2A 5396  11.876   3.545   9.147  0.0802 -0.1233  0.0762
  439YOPC   C3A 5397  12.113   3.685   8.890 -0.0989 -0.0049  0.1565
  439YOPC   C4A 5398  12.313   3.949   8.583  0.4157 -0.2575 -0.0921
  439YOPC   C1B 5399  12.493   3.220   9.859 -0.0621 -0.1838 -0.1914
  439YOPC   C2B 5400  12.813   3.297   9.545 -0.2802 -0.4353  0.2696
  439YOPC   D3B 5401  12.895   3.407   9.107  0.0640  0.0960  0.0428
  439YOPC   C4B 5402  13.232   3.601   8.866  0.1758 -0.1444 -0.0810
  440YOPC   NC3 5403  13.921   4.047  11.361  0.0502  0.0895  0.1219
  440YOPC   PO4 5404  14.080   4.292  11.061  0.0858  0.1188 -0.0971
  440YOPC   GL1 5405  14.291   4.459  10.710 -0.0563  0.0947 -0.0721
  440YOPC   GL2 5406  14.184   4.831  10.543 -0.0067 -0.0965 -0.2645
  440YOPC   C1A 5407  14.324   4.413  10.239 -0.0028  0.1425 -0.3432
  440YOPC   D2A 5408  14.498   4.041   9.968  0.2073  0.0602  0.0080
  440YOPC   C3A 5409  14.504   3.907   9.538 -0.2470  0.0343  0.2001
  440YOPC   C4A 5410  14.651   3.909   9.085  0.2226  0.0384 -0.0824
  440YOPC   C1B 5411  13.865   4.769  10.382 -0.0590 -0.2492 -0.2870
  440YOPC   C2B 5412  13.492   5.074  10.252  0.3077  0.0312  0.0050
  440YOPC   D3B 5413  13.412   4.857  10.005  0.1806 -0.1058  0.0817
  440YOPC   C4B 5414  13.120   4.677   9.745 -0.2182  0.2785  0.1091
  441YOPC   NC3 5415  16.040  12.467  10.113  0.0763  0.1920 -0.0754
  441YOPC   PO4 5416  15.599  12.575  10.145  0.0274  0.1083 -0.1124
  441YOPC   GL1 5417  15.678  12.355   9.739 -0.3221  0.0392  0.2391
  441YOPC   GL2 5418  15.628  12.052   9.819 -0.0456 -0.0385 -0.0917
  441YOPC   C1A 5419  15.770  12.152   9.325 -0.1153 -0.1676  0.0572
  441YOPC   D2A 5420  15.891  12.085   8.984 -0.2787  0.0421 -0.1142
  441YOPC   C3A 5421  15.840  12.284   8.554  0.1859  0.1052  0.0369
  441YOPC   C4A 5422  15.731  12.288   8.194  0.2546 -0.0218 -0.3781
  441YOPC   C1B 5423  15.451  11.821   9.481  0.2211  0.0634  0.0836
  441YOPC   C2B 5424  15.552  11.738   8.929 -0.3414  0.0451 -0.1407
  441YOPC   D3B 5425  15.458  11.941   8.666  0.0040  0.2933  0.0240
  441YOPC   C4B 5426  15.133  12.109   8.527  0.1523 -0.0662 -0.0465
  442YOPC   NC3 5427  14.266  12.672  10.202  0.1681  0.0993 -0.0207
  442YOPC   PO4 5428  14.240  13.100  10.337 -0.1685  0.1800 -0.1674
  442YOPC   GL1 5429  14.665  13.047  10.040  0.0816  0.1317  0.3001
  442YOPC   GL2 5430  14.799  13.279  10.279  0.0525 -0.2892 -0.2964
  442YOPC   C1A 5431  14.785  13.162   9.663  0.0405  0.1479  0.0880
  442YOPC   D2A 5432  15.074  13.358   9.301 -0.0898  0.1095 -0.1513
  442YOPC   C3A 5433  15.282  13.313   8.919  0.4197 -0.3790  0.1426
  442YOPC   C4A 5434  15.337  13.402   8.449  0.2959  0.0574 -0.1149
  442YOPC   C1B 5435  14.741  13.689   9.972 -0.0002  0.0734 -0.4391
  442YOPC   C2B 5436  14.869  13.903   9.524 -0.0679  0.0886 -0.1210
  442YOPC   D3B 5437  15.210  13.869   9.241 -0.4201 -0.1935 -0.1250
  442YOPC   C4B 5438  15.312  13.926   8.744  0.1608 -0.2558  0.1252
  443YOPC   NC3 5439  15.420  11.139  10.625  0.0126 -0.0875  0.2723
  443YOPC   PO4 5440  15.351  10.813  10.343 -0.1643  0.1038  0.1206
  443YOPC   GL1 5441  15.432  11.001   9.988  0.1398  0.1265  0.1114
  443YOPC   GL2 5442  15.102  11.171   9.851  0.2129  0.1851  0.0111
  443YOPC   C1A 5443  15.766  10.884   9.640 -0.0574  0.0066  0.0683
  443YOPC   D2A 5444  16.158  10.733   9.462 -0.2262  0.0440  0.0256
  443YOPC   C3A 5445  16.209  10.584   8.983 -0.0240 -0.1846  0.0934
  443YOPC   C4A 5446  16.319  10.669   8.651  0.3572 -0.1059  0.1946
  443YOPC   C1B 5447  15.068  11.240   9.416 -0.1918  0.0356  0.1214
  443YOPC   C2B 5448  15.042  11.226   8.948  0.0796 -0.1178 -0.3363
  443YOPC   D3B 5449  15.278  10.970   8.674  0.0702  0.3960 -0.1355
  443YOPC   C4B 5450  15.468  10.752   8.418  0.3728  0.2254 -0.3979
  444YOPC   NC3 5451   5.494   3.814  10.284  0.0780 -0.1384 -0.1515
  444YOPC   PO4 5452   5.004   3.850  10.350 -0.0988 -0.0417  0.0652
  444YOPC   GL1 5453   4.627   4.121  10.169 -0.0500 -0.1859 -0.1195
  444YOPC   GL2 5454   4.273   4.003  10.138  0.1365  0.1330 -0.1383
  444YOPC   C1A 5455   4.547   4.179   9.746  0.0065 -0.0238  0.0967
  444YOPC   D2A 5456   4.525   4.229   9.257  0.3187 -0.1182 -0.2044
  444YOPC   C3A 5457   4.343   4.098   8.903 -0.2702  0.0404 -0.0624
  444YOPC   C4A 5458   4.257   3.778   8.571 -0.0229  0.1600 -0.0091
  444YOPC   C1B 5459   3.934   3.932   9.918 -0.2778  0.3191  0.1836
  444YOPC   C2B 5460   3.706   3.796   9.611  0.0532  0.2242 -0.0656
  444YOPC   D3B 5461   3.580   4.158   9.398 -0.0011 -0.1843 -0.0107
  444YOPC   C4B 5462   3.682   4.453   9.112  0.0670  0.1217  0.3064
  445YOPC   NC3 5463  11.466  12.648  10.451 -0.2843 -0.0178 -0.0765
  445YOPC   PO4 5464  11.249  12.824  10.200  0.0066  0.0095  0.1563
  445YOPC   GL1 5465  11.310  12.717   9.789  0.0848 -0.0263  0.1524
  445YOPC   GL2 5466  11.126  12.578   9.561 -0.2690 -0.0137  0.2846
  445YOPC   C1A 5467  11.602  12.805   9.380  0.1440  0.0713 -0.0802
  445YOPC   D2A 5468  11.670  12.680   9.019 -0.2668 -0.4931  0.1151
  445YOPC   C3A 5469  11.602  12.699   8.625  0.0213 -0.0674 -0.3296
  445YOPC   C4A 5470  11.761  12.913   8.284 -0.0552 -0.3280  0.0242
  445YOPC   C1B 5471  11.141  12.555   9.134 -0.0856  0.2885  0.2031
  445YOPC   C2B 5472  11.134  12.501   8.752 -0.1218  0.2149  0.2556
  445YOPC   D3B 5473  11.314  12.382   8.307 -0.1477  0.1957 -0.0936
  445YOPC   C4B 5474  11.747  12.400   8.109 -0.0076  0.1826 -0.1529
  446YOPC   NC3 5475   0.451  12.731   9.839  0.0391  0.0225  0.2045
  446YOPC   PO4 5476   0.045  12.534   9.949  0.0117 -0.0914  0.1878
  446YOPC   GL1 5477   0.150  12.439   9.517  0.1186  0.0561  0.0658
  446YOPC   GL2 5478  -0.292  12.474   9.449 -0.1362  0.3220  0.1529
  446YOPC   C1A 5479   0.246  12.335   9.208 -0.1897 -0.1734  0.1493
  446YOPC   D2A 5480   0.376  12.047   8.868 -0.0687 -0.0650  0.0392
  446YOPC   C3A 5481   0.374  11.759   8.620  0.0611 -0.1622  0.0764
  446YOPC   C4A 5482   0.534  11.510   8.306  0.2096 -0.0368  0.0710
  446YOPC   C1B 5483  -0.528  12.916   9.435 -0.1901  0.2028  0.0161
  446YOPC   C2B 5484  -0.688  13.241   9.373  0.0815  0.2683  0.0964
  446YOPC   D3B 5485  -0.757  13.514   9.125 -0.1103  0.1155  0.1661
  446YOPC   C4B 5486  -0.788  13.878   9.073 -0.2870 -0.1102 -0.1866
  447YOPC   NC3 5487   4.842   8.962  10.314 -0.0299  0.0257 -0.1238
  447YOPC   PO4 5488   5.018   8.516  10.242 -0.2023  0.1109  0.0714
  447YOPC   GL1 5489   5.016   8.853   9.833 -0.0537 -0.1584 -0.0695
  447YOPC   GL2 5490   4.991   9.147   9.881 -0.2886  0.1524  0.1757
  447YOPC   C1A 5491   4.971   9.075   9.409 -0.1919 -0.3376  0.0621
  447YOPC   D2A 5492   4.990   9.474   9.215  0.0919 -0.3910  0.0365
  447YOPC   C3A 5493   5.272   9.699   9.267 -0.0684  0.0620 -0.2566
  447YOPC   C4A 5494   5.664   9.779   9.188 -0.3555  0.1940  0.0189
  447YOPC   C1B 5495   4.855   9.439   9.719 -0.1328  0.1156  0.0867
  447YOPC   C2B 5496   4.601   9.642   9.434  0.2815 -0.2642 -0.1713
  447YOPC   D3B 5497   4.533   9.668   8.931 -0.1920 -0.0400  0.1668
  447YOPC   C4B 5498   4.275   9.813   8.549 -0.1785  0.0120  0.1720
  448YOPC   NC3 5499  15.914   9.756  10.974  0.2492  0.4048  0.1404
  448YOPC   PO4 5500  15.646   9.893  10.575  0.2335  0.0545 -0.0292
  448YOPC   GL1 5501  15.527   9.931  10.212 -0.0886  0.0147 -0.0373
  448YOPC   GL2 5502  15.809   9.709  10.103  0.0381  0.0739 -0.2405
  448YOPC   C1A 5503  15.460   9.864   9.670 -0.2815 -0.0275 -0.1529
  448YOPC   D2A 5504  15.534   9.821   9.227  0.2958  0.0579  0.0516
  448YOPC   C3A 5505  15.679   9.984   8.732 -0.3005 -0.1868 -0.2959
  448YOPC   C4A 5506  15.864  10.367   8.565 -0.0617  0.3514 -0.0476
  448YOPC   C1B 5507  16.258   9.795  10.149  0.0061  0.1179  0.1414
  448YOPC   C2B 5508  16.656   9.739  10.137 -0.0912  0.1247 -0.0105
  448YOPC   D3B 5509  16.880   9.451   9.857  0.0697  0.0658 -0.1095
  448YOPC   C4B 5510  16.973   9.251   9.472  0.0879 -0.0485 -0.0551
  449YOPC   NC3 5511   0.103   9.562  11.173 -0.1092 -0.0770 -0.1520
  449YOPC   PO4 5512   0.349   9.290  10.863  0.0726 -0.0232  0.2789
  449YOPC   GL1 5513   0.320   9.212  10.396  0.1110 -0.0516  0.1481
  449YOPC   GL2 5514   0.206   9.409  10.257  0.3407 -0.2349 -0.1389
  449YOPC   C1A 5515   0.412   9.044   9.988 -0.0893  0.2508  0.0702
  449YOPC   D2A 5516   0.547   9.031   9.627  0.1859 -0.2510 -0.1372
  449YOPC   C3A 5517   0.437   9.083   9.142 -0.0667  0.1437 -0.0303
  449YOPC   C4A 5518   0.378   8.848   8.870  0.1082 -0.3202 -0.0988
  449YOPC   C1B 5519   0.052   9.379   9.836 -0.1218 -0.4512  0.2701
  449YOPC   C2B 5520   0.129   9.288   9.474  0.2024 -0.0834  0.0418
  449YOPC   D3B 5521   0.035   9.513   9.255  0.0364  0.0800  0.2336
  449YOPC   C4B 5522   0.085   9.562   8.743 -0.0002  0.0508 -0.2493
  450YOPC   NC3 5523  15.610   8.479  11.015  0.2634 -0.0914  0.0722
  450YOPC   PO4 5524  16.018   8.549  10.853  0.3670 -0.0027  0.0521
  450YOPC   GL1 5525  15.807   8.471  10.510  0.2011  0.0593 -0.1785
  450YOPC   GL2 5526  15.731   8.219  10.268  0.1738 -0.0337  0.1654
  450YOPC   C1A 5527  15.626   8.692  10.191  0.3746  0.0840  0.0812
  450YOPC   D2A 5528  15.896   8.857   9.834  0.0016  0.2905 -0.2591
  450YOPC   C3A 5529  15.878   9.009   9.342 -0.1054  0.2417 -0.1559
  450YOPC   C4A 5530  15.884   8.910   8.944  0.1163  0.2564 -0.3143
  450YOPC   C1B 5531  16.053   7.930  10.056 -0.0307  0.0930  0.1490
  450YOPC   C2B 5532  16.025   7.547   9.914 -0.1252  0.0234 -0.0336
  450YOPC   D3B 5533  16.064   7.320   9.502  0.2592  0.1755 -0.2018
  450YOPC   C4B 5534  15.907   7.293   9.163 -0.1800  0.2793 -0.1316
  451YOPC   NC3 5535   9.787   2.103  10.721 -0.2303 -0.0161 -0.1634
  451YOPC   PO4 5536   9.471   2.045  10.403 -0.0267 -0.0367 -0.3613
  451YOPC   GL1 5537   9.647   1.845   9.999 -0.2870 -0.1325  0.2324
  451YOPC   GL2 5538   9.420   1.879   9.653  0.1295 -0.1086  0.1725
  451YOPC   C1A 5539   9.821   1.623   9.531  0.0113 -0.0500 -0.1063
  451YOPC   D2A 5540   9.770   1.609   9.072 -0.0579  0.0207 -0.0837
  451YOPC   C3A 5541   9.807   2.027   8.723 -0.0623 -0.2188  0.0500
  451YOPC   C4A 5542   9.805   2.350   8.450 -0.0323  0.0070  0.1191
  451YOPC   C1B 5543   9.134   1.784   9.349 -0.0207  0.0719 -0.0667
  451YOPC   C2B 5544   9.129   1.784   8.928  0.2509  0.0506 -0.1803
  451YOPC   D3B 5545   9.381   1.699   8.628  0.1013 -0.0845  0.0346
  451YOPC   C4B 5546   9.706   1.513   8.592  0.0084  0.1012  0.0353
  452YOPC   NC3 5547   1.436   9.415  10.390 -0.0633 -0.3596 -0.0006
  452YOPC   PO4 5548   1.676   9.787  10.390 -0.0718  0.3165 -0.0484
  452YOPC   GL1 5549   1.720   9.749  10.002 -0.0497  0.4134 -0.1510
  452YOPC   GL2 5550   1.995   9.646   9.869 -0.1409 -0.0926 -0.1119
  452YOPC   C1A 5551   1.542   9.617   9.640  0.0757 -0.0827  0.3109
  452YOPC   D2A 5552   1.582   9.512   9.252  0.0149  0.0190  0.0046
  452YOPC   C3A 5553   1.458   9.479   8.849 -0.2127 -0.0623 -0.5328
  452YOPC   C4A 5554   1.482   9.658   8.441 -0.1392 -0.0609  0.0385
  452YOPC   C1B 5555   2.030   9.581   9.529 -0.0475 -0.0576  0.0270
  452YOPC   C2B 5556   2.089   9.496   9.133  0.0116  0.0197  0.0336
  452YOPC   D3B 5557   1.875   9.156   8.827 -0.2162  0.1881  0.1546
  452YOPC   C4B 5558   2.033   9.180   8.370 -0.0343  0.0763 -0.0702
  453YOPC   NC3 5559  17.232  13.547  10.325  0.0200  0.0002  0.2165
  453YOPC   PO4 5560  17.209  13.037  10.304  0.3278  0.2137  0.0631
  453YOPC   GL1 5561  17.070  13.195   9.875  0.3444 -0.2949 -0.2059
  453YOPC   GL2 5562  16.890  12.979   9.681  0.0839  0.2200 -0.1300
  453YOPC   C1A 5563  16.996  13.502   9.568  0.4029 -0.0111  0.2609
  453YOPC   D2A 5564  16.779  13.418   9.100 -0.0343 -0.1364 -0.1371
  453YOPC   C3A 5565  16.926  13.621   8.791 -0.0671  0.1792 -0.1511
  453YOPC   C4A 5566  17.096  13.842   8.484  0.0926  0.1061 -0.1315
  453YOPC   C1B 5567  16.925  12.932   9.282 -0.3747  0.3878  0.0414
  453YOPC   C2B 5568  16.981  12.989   8.885 -0.3279  0.3295 -0.0244
  453YOPC   D3B 5569  16.898  12.771   8.545  0.0756  0.1500 -0.1234
  453YOPC   C4B 5570  16.849  12.816   8.101 -0.0722 -0.3652  0.0577
  454YOPC   NC3 5571   2.850   7.212  10.768 -0.2427  0.0005  0.0480
  454YOPC   PO4 5572   2.311   7.107  10.842 -0.1253  0.0746 -0.1533
  454YOPC   GL1 5573   2.091   7.117  10.431 -0.0487  0.3480 -0.1566
  454YOPC   GL2 5574   1.850   6.879  10.333  0.1576 -0.0725 -0.2829
  454YOPC   C1A 5575   1.998   7.335  10.099 -0.0213  0.1188 -0.1595
  454YOPC   D2A 5576   1.965   7.601   9.686 -0.1700  0.1496  0.1051
  454YOPC   C3A 5577   1.957   7.660   9.190 -0.2372  0.0496 -0.0821
  454YOPC   C4A 5578   2.136   7.871   8.888 -0.1915 -0.0651  0.1050
  454YOPC   C1B 5579   1.556   6.761   9.917 -0.2144  0.0139 -0.1930
  454YOPC   C2B 5580   1.381   6.586   9.629 -0.1111  0.0587 -0.4453
  454YOPC   D3B 5581   1.401   6.399   9.221  0.1664 -0.2084  0.0780
  454YOPC   C4B 5582   1.122   6.538   8.917  0.2063  0.1106  0.0670
  455YOPC   NC3 5583   1.490  13.254  10.256 -0.0219 -0.2436  0.5414
  455YOPC   PO4 5584   1.488  12.805   9.960 -0.0293 -0.0462 -0.0631
  455YOPC   GL1 5585   1.532  12.612   9.630  0.1201 -0.0192  0.1898
  455YOPC   GL2 5586   1.269  12.442   9.498  0.1176  0.1536 -0.0780
  455YOPC   C1A 5587   1.721  12.465   9.284 -0.1139 -0.0982  0.2790
  455YOPC   D2A 5588   1.887  12.365   8.877 -0.1995  0.0928 -0.0566
  455YOPC   C3A 5589   2.326  12.348   8.665  0.0639  0.2101  0.0180
  455YOPC   C4A 5590   2.485  12.117   8.354  0.0611  0.1579  0.0921
  455YOPC   C1B 5591   1.201  12.778   9.166 -0.2083 -0.0961  0.0555
  455YOPC   C2B 5592   1.196  12.944   8.701 -0.2493 -0.0237  0.2188
  455YOPC   D3B 5593   0.737  12.914   8.477  0.1749  0.2108  0.0341
  455YOPC   C4B 5594   0.379  12.978   8.259  0.2548  0.3439 -0.0908
  456YOPC   NC3 5595  13.788   6.893  11.108 -0.0742  0.1883 -0.0966
  456YOPC   PO4 5596  13.938   6.948  10.627  0.0480  0.0951 -0.2170
  456YOPC   GL1 5597  13.992   6.630  10.237 -0.0323  0.2163  0.1250
  456YOPC   GL2 5598  13.847   6.347  10.337 -0.0755  0.1506  0.1477
  456YOPC   C1A 5599  14.243   6.571   9.910  0.0897  0.2168  0.1183
  456YOPC   D2A 5600  14.294   6.468   9.441 -0.1192 -0.0457  0.3463
  456YOPC   C3A 5601  14.372   6.861   9.192 -0.1702  0.4474  0.1199
  456YOPC   C4A 5602  14.552   7.145   8.829 -0.1311  0.1359  0.0013
  456YOPC   C1B 5603  13.891   6.202   9.976  0.1958  0.0923  0.0729
  456YOPC   C2B 5604  13.934   6.138   9.468 -0.1656 -0.0930 -0.0631
  456YOPC   D3B 5605  13.825   6.140   9.114 -0.1276 -0.0127 -0.2107
  456YOPC   C4B 5606  14.233   6.282   8.853  0.0492  0.0875  0.0931
  457YOPC   NC3 5607   0.997  10.559  10.429 -0.0001  0.0381  0.0597
  457YOPC   PO4 5608   0.627  10.452  10.451  0.4279 -0.0181 -0.1148
  457YOPC   GL1 5609   0.458  10.209  10.087  0.1229 -0.1240 -0.1694
  457YOPC   GL2 5610   0.210   9.920  10.108  0.2520 -0.1670  0.1560
  457YOPC   C1A 5611   0.544  10.195   9.566 -0.1465 -0.2626  0.2534
  457YOPC   D2A 5612   0.791  10.128   9.203 -0.3176  0.1803 -0.1487
  457YOPC   C3A 5613   0.736  10.215   8.734  0.0491  0.0076 -0.2472
  457YOPC   C4A 5614   0.921  10.190   8.406 -0.0930 -0.1628 -0.0323
  457YOPC   C1B 5615   0.234   9.845   9.680  0.1259 -0.0314 -0.1839
  457YOPC   C2B 5616   0.224   9.991   9.283  0.0246  0.0976  0.0910
  457YOPC   D3B 5617   0.412   9.891   8.926 -0.0619 -0.2463  0.0166
  457YOPC   C4B 5618   0.500   9.839   8.538 -0.0761  0.2216 -0.1208
  458YOPC   NC3 5619   5.659   7.236  10.718 -0.0979  0.1649 -0.3135
  458YOPC   PO4 5620   5.647   7.226  10.276  0.1242  0.2486 -0.0236
  458YOPC   GL1 5621   5.369   7.245   9.956 -0.1027 -0.1017  0.1381
  458YOPC   GL2 5622   5.065   7.142  10.087  0.2231  0.0165  0.1642
  458YOPC   C1A 5623   5.378   7.087   9.521 -0.0237 -0.2721 -0.2175
  458YOPC   D2A 5624   5.365   6.918   9.032 -0.0892 -0.0192  0.1148
  458YOPC   C3A 5625   5.727   6.697   8.850  0.0781  0.0055 -0.0511
  458YOPC   C4A 5626   6.047   6.395   8.763 -0.1366 -0.0045  0.0313
  458YOPC   C1B 5627   4.900   6.969   9.696  0.1704 -0.1275 -0.0774
  458YOPC   C2B 5628   4.455   6.944   9.552  0.2029 -0.1888 -0.1192
  458YOPC   D3B 5629   4.408   6.878   9.116  0.0475 -0.0388 -0.2314
  458YOPC   C4B 5630   4.625   6.750   8.778  0.0896  0.4385  0.1320
  459YOPC   NC3 5631   5.556   1.493  10.854 -0.2618 -0.0372 -0.2382
  459YOPC   PO4 5632   5.394   1.271  10.530  0.3057 -0.1377  0.0011
  459YOPC   GL1 5633   5.407   1.225  10.154  0.0053  0.0114  0.2330
  459YOPC   GL2 5634   5.627   1.454  10.021 -0.0263 -0.1650  0.0584
  459YOPC   C1A 5635   5.385   1.063   9.667 -0.0171  0.2391  0.0377
  459YOPC   D2A 5636   5.331   0.774   9.435  0.0189  0.0641 -0.1294
  459YOPC   C3A 5637   5.238   0.707   9.015  0.0035 -0.2805  0.0280
  459YOPC   C4A 5638   5.011   0.908   8.758  0.2948 -0.2304 -0.1714
  459YOPC   C1B 5639   5.296   1.561   9.653 -0.3268 -0.0534  0.2815
  459YOPC   C2B 5640   5.108   1.323   9.296 -0.0430  0.1646  0.1967
  459YOPC   D3B 5641   5.157   1.428   8.849  0.1827  0.2719 -0.0963
  459YOPC   C4B 5642   5.392   1.614   8.690 -0.2712 -0.0195  0.0372
  460YOPC   NC3 5643  12.967  17.224  10.235 -0.1211 -0.0411 -0.1085
  460YOPC   PO4 5644  13.363  17.281  10.470 -0.1130 -0.0823 -0.1143
  460YOPC   GL1 5645  13.443  17.067  10.069  0.0946  0.0946 -0.0201
  460YOPC   GL2 5646  13.748  17.052   9.890  0.0166 -0.0574 -0.1783
  460YOPC   C1A 5647  13.205  17.174   9.668 -0.0690 -0.2573 -0.0456
  460YOPC   D2A 5648  13.170  17.210   9.334  0.1150  0.0363 -0.0587
  460YOPC   C3A 5649  12.776  17.458   9.191 -0.2221 -0.1442  0.3560
  460YOPC   C4A 5650  12.638  17.628   8.754  0.1366  0.0127 -0.2090
  460YOPC   C1B 5651  14.046  17.204   9.719 -0.1575 -0.2990  0.0576
  460YOPC   C2B 5652  14.201  17.360   9.357 -0.4040 -0.2743 -0.2304
  460YOPC   D3B 5653  14.469  17.606   9.011 -0.0712 -0.0498  0.0074
  460YOPC   C4B 5654  14.481  17.924   8.659  0.3144  0.1509 -0.0145
  461YOPC   NC3 5655   8.610   2.120  10.052 -0.1700  0.0426  0.4010
  461YOPC   PO4 5656   8.264   1.877  10.213 -0.0829  0.1259  0.2474
  461YOPC   GL1 5657   8.107   1.838   9.771 -0.1671 -0.1624 -0.0020
  461YOPC   GL2 5658   8.118   1.611   9.552  0.2309  0.1098  0.0586
  461YOPC   C1A 5659   8.159   2.119   9.313  0.0703  0.1358  0.0615
  461YOPC   D2A 5660   8.266   2.139   8.891  0.1228 -0.1369  0.1447
  461YOPC   C3A 5661   7.947   2.126   8.534 -0.1183  0.3290 -0.0680
  461YOPC   C4A 5662   7.924   2.007   8.047 -0.3923  0.2241  0.0957
  461YOPC   C1B 5663   8.474   1.617   9.440  0.0304 -0.1278 -0.0449
  461YOPC   C2B 5664   8.621   1.942   9.307  0.0482  0.0969 -0.0626
  461YOPC   D3B 5665   8.782   2.238   9.586 -0.0582  0.0664  0.3172
  461YOPC   C4B 5666   8.971   2.629   9.788  0.1920 -0.0044 -0.1906
  462YOPC   NC3 5667  14.296  16.637  10.352 -0.1788  0.2858 -0.0887
  462YOPC   PO4 5668  14.677  16.906  10.440 -0.2090  0.0184  0.0842
  462YOPC   GL1 5669  14.784  17.155  10.058  0.2953  0.0689  0.1563
  462YOPC   GL2 5670  14.955  17.427  10.100  0.2450  0.2104  0.3022
  462YOPC   C1A 5671  14.781  17.346   9.587  0.1955  0.1105  0.0173
  462YOPC   D2A 5672  14.934  17.654   9.290  0.1127  0.1202 -0.2668
  462YOPC   C3A 5673  14.922  17.594   8.811  0.0897  0.4071 -0.1496
  462YOPC   C4A 5674  14.645  17.497   8.437  0.1007  0.2245 -0.2096
  462YOPC   C1B 5675  15.113  17.665   9.737  0.2293 -0.0871  0.3525
  462YOPC   C2B 5676  15.441  17.609   9.441 -0.1336 -0.0798 -0.1622
  462YOPC   D3B 5677  15.441  17.642   9.033  0.2871  0.1407 -0.0015
  462YOPC   C4B 5678  15.374  17.954   8.619 -0.0900 -0.0878  0.2024
  463YOPC   NC3 5679   3.573  10.362  10.286 -0.4556 -0.0481  0.1232
  463YOPC   PO4 5680   3.364  10.015  10.225 -0.1625  0.0692  0.3580
  463YOPC   GL1 5681   3.388   9.791   9.856 -0.0161 -0.0181  0.0429
  463YOPC   GL2 5682   3.744   9.709   9.854 -0.1984  0.2063 -0.2065
  463YOPC   C1A 5683   3.233   9.612   9.506 -0.0399 -0.2371 -0.1729
  463YOPC   D2A 5684   3.303   9.941   9.117 -0.0658  0.2263 -0.0621
  463YOPC   C3A 5685   3.283   9.842   8.669  0.0831 -0.2182 -0.0848
  463YOPC   C4A 5686   3.171   9.575   8.314 -0.0421  0.3541 -0.0486
  463YOPC   C1B 5687   3.707   9.633   9.456 -0.1567 -0.0246 -0.0107
  463YOPC   C2B 5688   3.658   9.662   9.014  0.2085 -0.0086 -0.2208
  463YOPC   D3B 5689   3.806   9.932   8.643 -0.0359 -0.3314  0.1558
  463YOPC   C4B 5690   3.895  10.158   8.351 -0.0216  0.0509  0.1274
  464YOPC   NC3 5691  12.940  13.647  10.308 -0.0514 -0.0782 -0.1621
  464YOPC   PO4 5692  12.607  13.911  10.129  0.2737 -0.1374 -0.0470
  464YOPC   GL1 5693  12.832  13.790   9.729 -0.1318  0.1959 -0.3018
  464YOPC   GL2 5694  12.926  13.419   9.725 -0.1366  0.3010  0.0427
  464YOPC   C1A 5695  12.854  14.068   9.398  0.0458 -0.1502  0.3181
  464YOPC   D2A 5696  12.762  14.331   9.210 -0.0537  0.1338  0.2972
  464YOPC   C3A 5697  12.823  14.367   8.792 -0.2137 -0.1481  0.2593
  464YOPC   C4A 5698  12.969  14.153   8.511  0.0306  0.0177 -0.2224
  464YOPC   C1B 5699  12.958  13.460   9.322  0.3613 -0.0163 -0.1174
  464YOPC   C2B 5700  13.176  13.361   9.000 -0.0232  0.1622 -0.0093
  464YOPC   D3B 5701  13.044  13.526   8.614 -0.2977 -0.2285  0.0769
  464YOPC   C4B 5702  12.829  13.695   8.236  0.0210  0.0152  0.1784
  465YOPC   NC3 5703  12.056  16.738  10.223  0.3152  0.0902  0.1822
  465YOPC   PO4 5704  11.694  16.508  10.249 -0.1343  0.0149 -0.0438
  465YOPC   GL1 5705  11.809  16.372   9.762 -0.1007  0.0759  0.3013
  465YOPC   GL2 5706  11.574  16.125   9.722  0.0029 -0.1191 -0.1804
  465YOPC   C1A 5707  11.901  16.245   9.371  0.2317 -0.0568  0.3723
  465YOPC   D2A 5708  11.711  15.911   9.065 -0.0261 -0.0474  0.0888
  465YOPC   C3A 5709  11.866  15.595   8.794  0.1894  0.1060  0.3061
  465YOPC   C4A 5710  12.030  15.510   8.295 -0.0639  0.0714 -0.1952
  465YOPC   C1B 5711  11.349  16.251   9.376  0.2135 -0.0260  0.0145
  465YOPC   C2B 5712  11.386  16.347   8.944 -0.2981  0.0820 -0.3304
  465YOPC   D3B 5713  11.372  16.172   8.621  0.1448 -0.1603 -0.0833
  465YOPC   C4B 5714  11.543  15.814   8.402  0.0275 -0.0202 -0.2569
  466YOPC   NC3 5715  10.426   5.018  10.357 -0.0358  0.0571 -0.0599
  466YOPC   PO4 5716  10.611   4.583  10.279 -0.2721 -0.3212  0.0031
  466YOPC   GL1 5717  10.448   4.465   9.865  0.1727  0.0138 -0.0704
  466YOPC   GL2 5718  10.224   4.646   9.866  0.3499 -0.0208 -0.2098
  466YOPC   C1A 5719  10.479   4.484   9.465  0.2709 -0.1567 -0.0170
  466YOPC   D2A 5720  10.492   4.475   9.027 -0.2195 -0.2325 -0.0662
  466YOPC   C3A 5721  10.848   4.645   8.824 -0.0879  0.0611 -0.1275
  466YOPC   C4A 5722  11.253   4.770   8.640 -0.0839  0.2433 -0.1898
  466YOPC   C1B 5723  10.202   4.894   9.432  0.2017  0.0885  0.0466
  466YOPC   C2B 5724  10.301   4.970   9.005  0.0484  0.1259 -0.2891
  466YOPC   D3B 5725  10.295   4.728   8.623  0.3692 -0.0547  0.1963
  466YOPC   C4B 5726  10.349   4.633   8.149  0.0859 -0.0714 -0.0897
  467YOPC   NC3 5727  17.548  10.917  10.386  0.0141 -0.1650  0.0675
  467YOPC   PO4 5728  17.919  11.071  10.173 -0.0073 -0.2846 -0.3063
  467YOPC   GL1 5729  17.640  11.327   9.921 -0.2858 -0.0063  0.3012
  467YOPC   GL2 5730  17.406  11.170   9.935  0.2264  0.2786 -0.0816
  467YOPC   C1A 5731  17.725  11.329   9.540  0.3335  0.1603 -0.1485
  467YOPC   D2A 5732  17.736  11.342   9.170 -0.2257  0.0816 -0.0966
  467YOPC   C3A 5733  17.488  11.201   8.800 -0.0824  0.0209 -0.2699
  467YOPC   C4A 5734  17.178  10.927   8.538  0.1589 -0.4137 -0.2097
  467YOPC   C1B 5735  17.093  11.109   9.599 -0.2405  0.0124 -0.2719
  467YOPC   C2B 5736  17.000  11.065   9.098 -0.0449  0.0480  0.0644
  467YOPC   D3B 5737  17.050  11.424   8.842 -0.0016 -0.3276 -0.0681
  467YOPC   C4B 5738  17.291  11.458   8.403 -0.1598  0.0977 -0.0111
  468YOPC   NC3 5739   6.664  12.965  10.390  0.2712 -0.0867 -0.0768
  468YOPC   PO4 5740   6.431  13.330  10.193 -0.0961  0.0395 -0.3581
  468YOPC   GL1 5741   6.671  13.071   9.889 -0.1085  0.2596  0.1291
  468YOPC   GL2 5742   6.668  12.739   9.872  0.0329  0.1198  0.0415
  468YOPC   C1A 5743   6.833  12.993   9.406 -0.0148 -0.3166  0.0478
  468YOPC   D2A 5744   6.907  12.981   8.990  0.2474 -0.1249  0.2730
  468YOPC   C3A 5745   6.837  13.279   8.637 -0.0989  0.0223  0.3417
  468YOPC   C4A 5746   6.904  13.291   8.202 -0.0197 -0.2177 -0.0244
  468YOPC   C1B 5747   6.636  12.513   9.433  0.1332  0.0859 -0.3710
  468YOPC   C2B 5748   6.565  12.495   9.003  0.0668  0.1765 -0.1488
  468YOPC   D3B 5749   6.811  12.707   8.613 -0.1725  0.2328 -0.1191
  468YOPC   C4B 5750   6.638  12.909   8.314  0.0704 -0.1214  0.2085
  469YOPC   NC3 5751   5.197   9.972  10.241  0.1007 -0.1281 -0.1148
  469YOPC   PO4 5752   5.309  10.377  10.348 -0.0402  0.1218  0.0875
  469YOPC   GL1 5753   5.623  10.515  10.100  0.0613 -0.1086 -0.3337
  469YOPC   GL2 5754   5.970  10.274  10.159  0.1927 -0.0842 -0.2117
  469YOPC   C1A 5755   5.758  10.490   9.683 -0.1331  0.0614 -0.0598
  469YOPC   D2A 5756   5.663  10.748   9.316 -0.1129  0.3380 -0.1660
  469YOPC   C3A 5757   5.575  11.146   9.469  0.1993 -0.0613 -0.0772
  469YOPC   C4A 5758   5.448  11.564   9.383  0.0679 -0.0258  0.0187
  469YOPC   C1B 5759   6.243  10.330   9.830  0.2053  0.0752  0.1271
  469YOPC   C2B 5760   6.621  10.229   9.578  0.2279  0.1490 -0.1152
  469YOPC   D3B 5761   6.534  10.171   9.209 -0.2324 -0.1355  0.2828
  469YOPC   C4B 5762   6.781  10.002   8.869 -0.2668  0.1988 -0.0879
  470ERGO   ROH 5763   1.071   9.275  10.054  0.1369  0.1618 -0.2024
  470ERGO    R1 5764   0.961   9.302   9.795  0.2408  0.1952 -0.2434
  470ERGO    R2 5765   1.096   9.428   9.589  0.4388 -0.0181 -0.2474
  470ERGO    R3 5766   1.048   9.194   9.459  0.2227 -0.0122 -0.1832
  470ERGO    R4 5767   1.088   9.391   9.245 -0.0137 -0.0226 -0.2426
  470ERGO    R5 5768   0.917   9.257   9.268 -0.0142  0.0109 -0.0182
  470ERGO    C1 5769   1.039   9.149   8.923 -0.4800 -0.0197 -0.1794
  470ERGO    C2 5770   1.002   9.153   8.637 -0.0169  0.0938 -0.0491
  471ERGO   ROH 5771   9.002  11.816   9.742  0.1585 -0.0049 -0.0719
  471ERGO    R1 5772   8.914  11.770   9.477 -0.0315  0.1262 -0.0344
  471ERGO    R2 5773   8.900  11.971   9.288  0.1169  0.1668 -0.0106
  471ERGO    R3 5774   9.054  11.801   9.143 -0.1573 -0.0105 -0.0990
  471ERGO    R4 5775   8.918  11.967   8.943  0.0018  0.2100 -0.0168
  471ERGO    R5 5776   8.920  11.749   8.951 -0.2868  0.2061 -0.0659
  471ERGO    C1 5777   9.073  11.805   8.606 -0.3226  0.0686 -0.1034
  471ERGO    C2 5778   9.222  11.709   8.256  0.0280  0.0697 -0.2215
  472ERGO   ROH 5779  11.740  17.010   9.904  0.2159 -0.0680 -0.0231
  472ERGO    R1 5780  11.658  16.876   9.669 -0.0018 -0.0319  0.0289
  472ERGO    R2 5781  11.678  16.990   9.418 -0.1148 -0.0411  0.0115
  472ERGO    R3 5782  11.816  16.762   9.361 -0.2546 -0.1039 -0.0754
  472ERGO    R4 5783  11.673  16.826   9.113 -0.1561  0.1147 -0.0721
  472ERGO    R5 5784  11.668  16.636   9.221 -0.3050  0.0647 -0.1716
  472ERGO    C1 5785  11.799  16.516   8.883 -0.3113  0.1464 -0.2024
  472ERGO    C2 5786  11.810  16.363   8.558  0.2128 -0.2629  0.0903
  473ERGO   ROH 5787   2.712  17.502  10.267 -0.2679 -0.0796  0.0181
  473ERGO    R1 5788   2.785  17.494   9.994 -0.1899 -0.0250  0.0371
  473ERGO    R2 5789   2.625  17.380   9.800 -0.1025 -0.0502 -0.0213
  473ERGO    R3 5790   2.652  17.622   9.680 -0.1423 -0.0275  0.0157
  473ERGO    R4 5791   2.646  17.431   9.459  0.1939 -0.0241 -0.0017
  473ERGO    R5 5792   2.799  17.582   9.495  0.0639  0.0729  0.1533
  473ERGO    C1 5793   2.684  17.689   9.148  0.3292  0.0124  0.0444
  473ERGO    C2 5794   2.639  17.735   8.830 -0.0152 -0.2714  0.2915
  474ERGO   ROH 5795  17.390   4.994  10.237  0.1803 -0.1100 -0.0347
  474ERGO    R1 5796  17.430   5.001   9.957  0.0843 -0.0191 -0.0463
  474ERGO    R2 5797  17.317   4.816   9.785  0.1163 -0.0280 -0.0539
  474ERGO    R3 5798  17.222   5.037   9.660 -0.0309 -0.0419  0.0304
  474ERGO    R4 5799  17.251   4.839   9.447  0.1388  0.0647 -0.0525
  474ERGO    R5 5800  17.335   5.040   9.449 -0.0061  0.1279  0.0424
  474ERGO    C1 5801  17.124   5.061   9.132  0.0134  0.1057  0.0273
  474ERGO    C2 5802  16.915   4.941   8.906  0.0119 -0.0668  0.1562
  475ERGO   ROH 5803   4.045   7.090   9.949  0.2551  0.3961 -0.0183
  475ERGO    R1 5804   4.013   7.050   9.671  0.2834  0.1912  0.0057
  475ERGO    R2 5805   3.839   7.200   9.518  0.0698 -0.1228 -0.0729
  475ERGO    R3 5806   4.062   7.247   9.369  0.0011  0.0823 -0.1129
  475ERGO    R4 5807   3.840   7.341   9.202 -0.0960  0.0341 -0.0046
  475ERGO    R5 5808   3.994   7.199   9.144 -0.0292  0.1550 -0.1175
  475ERGO    C1 5809   4.049   7.467   8.878 -0.2570  0.3180 -0.0023
  475ERGO    C2 5810   4.151   7.671   8.585  0.0489 -0.2106 -0.0721
  476ERGO   ROH 5811   0.259   8.597  10.263  0.0299  0.0924 -0.0965
  476ERGO    R1 5812   0.124   8.552  10.019  0.0703 -0.0773 -0.0895
  476ERGO    R2 5813  -0.059   8.731   9.914 -0.1209 -0.2757 -0.1095
  476ERGO    R3 5814   0.101   8.716   9.695 -0.1057 -0.1368 -0.1074
  476ERGO    R4 5815  -0.148   8.836   9.597 -0.1250 -0.1498 -0.0663
  476ERGO    R5 5816  -0.048   8.660   9.516 -0.0805 -0.0877 -0.1419
  476ERGO    C1 5817  -0.050   8.884   9.207 -0.1129  0.0540 -0.0391
  476ERGO    C2 5818  -0.135   9.160   9.026 -0.3778 -0.0215 -0.1679
  477ERGO   ROH 5819   0.830  13.661   9.903 -0.0526  0.1702  0.0567
  477ERGO    R1 5820   0.885  13.656   9.626 -0.0983 -0.0404  0.0488
  477ERGO    R2 5821   0.726  13.519   9.445 -0.3496  0.1279  0.1306
  477ERGO    R3 5822   0.715  13.761   9.321  0.0199  0.0993  0.0310
  477ERGO    R4 5823   0.667  13.566   9.108 -0.2249  0.0853  0.1027
  477ERGO    R5 5824   0.817  13.724   9.108  0.0029 -0.1307  0.0631
  477ERGO    C1 5825   0.621  13.821   8.795  0.1946  0.0337 -0.0071
  477ERGO    C2 5826   0.472  13.828   8.465 -0.0019  0.0013  0.0443
  478ERGO   ROH 5827  17.976   2.265  10.393 -0.1582 -0.0276  0.1137
  478ERGO    R1 5828  18.110   2.329  10.152 -0.1265  0.0254  0.1447
  478ERGO    R2 5829  18.091   2.172   9.926  0.0031  0.0077  0.1439
  478ERGO    R3 5830  18.015   2.405   9.809 -0.0764 -0.0314  0.1182
  478ERGO    R4 5831  18.207   2.288   9.621  0.1002  0.0980  0.2152
  478ERGO    R5 5832  18.215   2.489   9.707 -0.0698  0.0976  0.2335
  478ERGO    C1 5833  18.203   2.575   9.335  0.0822  0.1138  0.2327
  478ERGO    C2 5834  18.482   2.759   9.077 -0.0501 -0.1844 -0.3181
  479ERGO   ROH 5835   8.121  11.043   9.863 -0.0343  0.0128  0.0471
  479ERGO    R1 5836   8.231  11.146   9.624  0.0398  0.0087  0.0795
  479ERGO    R2 5837   8.279  10.989   9.402  0.0914  0.0096  0.0919
  479ERGO    R3 5838   8.128  11.177   9.276  0.1404  0.0214  0.0499
  479ERGO    R4 5839   8.321  11.087   9.073  0.2085  0.0204  0.1096
  479ERGO    R5 5840   8.284  11.293   9.136  0.1952  0.0210  0.1073
  479ERGO    C1 5841   8.204  11.320   8.764  0.3227  0.0376  0.0805
  479ERGO    C2 5842   8.172  11.433   8.429 -0.2529  0.3234  0.0571
  480ERGO   ROH 5843   3.618   1.575  10.108 -0.1592 -0.2442  0.1348
  480ERGO    R1 5844   3.776   1.508   9.883 -0.0921  0.0097  0.1048
  480ERGO    R2 5845   4.012   1.365   9.904 -0.1296 -0.0610  0.0089
  480ERGO    R3 5846   3.891   1.203   9.722 -0.0926  0.1878 -0.2439
  480ERGO    R4 5847   4.178   1.169   9.673 -0.0530 -0.1623  0.1471
  480ERGO    R5 5848   4.027   1.223   9.526  0.2177  0.1141 -0.0468
  480ERGO    C1 5849   4.162   0.904   9.367  0.0263  0.0124 -0.0098
  480ERGO    C2 5850   4.170   0.723   9.082 -0.4286  0.0447 -0.3105
  481ERGO   ROH 5851   2.707  11.041   9.775 -0.2150  0.0871  0.0138
  481ERGO    R1 5852   2.891  10.998   9.565 -0.0771  0.1015  0.1309
  481ERGO    R2 5853   3.114  10.836   9.593 -0.1939 -0.0421  0.2121
  481ERGO    R3 5854   3.011  10.713   9.373 -0.0937  0.1413  0.0588
  481ERGO    R4 5855   3.298  10.653   9.365 -0.1182 -0.0545  0.2824
  481ERGO    R5 5856   3.180  10.741   9.205  0.0789  0.1130  0.2189
  481ERGO    C1 5857   3.309  10.430   9.026  0.0201  0.1105  0.1795
  481ERGO    C2 5858   3.482  10.303   8.777 -0.0474  0.2079 -0.1096
  482ERGO   ROH 5859   6.026   4.984   9.801  0.1094 -0.1457 -0.0349
  482ERGO    R1 5860   6.055   5.057   9.529  0.0235 -0.0458 -0.0178
  482ERGO    R2 5861   6.122   4.875   9.333  0.0808  0.0500 -0.0861
  482ERGO    R3 5862   5.896   4.969   9.214  0.0118 -0.0272 -0.0175
  482ERGO    R4 5863   6.041   4.830   9.000  0.0262  0.0700 -0.0757
  482ERGO    R5 5864   5.968   5.036   8.995 -0.0649  0.0412 -0.0236
  482ERGO    C1 5865   5.782   4.893   8.694 -0.0704  0.0092 -0.0051
  482ERGO    C2 5866   5.382   4.693   8.540  0.1313  0.1170 -0.3542
  483ERGO   ROH 5867   3.526   9.191  10.005  0.0924 -0.0040  0.1686
  483ERGO    R1 5868   3.617   9.043   9.782  0.0213 -0.0039  0.1382
  483ERGO    R2 5869   3.527   9.090   9.526 -0.0562  0.0033  0.1599
  483ERGO    R3 5870   3.792   9.113   9.471 -0.0714 -0.0000  0.0888
  483ERGO    R4 5871   3.663   9.085   9.208 -0.1091 -0.1878  0.1394
  483ERGO    R5 5872   3.827   8.964   9.287 -0.0839 -0.1121  0.1830
  483ERGO    C1 5873   3.992   9.103   8.972 -0.1542 -0.3021  0.0609
  483ERGO    C2 5874   4.020   9.407   8.674  0.0758 -0.0980  0.0150
  484ERGO   ROH 5875  12.511  10.263   9.864  0.0636  0.0442 -0.0388
  484ERGO    R1 5876  12.530  10.215   9.586 -0.0342  0.0443 -0.0461
  484ERGO    R2 5877  12.459  10.404   9.397 -0.0012  0.0830 -0.0205
  484ERGO    R3 5878  12.710  10.359   9.304 -0.0460 -0.0275 -0.0904
  484ERGO    R4 5879  12.551  10.411   9.064 -0.0227  0.3883 -0.0225
  484ERGO    R5 5880  12.678  10.238   9.100 -0.1676  0.2337 -0.2309
  484ERGO    C1 5881  12.841  10.373   8.783 -0.0774  0.4625 -0.0892
  484ERGO    C2 5882  12.910  10.413   8.489 -0.1959 -0.0526  0.0112
  485ERGO   ROH 5883  11.024   8.770   9.652  0.3348  0.4280  0.1706
  485ERGO    R1 5884  11.040   8.693   9.380  0.3695  0.2663  0.2189
  485ERGO    R2 5885  10.922   8.838   9.176  0.1107 -0.0361  0.1533
  485ERGO    R3 5886  11.174   8.835   9.073  0.0901  0.2459  0.0831
  485ERGO    R4 5887  10.998   8.840   8.839 -0.0021 -0.1307  0.1259
  485ERGO    R5 5888  11.156   8.696   8.878  0.2125  0.1015  0.1673
  485ERGO    C1 5889  11.277   8.838   8.545 -0.0869  0.0790  0.0444
  485ERGO    C2 5890  11.561   8.951   8.332  0.0122 -0.0580  0.1190
  486ERGO   ROH 5891   4.451  13.834   9.606  0.0761  0.0154  0.1430
  486ERGO    R1 5892   4.575  14.076   9.527  0.0178 -0.0020 -0.0039
  486ERGO    R2 5893   4.839  14.089   9.447 -0.0080 -0.0002 -0.0866
  486ERGO    R3 5894   4.733  14.206   9.226 -0.0886 -0.1150 -0.1110
  486ERGO    R4 5895   5.016  14.285   9.224 -0.2066  0.3667  0.0695
  486ERGO    R5 5896   4.843  14.418   9.212 -0.4346  0.0838  0.0153
  486ERGO    C1 5897   5.019  14.508   8.886 -0.3979  0.4726  0.1374
  486ERGO    C2 5898   5.126  14.767   8.738 -0.2379 -0.1184 -0.0587
  487ERGO   ROH 5899  10.535   2.840   9.866 -0.1961  0.4061 -0.0441
  487ERGO    R1 5900  10.637   2.705   9.639  0.0289  0.3277  0.1002
  487ERGO    R2 5901  10.477   2.630   9.427  0.1798 -0.0354  0.1131
  487ERGO    R3 5902  10.659   2.770   9.282  0.0654  0.0497  0.0487
  487ERGO    R4 5903  10.473   2.661   9.083  0.0387 -0.0418  0.1130
  487ERGO    R5 5904  10.690   2.639   9.083  0.0541  0.0581  0.0374
  487ERGO    C1 5905  10.641   2.810   8.746 -0.1509  0.0343  0.0526
  487ERGO    C2 5906  10.698   2.834   8.405  0.0212  0.1590 -0.0983
  488ERGO   ROH 5907   1.758  11.379   9.653  0.1328 -0.0326  0.0906
  488ERGO    R1 5908   1.627  11.305   9.414  0.0198  0.1893  0.0811
  488ERGO    R2 5909   1.667  11.437   9.175  0.2688  0.1208  0.0852
  488ERGO    R3 5910   1.725  11.188   9.084 -0.1534  0.0116  0.0891
  488ERGO    R4 5911   1.742  11.360   8.847  0.6140  0.0913  0.1674
  488ERGO    R5 5912   1.623  11.178   8.867  0.1543  0.3398 -0.0853
  488ERGO    C1 5913   1.841  11.080   8.570  0.4187 -0.0284  0.2190
  488ERGO    C2 5914   1.900  11.082   8.245 -0.1201 -0.0835  0.3066
  489ERGO   ROH 5915   5.555  12.000   9.858 -0.0661 -0.1214  0.0261
  489ERGO    R1 5916   5.318  11.876   9.763 -0.0710 -0.0588 -0.0451
  489ERGO    R2 5917   5.078  12.011   9.744 -0.0753 -0.0476  0.0659
  489ERGO    R3 5918   5.088  11.925   9.486 -0.0908  0.1339  0.0037
  489ERGO    R4 5919   4.802  11.934   9.551 -0.0799 -0.1314  0.1064
  489ERGO    R5 5920   4.911  11.763   9.471  0.0287  0.0060 -0.0456
  489ERGO    C1 5921   4.650  11.808   9.197 -0.0970 -0.0098  0.0715
  489ERGO    C2 5922   4.557  11.772   8.923 -0.3449  0.0956  0.2817
  490ERGO   ROH 5923  17.018   5.844  10.619 -0.2603  0.1570  0.1017
  490ERGO    R1 5924  16.949   5.932  10.359  0.0151  0.1719  0.0307
  490ERGO    R2 5925  17.134   6.043  10.186  0.2604 -0.0647  0.1287
  490ERGO    R3 5926  17.045   5.848  10.018  0.1672 -0.0128  0.1184
  490ERGO    R4 5927  17.159   6.053   9.842  0.2065 -0.0417  0.1256
  490ERGO    R5 5928  16.959   5.968   9.830  0.1802  0.0320  0.1459
  490ERGO    C1 5929  17.090   5.876   9.483  0.0878  0.0203  0.1141
  490ERGO    C2 5930  16.966   5.834   9.122 -0.1415  0.2405 -0.1223
  491ERGO   ROH 5931  17.784  10.109  10.255 -0.0118 -0.0388  0.1083
  491ERGO    R1 5932  17.855  10.327  10.088 -0.0781 -0.0499  0.0646
  491ERGO    R2 5933  18.064  10.314   9.908 -0.0270  0.0010  0.1153
  491ERGO    R3 5934  17.873  10.391   9.730 -0.0261 -0.1429  0.0513
  491ERGO    R4 5935  18.114  10.352   9.568 -0.0027 -0.1558  0.1009
  491ERGO    R5 5936  17.989  10.531   9.575 -0.0517 -0.1903 -0.0061
  491ERGO    C1 5937  17.963  10.446   9.204  0.0126 -0.3823  0.0324
  491ERGO    C2 5938  17.854  10.530   8.961  0.0968  0.1589 -0.0309
  492ERGO   ROH 5939   0.661   8.350  10.359 -0.1141  0.0264  0.1127
  492ERGO    R1 5940   0.789   8.172  10.181  0.0817  0.2315  0.0467
  492ERGO    R2 5941   0.672   7.937  10.094  0.4068  0.0547  0.1000
  492ERGO    R3 5942   0.725   8.039   9.848  0.1351  0.1391  0.0697
  492ERGO    R4 5943   0.608   7.774   9.796  0.3385  0.0142  0.1350
  492ERGO    R5 5944   0.799   7.849   9.721  0.2264  0.2087  0.0014
  492ERGO    C1 5945   0.622   7.774   9.391  0.0437  0.0699  0.1268
  492ERGO    C2 5946   0.363   7.794   9.154 -0.3299 -0.1575 -0.0649
  493ERGO   ROH 5947  16.327  12.810   9.716  0.1601 -0.1071 -0.0886
  493ERGO    R1 5948  16.422  12.801   9.450  0.1800  0.0440 -0.0872
  493ERGO    R2 5949  16.260  12.857   9.232  0.1302 -0.0779 -0.0802
  493ERGO    R3 5950  16.455  13.036   9.174 -0.0497  0.1369 -0.0392
  493ERGO    R4 5951  16.311  13.000   8.922  0.1586 -0.1785 -0.1228
  493ERGO    R5 5952  16.525  12.978   8.952  0.1713  0.1025  0.0353
  493ERGO    C1 5953  16.524  13.252   8.686  0.0063 -0.0355 -0.1090
  493ERGO    C2 5954  16.542  13.453   8.437  0.0071  0.1698  0.0971
  494ERGO   ROH 5955  16.505   5.760  10.283  0.0266  0.0081 -0.0105
  494ERGO    R1 5956  16.614   5.760  10.021  0.0017 -0.0731 -0.0213
  494ERGO    R2 5957  16.481   5.653   9.804 -0.0556 -0.0663  0.0092
  494ERGO    R3 5958  16.524   5.899   9.697  0.0163 -0.0981 -0.0356
  494ERGO    R4 5959  16.450   5.730   9.469 -0.2610 -0.0627  0.0280
  494ERGO    R5 5960  16.628   5.855   9.486 -0.1703 -0.1727 -0.1131
  494ERGO    C1 5961  16.471   6.007   9.173 -0.3130 -0.0905 -0.0030
  494ERGO    C2 5962  16.572   6.170   8.903 -0.5285 -0.3245  0.0517
  495ERGO   ROH 5963  15.003  15.349   9.927 -0.0169 -0.0882  0.0294
  495ERGO    R1 5964  14.924  15.353   9.655  0.0021 -0.0031  0.0244
  495ERGO    R2 5965  14.769  15.555   9.548  0.0886  0.0814  0.0530
  495ERGO    R3 5966  14.973  15.572   9.369  0.1089  0.0350  0.0717
  495ERGO    R4 5967  14.736  15.654   9.218  0.1193 -0.0659  0.0050
  495ERGO    R5 5968  14.877  15.498   9.162  0.1489 -0.0678  0.0906
  495ERGO    C1 5969  14.908  15.727   8.859  0.1561 -0.1953 -0.0053
  495ERGO    C2 5970  14.865  15.918   8.557  0.1207  0.0217  0.1147
  496ERGO   ROH 5971   7.113   7.192   9.324  0.0702  0.1309  0.0691
  496ERGO    R1 5972   6.965   7.293   9.105  0.0441  0.0444  0.0461
  496ERGO    R2 5973   7.070   7.475   8.926 -0.0221  0.0787  0.0391
  496ERGO    R3 5974   6.995   7.290   8.742  0.0811  0.0263  0.0497
  496ERGO    R4 5975   7.054   7.530   8.585 -0.1070  0.0646  0.0409
  496ERGO    R5 5976   6.870   7.414   8.580 -0.0265 -0.0622  0.0660
  496ERGO    C1 5977   6.974   7.388   8.214 -0.0597  0.0070  0.0521
  496ERGO    C2 5978   7.114   7.281   7.922  0.1235  0.2668 -0.0746
  497ERGO   ROH 5979  11.032   1.227   9.478 -0.0387  0.0970 -0.0704
  497ERGO    R1 5980  11.130   1.372   9.256 -0.0062  0.0274 -0.1018
  497ERGO    R2 5981  11.266   1.251   9.048 -0.0480 -0.0504 -0.0846
  497ERGO    R3 5982  11.076   1.372   8.896 -0.0196 -0.0255 -0.1001
  497ERGO    R4 5983  11.310   1.353   8.720  0.0131 -0.0007 -0.0609
  497ERGO    R5 5984  11.197   1.533   8.766  0.0061 -0.0064 -0.0533
  497ERGO    C1 5985  11.158   1.525   8.387  0.0754  0.0517 -0.0618
  497ERGO    C2 5986  11.288   1.507   8.121 -0.2136 -0.0257  0.0917
  498ERGO   ROH 5987  10.729   4.055   9.829  0.2428 -0.1639  0.1598
  498ERGO    R1 5988  10.817   4.182   9.592 -0.0573 -0.0697  0.0975
  498ERGO    R2 5989  11.021   4.081   9.436 -0.0464  0.1628 -0.0232
  498ERGO    R3 5990  10.836   4.098   9.238 -0.1879 -0.0543  0.0830
  498ERGO    R4 5991  11.078   4.000   9.105 -0.1084  0.2767 -0.0641
  498ERGO    R5 5992  10.959   4.174   9.048 -0.3791  0.1405  0.0218
  498ERGO    C1 5993  10.937   3.970   8.726 -0.2773  0.1392  0.0117
  498ERGO    C2 5994  10.933   3.971   8.405 -0.1347 -0.0793  0.0955
  499ERGO   ROH 5995  13.372   5.476  10.425  0.0232  0.1016  0.0022
  499ERGO    R1 5996  13.373   5.544  10.150  0.0891  0.0480 -0.0113
  499ERGO    R2 5997  13.589   5.495   9.985  0.1171 -0.0140  0.0422
  499ERGO    R3 5998  13.404   5.367   9.834  0.1302 -0.0184  0.0298
  499ERGO    R4 5999  13.586   5.489   9.640  0.0267  0.1494  0.0394
  499ERGO    R5 6000  13.369   5.512   9.647  0.0198  0.0567  0.1080
  499ERGO    C1 6001  13.409   5.365   9.297 -0.0136  0.2404  0.0261
  499ERGO    C2 6002  13.417   5.392   9.057  0.1083  0.0818 -0.2136
  500ERGO   ROH 6003  15.153   2.085  10.233 -0.1635  0.0150  0.1025
  500ERGO    R1 6004  15.233   1.943  10.001  0.0247  0.0904  0.1192
  500ERGO    R2 6005  15.051   1.832   9.824  0.1659 -0.2005  0.1499
  500ERGO    R3 6006  15.189   1.978   9.642 -0.0546 -0.0264  0.1165
  500ERGO    R4 6007  15.038   1.786   9.482  0.2920 -0.3461  0.1634
  500ERGO    R5 6008  15.252   1.820   9.473  0.2397  0.0168  0.1819
  500ERGO    C1 6009  15.160   1.897   9.111  0.1586 -0.2675  0.1399
  500ERGO    C2 6010  15.205   1.935   8.803  0.2345 -0.0965  0.1272
  501ERGO   ROH 6011  15.336   7.889  10.297  0.0303 -0.0129  0.0950
  501ERGO    R1 6012  15.528   7.824  10.099  0.0055 -0.0906  0.0947
  501ERGO    R2 6013  15.496   7.612   9.925 -0.0730 -0.0902  0.1010
  501ERGO    R3 6014  15.536   7.802   9.736 -0.0100 -0.1089  0.0966
  501ERGO    R4 6015  15.546   7.548   9.589 -0.1526 -0.1059  0.0927
  501ERGO    R5 6016  15.697   7.706   9.587 -0.0805 -0.1807  0.0713
  501ERGO    C1 6017  15.612   7.691   9.215 -0.1398 -0.1326  0.0839
  501ERGO    C2 6018  15.511   7.456   8.946  0.0294 -0.0340  0.1132
  502ERGO   ROH 6019  13.429  10.349   9.926  0.0093 -0.1932  0.1821
  502ERGO    R1 6020  13.615  10.211   9.764  0.0038 -0.1189  0.1119
  502ERGO    R2 6021  13.547  10.100   9.520  0.0015  0.0141  0.0524
  502ERGO    R3 6022  13.756  10.250   9.430  0.0124  0.0485  0.1337
  502ERGO    R4 6023  13.725  10.039   9.230  0.0665  0.0901  0.0761
  502ERGO    R5 6024  13.907  10.091   9.336  0.0420  0.0767  0.1296
  502ERGO    C1 6025  14.024  10.144   8.977  0.1147  0.1664  0.1660
  502ERGO    C2 6026  14.109  10.103   8.655 -0.2785 -0.2059  0.0088
  503ERGO   ROH 6027  11.322  10.809   9.890  0.0408 -0.0745 -0.0909
  503ERGO    R1 6028  11.317  10.985   9.668  0.1226  0.0349 -0.0069
  503ERGO    R2 6029  11.513  10.985   9.473  0.1315  0.0475 -0.0004
  503ERGO    R3 6030  11.301  10.954   9.306  0.1235  0.2146 -0.0225
  503ERGO    R4 6031  11.513  11.063   9.137  0.2730 -0.0988 -0.0356
  503ERGO    R5 6032  11.312  11.143   9.160  0.3594  0.1385 -0.1041
  503ERGO    C1 6033  11.314  11.080   8.784  0.3480 -0.0271 -0.0770
  503ERGO    C2 6034  11.253  10.991   8.372 -0.0111 -0.3122 -0.1773
  504ERGO   ROH 6035   2.035   8.947  10.100  0.2694  0.3003  0.0633
  504ERGO    R1 6036   1.953   8.918   9.830  0.0983  0.3823  0.1047
  504ERGO    R2 6037   2.030   9.092   9.631  0.1873  0.2975  0.0585
  504ERGO    R3 6038   2.114   8.865   9.509 -0.1193  0.1994  0.0243
  504ERGO    R4 6039   2.091   9.060   9.292  0.1974  0.2742  0.0632
  504ERGO    R5 6040   1.999   8.863   9.299 -0.0864  0.4053  0.0067
  504ERGO    C1 6041   2.205   8.827   8.980 -0.0844  0.1686  0.0339
  504ERGO    C2 6042   2.170   8.665   8.719  0.0352  0.2300 -0.3889
  505ERGO   ROH 6043   2.230   3.607  10.221  0.3413 -0.1480  0.1300
  505ERGO    R1 6044   2.245   3.346  10.115  0.2322 -0.0899 -0.0295
  505ERGO    R2 6045   2.021   3.192  10.066  0.1777 -0.0158  0.0064
  505ERGO    R3 6046   2.126   3.175   9.816  0.0349  0.1019 -0.0646
  505ERGO    R4 6047   1.920   2.967   9.824  0.0802  0.0515 -0.0171
  505ERGO    R5 6048   2.129   2.940   9.769  0.0576  0.1169 -0.1521
  505ERGO    C1 6049   1.960   2.819   9.449 -0.1106  0.2011 -0.0975
  505ERGO    C2 6050   1.935   2.739   9.139  0.1412 -0.0262 -0.0173
  506ERGO   ROH 6051  13.986   7.983  10.117 -0.0942 -0.0365 -0.0247
  506ERGO    R1 6052  13.944   7.825   9.886 -0.1334 -0.0273 -0.0253
  506ERGO    R2 6053  13.704   7.824   9.748 -0.1370  0.0338 -0.0306
  506ERGO    R3 6054  13.863   7.885   9.537 -0.1158 -0.0045 -0.0241
  506ERGO    R4 6055  13.637   7.742   9.419 -0.1269  0.0325 -0.0312
  506ERGO    R5 6056  13.847   7.695   9.393 -0.1381 -0.0037 -0.0168
  506ERGO    C1 6057  13.748   7.752   9.029 -0.1012 -0.0041 -0.0254
  506ERGO    C2 6058  13.862   7.712   8.663  0.1113 -0.0680 -0.0943
  507ERGO   ROH 6059  14.722  12.078   9.799  0.2022 -0.0712 -0.0431
  507ERGO    R1 6060  14.886  12.063   9.569  0.2027 -0.2050 -0.0363
  507ERGO    R2 6061  14.984  11.825   9.473 -0.1259 -0.3128 -0.1338
  507ERGO    R3 6062  14.868  11.907   9.241  0.0019 -0.0411 -0.1044
  507ERGO    R4 6063  15.068  11.707   9.159 -0.0109  0.0047 -0.2254
  507ERGO    R5 6064  15.049  11.911   9.083  0.0717  0.0874 -0.0174
  507ERGO    C1 6065  15.007  11.715   8.759  0.1761  0.4447 -0.2509
  507ERGO    C2 6066  15.257  11.520   8.559  0.0897 -0.1137 -0.0623
  508ERGO   ROH 6067   1.655  10.234   9.906 -0.0997 -0.0433 -0.1806
  508ERGO    R1 6068   1.617  10.150   9.639 -0.0015  0.0673 -0.2280
  508ERGO    R2 6069   1.721  10.288   9.423  0.2528  0.0392 -0.1151
  508ERGO    R3 6070   1.830  10.046   9.362  0.0849 -0.0367 -0.1275
  508ERGO    R4 6071   1.778  10.174   9.102  0.2033  0.0456 -0.1278
  508ERGO    R5 6072   1.710   9.976   9.166  0.0471  0.0782 -0.1551
  508ERGO    C1 6073   1.913   9.880   8.857  0.0167 -0.0220 -0.1470
  508ERGO    C2 6074   1.985   9.636   8.670 -0.0736  0.2287 -0.0139
  509ERGO   ROH 6075  13.255  12.295   9.703  0.2290  0.0405 -0.0007
  509ERGO    R1 6076  13.236  12.240   9.426  0.1791 -0.3273  0.0722
  509ERGO    R2 6077  13.313  12.421   9.232 -0.3857 -0.3484 -0.1866
  509ERGO    R3 6078  13.466  12.214   9.145  0.0705 -0.0902 -0.0432
  509ERGO    R4 6079  13.418  12.377   8.906 -0.6718 -0.5579 -0.2552
  509ERGO    R5 6080  13.378  12.164   8.927 -0.0810 -0.6561  0.1272
  509ERGO    C1 6081  13.621  12.157   8.633 -0.4100 -0.4373 -0.1603
  509ERGO    C2 6082  13.772  12.323   8.337  0.2076  0.1307  0.0177
  510ERGO   ROH 6083   5.235   4.482   9.721  0.1342  0.0443  0.0225
  510ERGO    R1 6084   5.240   4.516   9.440  0.1517 -0.0032  0.0167
  510ERGO    R2 6085   5.286   4.307   9.266  0.1153 -0.0427  0.0518
  510ERGO    R3 6086   5.052   4.390   9.155  0.1360 -0.0122  0.0316
  510ERGO    R4 6087   5.211   4.290   8.929  0.1153 -0.0907  0.0543
  510ERGO    R5 6088   5.117   4.487   8.946  0.1594 -0.0677  0.0142
  510ERGO    C1 6089   4.947   4.359   8.629  0.1347 -0.0900  0.0367
  510ERGO    C2 6090   5.121   4.302   8.307 -0.3192 -0.0421 -0.0870
  511ERGO   ROH 6091   5.912   1.545   9.678 -0.3446 -0.1246  0.1994
  511ERGO    R1 6092   5.762   1.360   9.525 -0.3670 -0.0315  0.1071
  511ERGO    R2 6093   5.650   1.425   9.282 -0.1643  0.0356  0.0275
  511ERGO    R3 6094   5.788   1.207   9.195 -0.2486 -0.0588  0.1293
  511ERGO    R4 6095   5.571   1.241   9.000 -0.0285  0.1429 -0.0818
  511ERGO    R5 6096   5.619   1.059   9.112 -0.2820  0.0868 -0.0635
  511ERGO    C1 6097   5.656   0.928   8.755 -0.0286  0.1167 -0.0499
  511ERGO    C2 6098   5.787   0.809   8.435  0.2210  0.1005 -0.0151
  512ERGO   ROH 6099   1.799   2.234  10.457  0.1125 -0.1209 -0.1434
  512ERGO    R1 6100   1.717   2.036  10.272  0.0888 -0.1625 -0.0907
  512ERGO    R2 6101   1.526   2.084  10.078 -0.0044 -0.2310 -0.0261
  512ERGO    R3 6102   1.721   1.994   9.911 -0.0419 -0.1955 -0.0871
  512ERGO    R4 6103   1.471   1.906   9.786 -0.0527 -0.2649  0.0049
  512ERGO    R5 6104   1.642   1.781   9.836 -0.0099 -0.2164 -0.0470
  512ERGO    C1 6105   1.621   1.719   9.460 -0.1162 -0.2513 -0.0342
  512ERGO    C2 6106   1.580   1.763   9.123  0.0908 -0.1607 -0.0412
  513ERGO   ROH 6107  11.856   0.731   9.544 -0.1646 -0.0877 -0.0484
  513ERGO    R1 6108  11.863   0.753   9.261 -0.2460 -0.0786 -0.0498
  513ERGO    R2 6109  12.084   0.681   9.112 -0.2234  0.0970 -0.1010
  513ERGO    R3 6110  11.905   0.526   8.980 -0.1320 -0.0431 -0.0624
  513ERGO    R4 6111  12.102   0.600   8.777 -0.2942  0.2149 -0.1339
  513ERGO    R5 6112  11.886   0.627   8.764 -0.3305  0.0056 -0.0260
  513ERGO    C1 6113  11.945   0.407   8.457 -0.2496  0.1520 -0.1168
  513ERGO    C2 6114  11.797   0.308   8.191  0.0575  0.2115 -0.2672
  514ERGO   ROH 6115   4.818   6.117   9.952  0.3652  0.0461  0.0679
  514ERGO    R1 6116   4.958   6.105   9.706  0.2264 -0.0167 -0.0110
  514ERGO    R2 6117   4.929   5.894   9.529  0.1780 -0.1019  0.0847
  514ERGO    R3 6118   4.870   6.093   9.353  0.0192 -0.1844  0.0461
  514ERGO    R4 6119   5.020   5.899   9.195  0.1595 -0.0898  0.0815
  514ERGO    R5 6120   5.064   6.111   9.214 -0.0056 -0.0581  0.0358
  514ERGO    C1 6121   5.017   6.088   8.837 -0.0002 -0.1603  0.0432
  514ERGO    C2 6122   4.983   6.025   8.567 -0.1926 -0.0884 -0.0747
  515ERGO   ROH 6123   0.189   3.710  10.571  0.0047 -0.2020  0.0639
  515ERGO    R1 6124   0.296   3.808  10.328  0.1089 -0.3558  0.0456
  515ERGO    R2 6125   0.299   3.659  10.095 -0.3235 -0.2981 -0.0063
  515ERGO    R3 6126   0.172   3.877   9.993  0.0929  0.0183  0.1245
  515ERGO    R4 6127   0.253   3.721   9.759 -0.3896 -0.1109  0.0363
  515ERGO    R5 6128   0.297   3.931   9.796  0.1012 -0.2084  0.0661
  515ERGO    C1 6129   0.107   3.962   9.466 -0.0373  0.2951  0.1838
  515ERGO    C2 6130  -0.018   3.993   9.092  0.0744  0.2838  0.1404
  516ERGO   ROH 6131   9.280  16.921   9.620  0.0177  0.1133 -0.1589
  516ERGO    R1 6132   9.244  16.793   9.370 -0.0482 -0.0810 -0.0519
  516ERGO    R2 6133   9.058  16.592   9.332 -0.2934  0.1155  0.0712
  516ERGO    R3 6134   8.973  16.753   9.130 -0.0089  0.0373 -0.1167
  516ERGO    R4 6135   8.964  16.483   9.018 -0.3018 -0.0631  0.1353
  516ERGO    R5 6136   9.066  16.655   8.932 -0.0484 -0.2682  0.0111
  516ERGO    C1 6137   8.829  16.570   8.646 -0.0397 -0.2407 -0.0039
  516ERGO    C2 6138   8.689  16.396   8.344  0.0329  0.1765 -0.0275
  517ERGO   ROH 6139  10.221   7.314  10.052 -0.0086 -0.0490 -0.1846
  517ERGO    R1 6140  10.243   7.213   9.788  0.1956 -0.1527 -0.1294
  517ERGO    R2 6141  10.212   7.373   9.565 -0.0337 -0.3169 -0.2169
  517ERGO    R3 6142  10.456   7.274   9.499  0.1445  0.0463 -0.1274
  517ERGO    R4 6143  10.358   7.400   9.253 -0.1209 -0.4051 -0.2660
  517ERGO    R5 6144  10.430   7.195   9.274  0.2552 -0.2609 -0.0384
  517ERGO    C1 6145  10.672   7.322   9.009 -0.0045 -0.1156 -0.2106
  517ERGO    C2 6146  10.695   7.503   8.692 -0.0444  0.5213  0.0073
  518ERGO   ROH 6147   8.030   8.211   9.952 -0.1313  0.1024  0.0277
  518ERGO    R1 6148   7.977   8.179   9.676 -0.2447  0.1638  0.0424
  518ERGO    R2 6149   7.879   8.384   9.518  0.0884  0.3253  0.0431
  518ERGO    R3 6150   8.096   8.327   9.365 -0.0390 -0.0812 -0.0000
  518ERGO    R4 6151   7.940   8.516   9.205  0.2042  0.1101 -0.0282
  518ERGO    R5 6152   8.011   8.320   9.141 -0.1207 -0.0369  0.0258
  518ERGO    C1 6153   8.180   8.540   8.879  0.1521 -0.3968 -0.1102
  518ERGO    C2 6154   8.176   8.459   8.641  0.2580 -0.0366  0.3883
  519ERGO   ROH 6155  15.185   5.477  10.368 -0.1251 -0.2446  0.0596
  519ERGO    R1 6156  15.241   5.497  10.091 -0.1683 -0.1255  0.0593
  519ERGO    R2 6157  15.470   5.391   9.978 -0.2014 -0.1025 -0.0259
  519ERGO    R3 6158  15.293   5.266   9.814 -0.2429 -0.0054 -0.0564
  519ERGO    R4 6159  15.547   5.257   9.669 -0.2208 -0.1366 -0.0163
  519ERGO    R5 6160  15.357   5.334   9.594 -0.1701 -0.0335 -0.0454
  519ERGO    C1 6161  15.425   5.062   9.335 -0.2706 -0.0654 -0.0394
  519ERGO    C2 6162  15.653   4.971   9.009  0.4828 -0.0919 -0.3097
  520ERGO   ROH 6163   5.990   2.962   9.924  0.3171  0.2341 -0.0842
  520ERGO    R1 6164   6.027   2.983   9.644  0.2019  0.1307 -0.1080
  520ERGO    R2 6165   6.030   2.763   9.477  0.1272  0.0708 -0.0281
  520ERGO    R3 6166   5.837   2.900   9.345  0.0764  0.0260 -0.0011
  520ERGO    R4 6167   5.949   2.718   9.144  0.1598  0.1139 -0.0420
  520ERGO    R5 6168   5.927   2.934   9.126  0.0742  0.1131  0.0090
  520ERGO    C1 6169   5.720   2.821   8.826  0.1311  0.0970 -0.0247
  520ERGO    C2 6170   5.527   2.611   8.631 -0.0874 -0.0871  0.1403
  521ERGO   ROH 6171  17.853   9.671  10.168 -0.1163  0.2490  0.0226
  521ERGO    R1 6172  17.729   9.745   9.925 -0.0308  0.1483 -0.0534
  521ERGO    R2 6173  17.819   9.956   9.770  0.0842  0.0254 -0.1619
  521ERGO    R3 6174  17.826   9.766   9.575  0.0644 -0.0984 -0.0431
  521ERGO    R4 6175  17.818  10.022   9.431 -0.0175 -0.1963 -0.2059
  521ERGO    R5 6176  17.683   9.853   9.403  0.0059 -0.2358 -0.0617
  521ERGO    C1 6177  17.823   9.883   9.050 -0.0955 -0.4415 -0.1200
  521ERGO    C2 6178  17.841   9.969   8.724 -0.2453 -0.0502 -0.0526
  522ERGO   ROH 6179   3.755   0.557  10.066  0.2791 -0.0551 -0.0911
  522ERGO    R1 6180   3.657   0.606   9.805  0.1042 -0.0165 -0.0196
  522ERGO    R2 6181   3.726   0.830   9.659 -0.0509  0.0428 -0.0067
  522ERGO    R3 6182   3.799   0.646   9.472 -0.1104  0.1107 -0.0971
  522ERGO    R4 6183   3.675   0.864   9.319 -0.2179  0.1335  0.0265
  522ERGO    R5 6184   3.621   0.652   9.311 -0.1868  0.1289 -0.0110
  522ERGO    C1 6185   3.712   0.711   8.946 -0.3711  0.2500 -0.0389
  522ERGO    C2 6186   3.802   0.898   8.728  0.0362  0.0417  0.0399
  523ERGO   ROH 6187  11.672   4.261  10.084  0.1809 -0.1651  0.1137
  523ERGO    R1 6188  11.862   4.294   9.877  0.0075 -0.0048 -0.0240
  523ERGO    R2 6189  11.947   4.084   9.719  0.2056  0.0270  0.0347
  523ERGO    R3 6190  11.870   4.247   9.516 -0.1580 -0.1848 -0.0054
  523ERGO    R4 6191  12.056   4.056   9.392  0.4808  0.3415  0.0940
  523ERGO    R5 6192  12.068   4.274   9.383 -0.1454  0.3926  0.1069
  523ERGO    C1 6193  12.047   4.193   9.011  0.2996  0.3259  0.0909
  523ERGO    C2 6194  11.848   4.146   8.652  0.3809 -0.1118 -0.1729
  524ERGO   ROH 6195  10.498  12.658   9.598  0.0864 -0.3834 -0.0640
  524ERGO    R1 6196  10.476  12.727   9.324  0.0329 -0.2326 -0.0231
  524ERGO    R2 6197  10.697  12.775   9.165  0.0012 -0.0390 -0.0166
  524ERGO    R3 6198  10.583  12.586   9.007  0.0727 -0.0007 -0.1142
  524ERGO    R4 6199  10.707  12.774   8.820  0.0396  0.1126 -0.0163
  524ERGO    R5 6200  10.500  12.708   8.819  0.0607  0.0558 -0.0697
  524ERGO    C1 6201  10.606  12.596   8.470  0.1292  0.2370 -0.1078
  524ERGO    C2 6202  10.747  12.326   8.156 -0.0153 -0.0446 -0.1358
  525ERGO   ROH 6203   8.785  17.028   9.561  0.0656 -0.1918 -0.1247
  525ERGO    R1 6204   8.767  17.216   9.350 -0.0877 -0.0565  0.0077
  525ERGO    R2 6205   8.735  17.141   9.086  0.1109  0.0960 -0.0564
  525ERGO    R3 6206   8.521  17.308   9.098 -0.1074 -0.1763 -0.0203
  525ERGO    R4 6207   8.580  17.282   8.812  0.2970  0.3882 -0.0166
  525ERGO    R5 6208   8.562  17.468   8.924 -0.0649  0.1839  0.3001
  525ERGO    C1 6209   8.289  17.521   8.662  0.2004  0.3028  0.0403
  525ERGO    C2 6210   8.206  17.833   8.350 -0.3127 -0.2218 -0.2147
  526ERGO   ROH 6211   1.312  11.114   9.734 -0.0175 -0.0469 -0.1610
  526ERGO    R1 6212   1.255  10.994   9.484 -0.0377 -0.0261 -0.1663
  526ERGO    R2 6213   1.067  11.097   9.309  0.0063  0.0343 -0.1778
  526ERGO    R3 6214   1.275  11.090   9.134  0.0164 -0.0283 -0.1640
  526ERGO    R4 6215   1.039  11.023   8.973  0.0124  0.0035 -0.1717
  526ERGO    R5 6216   1.223  10.907   8.988 -0.0126 -0.0338 -0.1473
  526ERGO    C1 6217   1.218  10.973   8.612  0.0254 -0.0732 -0.1551
  526ERGO    C2 6218   1.431  10.891   8.338  0.1495  0.1425  0.3736
  527ERGO   ROH 6219   1.931  15.197  10.350 -0.0305 -0.2063  0.0745
  527ERGO    R1 6220   1.827  15.332  10.124  0.0328 -0.1430  0.0823
  527ERGO    R2 6221   1.643  15.215   9.953 -0.0238 -0.0447  0.0757
  527ERGO    R3 6222   1.499  15.439  10.008  0.0830  0.0209  0.0884
  527ERGO    R4 6223   1.510  15.428   9.716  0.1274  0.0604  0.0842
  527ERGO    R5 6224   1.567  15.597   9.841  0.1947  0.0120  0.1227
  527ERGO    C1 6225   1.296  15.762   9.629  0.3157  0.1832  0.1012
  527ERGO    C2 6226   1.201  16.126   9.626  0.3053 -0.1330  0.0822
  528ERGO   ROH 6227   9.178  14.289   9.634  0.0550  0.0199  0.0120
  528ERGO    R1 6228   9.039  14.144   9.435  0.0710 -0.0016  0.0153
  528ERGO    R2 6229   9.024  14.228   9.172  0.0794 -0.0209  0.0042
  528ERGO    R3 6230   9.122  13.979   9.122  0.0962 -0.0189  0.0323
  528ERGO    R4 6231   9.005  14.066   8.867  0.1286 -0.0459  0.0150
  528ERGO    R5 6232   8.961  13.881   8.974  0.1241 -0.0376  0.0192
  528ERGO    C1 6233   9.085  13.739   8.642  0.1732 -0.0587  0.0477
  528ERGO    C2 6234   9.077  13.592   8.298  0.0342 -0.0948  0.1384
  529ERGO   ROH 6235  16.787  15.713   9.952 -0.1079  0.2849 -0.0235
  529ERGO    R1 6236  16.870  15.857   9.723 -0.2606  0.4611  0.0296
  529ERGO    R2 6237  16.928  15.734   9.482  0.2890  0.5538  0.1052
  529ERGO    R3 6238  16.746  15.910   9.385 -0.0895  0.0735 -0.1002
  529ERGO    R4 6239  16.881  15.804   9.147  0.4275  0.3604  0.0428
  529ERGO    R5 6240  16.857  16.014   9.200 -0.1692  0.3265 -0.0126
  529ERGO    C1 6241  16.682  16.011   8.861  0.1527 -0.2029 -0.1865
  529ERGO    C2 6242  16.714  16.057   8.544  0.1195 -0.1998  0.1269
  530ERGO   ROH 6243  12.529  13.040   9.715 -0.1028 -0.0823 -0.0439
  530ERGO    R1 6244  12.651  13.050   9.460  0.1193  0.0985  0.0647
  530ERGO    R2 6245  12.537  12.934   9.237  0.4921 -0.0779 -0.0449
  530ERGO    R3 6246  12.567  13.183   9.132  0.2136 -0.0270 -0.0105
  530ERGO    R4 6247  12.580  13.003   8.901  0.3384  0.0302 -0.0431
  530ERGO    R5 6248  12.727  13.155   8.956  0.1984  0.1689 -0.0552
  530ERGO    C1 6249  12.634  13.278   8.607 -0.0125  0.1410 -0.0097
  530ERGO    C2 6250  12.690  13.164   8.311  0.0488 -0.1521 -0.1258
  531ERGO   ROH 6251   7.903   3.831   9.511  0.0949  0.1170  0.0527
  531ERGO    R1 6252   7.985   3.870   9.243  0.0423  0.0535  0.0266
  531ERGO    R2 6253   8.152   3.693   9.111  0.0904  0.0664  0.0641
  531ERGO    R3 6254   7.951   3.692   8.927  0.0613 -0.0716  0.0958
  531ERGO    R4 6255   8.198   3.687   8.769  0.0339  0.1684  0.0544
  531ERGO    R5 6256   8.034   3.829   8.749 -0.0890  0.0298  0.1063
  531ERGO    C1 6257   8.037   3.683   8.397 -0.0265  0.0984  0.0784
  531ERGO    C2 6258   8.073   3.581   8.081 -0.0300  0.0017 -0.3057
  532ERGO   ROH 6259  13.430  16.554   9.895 -0.1378  0.3278  0.0531
  532ERGO    R1 6260  13.538  16.580   9.634 -0.2333  0.1414 -0.0059
  532ERGO    R2 6261  13.478  16.793   9.469 -0.1435  0.1203 -0.0625
  532ERGO    R3 6262  13.749  16.817   9.457 -0.1277 -0.0892 -0.1972
  532ERGO    R4 6263  13.654  16.913   9.196 -0.2132  0.2363 -0.0570
  532ERGO    R5 6264  13.804  16.759   9.231 -0.3129  0.0762 -0.2907
  532ERGO    C1 6265  14.010  17.006   9.026 -0.2389  0.1072 -0.1802
  532ERGO    C2 6266  14.082  17.183   8.787 -0.1966 -0.1399  0.3287
  533ERGO   ROH 6267   5.685   9.964   9.882 -0.0561 -0.1834 -0.1208
  533ERGO    R1 6268   5.581   9.979   9.619 -0.0943 -0.0803 -0.1015
  533ERGO    R2 6269   5.369  10.143   9.552 -0.0003  0.0790 -0.0459
  533ERGO    R3 6270   5.542  10.235   9.364  0.0390 -0.0198 -0.0573
  533ERGO    R4 6271   5.279  10.328   9.274  0.0974  0.0422 -0.1018
  533ERGO    R5 6272   5.424  10.213   9.157  0.0608 -0.0247 -0.0594
  533ERGO    C1 6273   5.390  10.521   8.935  0.1912 -0.0721 -0.1451
  533ERGO    C2 6274   5.381  10.719   8.562 -0.0372 -0.0891 -0.1688
  534ERGO   ROH 6275   9.733  10.223  10.098 -0.1365 -0.0040  0.2163
  534ERGO    R1 6276   9.784  10.164   9.826 -0.0193 -0.1206  0.2623
  534ERGO    R2 6277   9.783   9.907   9.726 -0.0918 -0.1550  0.3497
  534ERGO    R3 6278   9.603  10.010   9.551  0.0511 -0.1245  0.2185
  534ERGO    R4 6279   9.730   9.789   9.406  0.0852 -0.1700  0.3248
  534ERGO    R5 6280   9.712   9.996   9.338  0.1852 -0.1740  0.2914
  534ERGO    C1 6281   9.531   9.818   9.054  0.3223 -0.1500  0.1871
  534ERGO    C2 6282   9.632   9.807   8.735  0.0566 -0.3764 -0.1727
  535ERGO   ROH 6283   9.948   5.667   9.802  0.1120 -0.0082  0.0668
  535ERGO    R1 6284   9.894   5.850   9.593 -0.0148 -0.0321  0.0776
  535ERGO    R2 6285  10.083   5.922   9.405 -0.0287  0.1925  0.1422
  535ERGO    R3 6286   9.891   5.842   9.229  0.1029  0.0161  0.0765
  535ERGO    R4 6287  10.085   5.989   9.066  0.0527  0.1308  0.1307
  535ERGO    R5 6288   9.871   6.025   9.076  0.0234 -0.0304  0.0356
  535ERGO    C1 6289   9.907   5.954   8.703  0.2237 -0.0706  0.0623
  535ERGO    C2 6290   9.890   5.903   8.340 -0.1252  0.0130  0.0168
  536ERGO   ROH 6291   8.109  11.475  10.037 -0.0587  0.3509  0.1289
  536ERGO    R1 6292   7.952  11.471   9.801 -0.1439  0.3661  0.1854
  536ERGO    R2 6293   7.923  11.691   9.638  0.1157  0.2670  0.0030
  536ERGO    R3 6294   8.007  11.519   9.445 -0.1908 -0.0253  0.1198
  536ERGO    R4 6295   7.891  11.745   9.298  0.2392  0.1128 -0.0341
  536ERGO    R5 6296   7.839  11.534   9.275 -0.1589  0.1832  0.1011
  536ERGO    C1 6297   7.952  11.615   8.919  0.0235 -0.2515  0.0537
  536ERGO    C2 6298   7.841  11.677   8.635  0.2158 -0.0124  0.3284
  537ERGO   ROH 6299  15.144   3.452  10.185 -0.1175 -0.0905  0.0427
  537ERGO    R1 6300  15.317   3.579  10.000 -0.0727 -0.0677  0.0986
  537ERGO    R2 6301  15.501   3.439   9.848 -0.0387 -0.0526  0.1151
  537ERGO    R3 6302  15.377   3.565   9.641  0.0032 -0.0204  0.1111
  537ERGO    R4 6303  15.616   3.446   9.522 -0.1431 -0.2570  0.0727
  537ERGO    R5 6304  15.556   3.655   9.510  0.0303 -0.2152  0.0202
  537ERGO    C1 6305  15.566   3.569   9.139 -0.1646 -0.3458  0.0443
  537ERGO    C2 6306  15.683   3.471   8.768  0.1054 -0.0389 -0.1364
  538ERGO   ROH 6307  10.061  12.767   9.703 -0.0277 -0.0672  0.1226
  538ERGO    R1 6308  10.062  12.604   9.471 -0.2011  0.0229  0.0555
  538ERGO    R2 6309   9.885  12.642   9.262 -0.1119  0.3512  0.0283
  538ERGO    R3 6310  10.113  12.653   9.114 -0.0591  0.1046  0.0871
  538ERGO    R4 6311   9.898  12.642   8.917 -0.0073  0.2038  0.0322
  538ERGO    R5 6312  10.071  12.510   8.928 -0.1200  0.0667  0.1331
  538ERGO    C1 6313  10.119  12.652   8.577  0.1032 -0.1135  0.0895
  538ERGO    C2 6314  10.194  12.644   8.201 -0.0721 -0.2572 -0.1264
  539ERGO   ROH 6315   8.473   4.749   9.187  0.0629 -0.0083 -0.0305
  539ERGO    R1 6316   8.390   4.783   8.919  0.1320  0.0222 -0.0481
  539ERGO    R2 6317   8.559   4.739   8.704  0.1323 -0.1418 -0.0159
  539ERGO    R3 6318   8.360   4.573   8.623  0.0107  0.0054 -0.0240
  539ERGO    R4 6319   8.487   4.663   8.375  0.0011  0.0121 -0.0245
  539ERGO    R5 6320   8.275   4.674   8.423  0.0205  0.1238  0.0319
  539ERGO    C1 6321   8.258   4.462   8.107 -0.1894  0.2399 -0.0370
  539ERGO    C2 6322   8.031   4.235   8.014  0.0434 -0.2229  0.5277
  540ERGO   ROH 6323   6.206  13.630   9.880  0.0488 -0.1202 -0.0139
  540ERGO    R1 6324   6.326  13.645   9.624 -0.0351  0.0340 -0.0453
  540ERGO    R2 6325   6.434  13.425   9.497  0.1531  0.1573 -0.1037
  540ERGO    R3 6326   6.267  13.499   9.296  0.0213  0.0170 -0.0478
  540ERGO    R4 6327   6.518  13.427   9.162  0.0765  0.3365 -0.1228
  540ERGO    R5 6328   6.409  13.615   9.141 -0.1442  0.2188 -0.0525
  540ERGO    C1 6329   6.410  13.498   8.778 -0.0918  0.3091 -0.0815
  540ERGO    C2 6330   6.377  13.294   8.436 -0.0481 -0.2415 -0.1586
  541ERGO   ROH 6331  12.480   3.708  10.042  0.0842 -0.0455 -0.0351
  541ERGO    R1 6332  12.434   3.683   9.764  0.0194 -0.0204 -0.0264
  541ERGO    R2 6333  12.423   3.901   9.595  0.1077 -0.0149 -0.0232
  541ERGO    R3 6334  12.613   3.763   9.458  0.0071 -0.1190 -0.0601
  541ERGO    R4 6335  12.520   3.971   9.271  0.3128  0.1463  0.0704
  541ERGO    R5 6336  12.529   3.756   9.233  0.0826  0.1624 -0.1026
  541ERGO    C1 6337  12.755   3.882   8.953  0.3379  0.1425  0.0902
  541ERGO    C2 6338  12.836   4.179   8.756 -0.1449 -0.1941  0.1258
  542ERGO   ROH 6339   7.526  12.194   9.630 -0.0433 -0.2339  0.1289
  542ERGO    R1 6340   7.555  11.984   9.442 -0.0947 -0.2184  0.1025
  542ERGO    R2 6341   7.338  11.852   9.333 -0.1375 -0.0394 -0.0456
  542ERGO    R3 6342   7.454  11.922   9.098  0.0468 -0.0719  0.0349
  542ERGO    R4 6343   7.262  11.713   9.026 -0.1107  0.1381 -0.1333
  542ERGO    R5 6344   7.474  11.716   8.977 -0.0866 -0.0465 -0.0242
  542ERGO    C1 6345   7.326  11.699   8.626  0.0780  0.2110 -0.1085
  542ERGO    C2 6346   7.415  11.776   8.355  0.1283  0.1742  0.0006
  543ERGO   ROH 6347  14.942  10.694   9.889 -0.1869  0.4224 -0.1073
  543ERGO    R1 6348  15.114  10.632   9.673 -0.1750  0.1589 -0.0254
  543ERGO    R2 6349  15.089  10.751   9.424  0.0106  0.0599 -0.0899
  543ERGO    R3 6350  15.351  10.812   9.463  0.0576 -0.1602 -0.0454
  543ERGO    R4 6351  15.331  10.751   9.177 -0.0705  0.3956 -0.1751
  543ERGO    R5 6352  15.469  10.661   9.320 -0.0726  0.0383 -0.3788
  543ERGO    C1 6353  15.718  10.808   9.071 -0.0736  0.3843 -0.1829
  543ERGO    C2 6354  15.793  10.797   8.786  0.1534  0.0358  0.1242
  544ERGO   ROH 6355   3.590   2.218  10.167  0.1399  0.0460  0.0664
  544ERGO    R1 6356   3.495   2.345   9.933  0.3271  0.1206  0.0299
  544ERGO    R2 6357   3.654   2.385   9.710  0.3419 -0.3469 -0.0509
  544ERGO    R3 6358   3.451   2.256   9.583  0.0105  0.0082  0.0940
  544ERGO    R4 6359   3.575   2.421   9.375  0.3587 -0.4291 -0.0644
  544ERGO    R5 6360   3.364   2.417   9.429  0.3479  0.0965 -0.0145
  544ERGO    C1 6361   3.339   2.320   9.061  0.0574 -0.1435  0.0637
  544ERGO    C2 6362   3.334   2.198   8.749  0.0597  0.0084 -0.1550
  545ERGO   ROH 6363  14.804  16.571  10.054 -0.1736  0.0104 -0.0635
  545ERGO    R1 6364  14.881  16.515   9.788 -0.1657 -0.0883 -0.0389
  545ERGO    R2 6365  14.700  16.496   9.581 -0.1203  0.2593 -0.1056
  545ERGO    R3 6366  14.859  16.683   9.465  0.2555 -0.0017 -0.0314
  545ERGO    R4 6367  14.719  16.555   9.241 -0.2141  0.5102 -0.0707
  545ERGO    R5 6368  14.935  16.579   9.263 -0.1206 -0.0182 -0.1803
  545ERGO    C1 6369  14.880  16.765   8.934  0.0841  0.4114  0.0193
  545ERGO    C2 6370  14.833  16.756   8.649  0.2213  0.0728 -0.0614
  546ERGO   ROH 6371  17.694  14.681   9.640 -0.1912 -0.1572 -0.1240
  546ERGO    R1 6372  17.535  14.662   9.406 -0.0093 -0.3366 -0.2367
  546ERGO    R2 6373  17.464  14.883   9.256 -0.5057 -0.3476 -0.0448
  546ERGO    R3 6374  17.575  14.740   9.053  0.0084  0.1415 -0.1345
  546ERGO    R4 6375  17.422  14.952   8.920 -0.3300 -0.0266 -0.0053
  546ERGO    R5 6376  17.406  14.738   8.883  0.1740 -0.0242 -0.2960
  546ERGO    C1 6377  17.501  14.858   8.534  0.2551  0.6196 -0.0665
  546ERGO    C2 6378  17.443  14.938   8.186 -0.2110  0.0119 -0.1005
  547ERGO   ROH 6379  13.657  14.072   9.651  0.0438 -0.0186 -0.0142
  547ERGO    R1 6380  13.752  14.254   9.456 -0.0706  0.1022  0.0413
  547ERGO    R2 6381  13.995  14.222   9.327 -0.0372  0.3102  0.0508
  547ERGO    R3 6382  13.842  14.241   9.104 -0.0331  0.2613  0.0435
  547ERGO    R4 6383  14.113  14.304   9.013 -0.0639  0.4822  0.0849
  547ERGO    R5 6384  13.935  14.426   8.983 -0.1519  0.3643  0.1036
  547ERGO    C1 6385  14.038  14.370   8.620 -0.0755  0.5365  0.0980
  547ERGO    C2 6386  14.066  14.411   8.365  0.1999 -0.1072 -0.0431
  548ERGO   ROH 6387   8.607   0.260   9.930  0.0878  0.3874 -0.0385
  548ERGO    R1 6388   8.505   0.201   9.673  0.0175  0.2490  0.0197
  548ERGO    R2 6389   8.274   0.055   9.634  0.0859  0.1035  0.1575
  548ERGO    R3 6390   8.200   0.272   9.487 -0.0988  0.0156  0.1172
  548ERGO    R4 6391   8.143   0.043   9.314  0.3615 -0.0603  0.0474
  548ERGO    R5 6392   8.264   0.217   9.263  0.1644  0.1168  0.1618
  548ERGO    C1 6393   7.998   0.240   8.990  0.3486 -0.2383 -0.0544
  548ERGO    C2 6394   7.723   0.378   8.773  0.1856  0.2016  0.1850
  549ERGO   ROH 6395   6.621  14.334   9.988  0.1998 -0.2714 -0.1911
  549ERGO    R1 6396   6.732  14.409   9.739  0.1367 -0.2665 -0.2171
  549ERGO    R2 6397   6.739  14.238   9.522 -0.0729 -0.2030 -0.2722
  549ERGO    R3 6398   6.613  14.444   9.396  0.0062 -0.0810 -0.1553
  549ERGO    R4 6399   6.738  14.289   9.180 -0.2192 -0.1335 -0.2626
  549ERGO    R5 6400   6.761  14.503   9.217 -0.0419 -0.1521 -0.2246
  549ERGO    C1 6401   6.618  14.512   8.863 -0.2302  0.0215 -0.1473
  549ERGO    C2 6402   6.588  14.357   8.453 -0.0346 -0.1560 -0.0605
  550ERGO   ROH 6403  15.662  14.069   9.911 -0.0505  0.0960 -0.1456
  550ERGO    R1 6404  15.596  14.060   9.636  0.2009  0.0002 -0.2035
  550ERGO    R2 6405  15.485  14.275   9.502 -0.0721 -0.1893 -0.2712
  550ERGO    R3 6406  15.695  14.238   9.334  0.1407  0.2071 -0.1061
  550ERGO    R4 6407  15.495  14.379   9.173 -0.1323 -0.3752 -0.3345
  550ERGO    R5 6408  15.595  14.192   9.122  0.3700 -0.1883 -0.1471
  550ERGO    C1 6409  15.700  14.406   8.824  0.0324 -0.1114 -0.2165
  550ERGO    C2 6410  15.874  14.512   8.494 -0.1707 -0.0192  0.2536
  551ERGO   ROH 6411  14.752   8.407   8.407 -0.1648  0.1417 -0.1829
  551ERGO    R1 6412  14.725   8.687   8.382 -0.0449  0.1647 -0.0673
  551ERGO    R2 6413  14.856   8.865   8.548  0.1910  0.0442 -0.1214
  551ERGO    R3 6414  14.945   8.969   8.313  0.0398  0.0756 -0.1661
  551ERGO    R4 6415  14.924   9.200   8.492  0.2621  0.0363 -0.0849
  551ERGO    R5 6416  14.834   9.180   8.295  0.0968  0.1198 -0.0203
  551ERGO    C1 6417  15.047   9.491   8.239  0.1616  0.0610 -0.1057
  551ERGO    C2 6418  15.175   9.730   8.353  0.0453 -0.1723  0.2909
  552ERGO   ROH 6419   7.994  14.754   9.689  0.0588 -0.2199  0.1199
  552ERGO    R1 6420   8.049  14.889   9.447  0.1667 -0.1196  0.2000
  552ERGO    R2 6421   8.276  14.841   9.297  0.0893 -0.2723  0.1341
  552ERGO    R3 6422   8.096  14.798   9.098  0.0076  0.0560  0.1302
  552ERGO    R4 6423   8.347  14.861   8.960  0.1478 -0.4450  0.1344
  552ERGO    R5 6424   8.154  14.959   8.930  0.3314 -0.0679  0.1153
  552ERGO    C1 6425   8.219  14.833   8.576  0.1052 -0.2377  0.1308
  552ERGO    C2 6426   8.301  14.955   8.244  0.1671 -0.1754 -0.1135
  553ERGO   ROH 6427  10.806  15.520   9.852 -0.2674 -0.0442  0.0429
  553ERGO    R1 6428  10.852  15.418   9.593  0.0524  0.0740  0.0484
  553ERGO    R2 6429  10.652  15.300   9.441  0.3325 -0.2509 -0.0803
  553ERGO    R3 6430  10.728  15.484   9.257  0.1160 -0.0846 -0.0072
  553ERGO    R4 6431  10.583  15.281   9.103  0.2183 -0.1148 -0.0650
  553ERGO    R5 6432  10.784  15.355   9.063  0.1456  0.0679 -0.1015
  553ERGO    C1 6433  10.614  15.444   8.733 -0.0515  0.1204  0.0125
  553ERGO    C2 6434  10.514  15.499   8.360  0.1552  0.2007 -0.0515
  554ERGO   ROH 6435  14.899   7.113  10.320  0.2735  0.1267 -0.0703
  554ERGO    R1 6436  14.811   6.931  10.121  0.3334 -0.0445  0.0565
  554ERGO    R2 6437  14.671   7.013   9.896 -0.0001 -0.2895  0.1674
  554ERGO    R3 6438  14.869   6.881   9.765  0.0635 -0.0426  0.0098
  554ERGO    R4 6439  14.622   6.755   9.671  0.1276 -0.1195 -0.0588
  554ERGO    R5 6440  14.795   6.654   9.757  0.2099 -0.0862 -0.1821
  554ERGO    C1 6441  14.780   6.481   9.417  0.2617  0.2112 -0.3383
  554ERGO    C2 6442  14.728   6.329   9.098  0.0167  0.5076  0.1795
  555ERGO   ROH 6443   4.036  13.088   9.747 -0.1537  0.2169 -0.1101
  555ERGO    R1 6444   3.965  13.158   9.482  0.1530  0.2634 -0.1840
  555ERGO    R2 6445   4.137  13.123   9.268  0.1818 -0.2977 -0.0897
  555ERGO    R3 6446   3.927  12.985   9.164 -0.1388  0.1792 -0.1049
  555ERGO    R4 6447   4.074  13.084   8.931  0.0908 -0.1364 -0.0920
  555ERGO    R5 6448   3.862  13.112   8.972  0.1470  0.3424 -0.0962
  555ERGO    C1 6449   3.840  12.931   8.637 -0.2631  0.4053 -0.1077
  555ERGO    C2 6450   3.818  12.784   8.347  0.1305 -0.0503  0.1214
  556ERGO   ROH 6451  12.752   0.694   9.569  0.1936  0.2847 -0.0006
  556ERGO    R1 6452  12.978   0.603   9.426  0.1516  0.2673 -0.0565
  556ERGO    R2 6453  13.025   0.335   9.376  0.2138  0.2488  0.0918
  556ERGO    R3 6454  13.039   0.419   9.118  0.0553  0.0899  0.0296
  556ERGO    R4 6455  13.235   0.203   9.136  0.1122  0.1471  0.0584
  556ERGO    R5 6456  13.272   0.404   9.063  0.0278  0.1087 -0.0885
  556ERGO    C1 6457  13.371   0.204   8.754 -0.0957 -0.0614 -0.0195
  556ERGO    C2 6458  13.398   0.286   8.405  0.0470  0.0657  0.2540
  557ERGO   ROH 6459   4.245   2.936  10.037 -0.1249  0.1161  0.0127
  557ERGO    R1 6460   4.248   2.853   9.767 -0.1202  0.0196  0.0420
  557ERGO    R2 6461   4.022   2.761   9.637 -0.1353  0.0455  0.0486
  557ERGO    R3 6462   4.086   2.955   9.457 -0.0526 -0.0373 -0.0123
  557ERGO    R4 6463   3.886   2.790   9.321 -0.2061  0.0715  0.0811
  557ERGO    R5 6464   4.084   2.843   9.246 -0.1907 -0.0815  0.0123
  557ERGO    C1 6465   3.867   2.988   8.968 -0.1697  0.0089  0.0429
  557ERGO    C2 6466   3.665   3.002   8.756  0.1641  0.0074 -0.1040
  558ERGO   ROH 6467  17.214   7.722  10.388  0.0115 -0.0451 -0.0455
  558ERGO    R1 6468  17.072   7.689  10.145  0.0461 -0.1573 -0.0519
  558ERGO    R2 6469  17.038   7.895   9.963 -0.2359 -0.1379  0.0119
  558ERGO    R3 6470  17.147   7.716   9.790  0.0037  0.0586 -0.0448
  558ERGO    R4 6471  17.020   7.916   9.618 -0.3464 -0.1085  0.0199
  558ERGO    R5 6472  16.988   7.701   9.611 -0.0143 -0.1577 -0.0095
  558ERGO    C1 6473  17.112   7.760   9.255 -0.1858  0.0931 -0.0287
  558ERGO    C2 6474  17.200   7.866   8.864 -0.0101 -0.0767  0.0037
  559ERGO   ROH 6475  13.346  17.598  10.070 -0.1298 -0.1263 -0.0308
  559ERGO    R1 6476  13.514  17.644   9.847 -0.1107 -0.0259  0.0037
  559ERGO    R2 6477  13.628  17.439   9.701  0.0009  0.0406 -0.0037
  559ERGO    R3 6478  13.510  17.565   9.492 -0.0172  0.0185 -0.0081
  559ERGO    R4 6479  13.656  17.342   9.371 -0.0045  0.0230  0.0013
  559ERGO    R5 6480  13.671  17.552   9.316 -0.0230  0.0207 -0.0131
  559ERGO    C1 6481  13.561  17.404   8.982 -0.0245 -0.0079  0.0000
  559ERGO    C2 6482  13.590  17.287   8.643  0.2486 -0.0999  0.0273
  560ERGO   ROH 6483   7.307   2.542   9.700 -0.0567  0.2030 -0.1435
  560ERGO    R1 6484   7.173   2.407   9.490  0.0734  0.0929 -0.1585
  560ERGO    R2 6485   6.992   2.533   9.324 -0.1304 -0.0856 -0.0824
  560ERGO    R3 6486   7.153   2.435   9.128 -0.0366  0.1858 -0.1453
  560ERGO    R4 6487   6.887   2.458   9.003 -0.1737 -0.4144  0.0054
  560ERGO    R5 6488   7.013   2.280   9.010  0.2125 -0.1539 -0.0082
  560ERGO    C1 6489   6.977   2.323   8.632 -0.1109 -0.3511 -0.0024
  560ERGO    C2 6490   6.968   2.525   8.411  0.0211 -0.0937  0.1411
  561ERGO   ROH 6491  10.969   5.187  10.270  0.1072  0.1069  0.0080
  561ERGO    R1 6492  11.037   5.112  10.006  0.1466 -0.0111  0.0502
  561ERGO    R2 6493  10.965   5.262   9.785 -0.0179 -0.2241 -0.0487
  561ERGO    R3 6494  11.231   5.254   9.732 -0.0139 -0.0141 -0.0654
  561ERGO    R4 6495  11.105   5.292   9.471 -0.0507 -0.0497 -0.0470
  561ERGO    R5 6496  11.248   5.136   9.525  0.0666  0.0457 -0.0904
  561ERGO    C1 6497  11.437   5.302   9.238 -0.0662  0.2489 -0.0617
  561ERGO    C2 6498  11.524   5.465   8.849 -0.1201  0.1089  0.2520
  562ERGO   ROH 6499   0.674   9.465  10.124  0.0273  0.0887  0.1068
  562ERGO    R1 6500   0.555   9.543   9.879 -0.0564 -0.1183  0.0811
  562ERGO    R2 6501   0.693   9.683   9.685 -0.2356  0.0570  0.0865
  562ERGO    R3 6502   0.612   9.478   9.525  0.0832 -0.0841  0.0947
  562ERGO    R4 6503   0.731   9.673   9.341 -0.0216  0.0087  0.1087
  562ERGO    R5 6504   0.532   9.586   9.327  0.0753 -0.2213  0.0166
  562ERGO    C1 6505   0.677   9.475   8.992  0.4024 -0.1518  0.1294
  562ERGO    C2 6506   0.592   9.358   8.712 -0.2737 -0.2377 -0.1511
  563ERGO   ROH 6507   3.779  15.508   9.960  0.1465 -0.2392  0.0420
  563ERGO    R1 6508   3.769  15.395   9.701 -0.0764 -0.0176 -0.0512
  563ERGO    R2 6509   3.655  15.525   9.485  0.0603  0.3299  0.0734
  563ERGO    R3 6510   3.897  15.479   9.371 -0.0244  0.0705 -0.0070
  563ERGO    R4 6511   3.714  15.515   9.145 -0.0947 -0.0115  0.0523
  563ERGO    R5 6512   3.847  15.346   9.178 -0.1945 -0.0658  0.1336
  563ERGO    C1 6513   3.975  15.466   8.840 -0.2645 -0.4538 -0.0354
  563ERGO    C2 6514   3.836  15.504   8.502 -0.0074 -0.3231 -0.2715
  564ERGO   ROH 6515   5.636  12.951   9.664 -0.0081  0.1522 -0.0623
  564ERGO    R1 6516   5.479  12.873   9.442  0.1531  0.2484 -0.2127
  564ERGO    R2 6517   5.564  12.906   9.181  0.5791 -0.1179 -0.1330
  564ERGO    R3 6518   5.512  12.639   9.165  0.1257 -0.0483  0.0287
  564ERGO    R4 6519   5.384  12.754   8.928  0.4700  0.0100 -0.1337
  564ERGO    R5 6520   5.290  12.627   9.077  0.1523  0.2758 -0.0978
  564ERGO    C1 6521   5.230  12.416   8.765 -0.0193  0.1497  0.0178
  564ERGO    C2 6522   5.355  12.113   8.602  0.0967 -0.0551  0.0670
  565ERGO   ROH 6523   4.267  17.599  10.077  0.1217  0.1930  0.0062
  565ERGO    R1 6524   4.205  17.571   9.802 -0.1900  0.1759  0.0747
  565ERGO    R2 6525   4.111  17.781   9.649  0.0298  0.2793  0.0718
  565ERGO    R3 6526   4.320  17.715   9.488 -0.2272 -0.1649 -0.0991
  565ERGO    R4 6527   4.110  17.806   9.304 -0.0943  0.5791  0.0910
  565ERGO    R5 6528   4.218  17.616   9.296 -0.6138  0.2760 -0.1355
  565ERGO    C1 6529   4.306  17.758   8.953 -0.4078  0.3365 -0.0582
  565ERGO    C2 6530   4.439  17.622   8.644 -0.0567 -0.3193 -0.0336
  566ERGO   ROH 6531   8.467   1.168   9.572 -0.0769 -0.0484 -0.0311
  566ERGO    R1 6532   8.493   1.087   9.302 -0.1390 -0.0576 -0.0349
  566ERGO    R2 6533   8.311   1.159   9.107 -0.0121  0.2114 -0.0614
  566ERGO    R3 6534   8.533   1.252   8.980  0.1402 -0.0741 -0.0111
  566ERGO    R4 6535   8.331   1.226   8.768  0.1829  0.1017 -0.0728
  566ERGO    R5 6536   8.531   1.140   8.768  0.0860 -0.1279  0.0183
  566ERGO    C1 6537   8.551   1.352   8.452  0.4394 -0.2303 -0.0321
  566ERGO    C2 6538   8.591   1.450   8.155 -0.0897 -0.4839 -0.1294
  567ERGO   ROH 6539   6.909  15.022  10.029  0.0678  0.0973  0.0504
  567ERGO    R1 6540   6.659  14.980   9.905  0.0344 -0.0753  0.1720
  567ERGO    R2 6541   6.609  15.051   9.643 -0.1905  0.0414  0.2423
  567ERGO    R3 6542   6.533  14.791   9.620  0.0588 -0.0240  0.1277
  567ERGO    R4 6543   6.414  14.923   9.388 -0.1903 -0.0059  0.2660
  567ERGO    R5 6544   6.309  14.801   9.535  0.0048 -0.1984  0.2467
  567ERGO    C1 6545   6.229  14.604   9.218  0.0436 -0.0948  0.1724
  567ERGO    C2 6546   5.898  14.426   9.165 -0.0568  0.3433 -0.0183
  568ERGO   ROH 6547  10.031  17.907   9.557  0.0954  0.0044 -0.2156
  568ERGO    R1 6548  10.114  17.951   9.290  0.2000 -0.1454 -0.2093
  568ERGO    R2 6549  10.155  17.744   9.110 -0.0595 -0.2300 -0.1770
  568ERGO    R3 6550   9.981  17.887   8.957  0.1587 -0.0040 -0.2202
  568ERGO    R4 6551  10.097  17.690   8.774 -0.1171 -0.2168 -0.1690
  568ERGO    R5 6552  10.090  17.906   8.745  0.2031 -0.2096 -0.2164
  568ERGO    C1 6553   9.900  17.792   8.435  0.0541  0.0032 -0.2048
  568ERGO    C2 6554   9.924  17.743   8.149 -0.0703  0.1616  0.0446
  569ERGO   ROH 6555  12.287  17.738   9.891 -0.0557  0.1797 -0.0406
  569ERGO    R1 6556  12.362  17.732   9.618  0.0212 -0.0127 -0.0176
  569ERGO    R2 6557  12.362  17.500   9.469 -0.0670 -0.0974  0.1091
  569ERGO    R3 6558  12.203  17.645   9.302  0.0625 -0.0969 -0.0151
  569ERGO    R4 6559  12.297  17.418   9.140  0.0098 -0.2189  0.1241
  569ERGO    R5 6560  12.313  17.630   9.089  0.1311 -0.2501  0.0299
  569ERGO    C1 6561  12.109  17.506   8.791  0.1760 -0.2895  0.0163
  569ERGO    C2 6562  12.089  17.310   8.464 -0.0277 -0.1476  0.2233
  570ERGO   ROH 6563   7.784   3.436   9.724 -0.2492 -0.0068 -0.0607
  570ERGO    R1 6564   7.691   3.371   9.465 -0.1223 -0.1181 -0.0797
  570ERGO    R2 6565   7.839   3.420   9.237 -0.1069 -0.0013 -0.0456
  570ERGO    R3 6566   7.798   3.155   9.192  0.1507 -0.0466 -0.0324
  570ERGO    R4 6567   7.886   3.263   8.933  0.0145  0.0329 -0.0452
  570ERGO    R5 6568   7.705   3.147   8.971  0.1327 -0.1469 -0.0210
  570ERGO    C1 6569   7.874   2.923   8.713  0.3270  0.0102 -0.0327
  570ERGO    C2 6570   7.816   2.604   8.547 -0.3395  0.3393 -0.0639
  571ERGO   ROH 6571   3.395  16.862   9.640  0.0727  0.2010  0.1748
  571ERGO    R1 6572   3.541  16.980   9.428  0.1228 -0.0714  0.0535
  571ERGO    R2 6573   3.693  16.832   9.252 -0.1605 -0.3413  0.0323
  571ERGO    R3 6574   3.543  16.961   9.065 -0.0863 -0.2152  0.0571
  571ERGO    R4 6575   3.784  16.875   8.921  0.0586  0.0304  0.1343
  571ERGO    R5 6576   3.703  17.078   8.930 -0.0351 -0.0076  0.2854
  571ERGO    C1 6577   3.696  17.021   8.553  0.2559  0.3653  0.2169
  571ERGO    C2 6578   3.703  16.981   8.134 -0.2779  0.1307 -0.1899
  572ERGO   ROH 6579  11.604   7.951  10.032  0.2061 -0.0869  0.0156
  572ERGO    R1 6580  11.643   8.051   9.770  0.2450 -0.0388  0.0392
  572ERGO    R2 6581  11.827   7.942   9.595  0.1483 -0.1197 -0.0134
  572ERGO    R3 6582  11.611   7.922   9.431  0.1134  0.0790  0.0056
  572ERGO    R4 6583  11.843   7.899   9.253  0.0812 -0.2206 -0.0040
  572ERGO    R5 6584  11.676   8.038   9.232  0.2319 -0.0397 -0.0268
  572ERGO    C1 6585  11.649   7.855   8.899  0.0091 -0.0929  0.0192
  572ERGO    C2 6586  11.707   7.936   8.611 -0.0411  0.0476  0.0089
  573ERGO   ROH 6587  16.784  10.179  10.065 -0.1305 -0.0119 -0.0446
  573ERGO    R1 6588  16.935  10.150   9.828 -0.0461 -0.0959  0.0197
  573ERGO    R2 6589  16.921   9.925   9.669 -0.2000 -0.0349 -0.0480
  573ERGO    R3 6590  16.865  10.104   9.473  0.0775  0.0778 -0.0298
  573ERGO    R4 6591  16.894   9.848   9.333 -0.3810  0.0175 -0.0472
  573ERGO    R5 6592  16.999  10.034   9.288 -0.0631 -0.1509 -0.0536
  573ERGO    C1 6593  16.826   9.973   8.954 -0.2259  0.1539 -0.0296
  573ERGO    C2 6594  16.828  10.044   8.585 -0.1392  0.0054 -0.0236
  574ERGO   ROH 6595  11.508  14.800   9.738 -0.0570 -0.1226  0.0048
  574ERGO    R1 6596  11.478  14.625   9.518 -0.0035 -0.0325 -0.0745
  574ERGO    R2 6597  11.263  14.640   9.344  0.0053 -0.0025 -0.0835
  574ERGO    R3 6598  11.458  14.657   9.155  0.0155  0.1229 -0.0623
  574ERGO    R4 6599  11.215  14.593   9.005  0.0628  0.0336 -0.0970
  574ERGO    R5 6600  11.404  14.485   8.998  0.1140  0.1252 -0.0980
  574ERGO    C1 6601  11.369  14.582   8.631  0.1059  0.1724 -0.0851
  574ERGO    C2 6602  11.268  14.837   8.421  0.1697 -0.1950 -0.1905
  575ERGO   ROH 6603   8.657   3.057   9.666  0.1134  0.0069  0.0556
  575ERGO    R1 6604   8.785   3.021   9.416  0.0023  0.1546 -0.0244
  575ERGO    R2 6605   8.881   2.776   9.331  0.2765  0.2705 -0.0621
  575ERGO    R3 6606   8.725   2.826   9.114  0.0655  0.0454  0.0328
  575ERGO    R4 6607   8.945   2.659   9.012  0.2133  0.3017 -0.0856
  575ERGO    R5 6608   8.882   2.853   8.934 -0.0834  0.2159 -0.0751
  575ERGO    C1 6609   8.836   2.639   8.622 -0.0216  0.1085 -0.0102
  575ERGO    C2 6610   8.687   2.500   8.356  0.0242 -0.1331  0.1537
  576ERGO   ROH 6611   2.628  16.581  10.110 -0.1489 -0.1080  0.1678
  576ERGO    R1 6612   2.669  16.576   9.830 -0.0668  0.0732  0.1755
  576ERGO    R2 6613   2.574  16.373   9.669  0.0717  0.1205  0.0318
  576ERGO    R3 6614   2.461  16.579   9.532  0.0145  0.1496  0.1176
  576ERGO    R4 6615   2.480  16.362   9.337  0.2198  0.2832 -0.0172
  576ERGO    R5 6616   2.556  16.565   9.313  0.1186  0.3451  0.1465
  576ERGO    C1 6617   2.318  16.549   9.015  0.2522  0.4055  0.0348
  576ERGO    C2 6618   2.449  16.662   8.633 -0.0495  0.1746  0.1587
  577ERGO   ROH 6619  15.950  16.312  10.247  0.2078 -0.1694  0.1064
  577ERGO    R1 6620  15.993  16.445  10.000  0.1607 -0.1019  0.1360
  577ERGO    R2 6621  16.141  16.334   9.795 -0.0655 -0.1387 -0.0001
  577ERGO    R3 6622  15.917  16.383   9.650 -0.1149  0.1133  0.1515
  577ERGO    R4 6623  16.138  16.416   9.459 -0.1922 -0.4648 -0.0833
  577ERGO    R5 6624  15.980  16.560   9.501  0.0875 -0.1322 -0.0783
  577ERGO    C1 6625  15.926  16.509   9.127 -0.3119 -0.4184  0.0106
  577ERGO    C2 6626  15.831  16.650   8.864 -0.1382 -0.2178 -0.1797
  578ERGO   ROH 6627   8.550  12.883  10.019  0.2151 -0.1208 -0.0278
  578ERGO    R1 6628   8.578  12.928   9.741  0.0752 -0.1436 -0.0474
  578ERGO    R2 6629   8.557  12.726   9.554  0.0561 -0.1743 -0.0173
  578ERGO    R3 6630   8.371  12.890   9.444 -0.0481 -0.2465  0.0519
  578ERGO    R4 6631   8.543  12.813   9.220  0.1022  0.0955  0.0494
  578ERGO    R5 6632   8.492  13.016   9.280 -0.0996 -0.0004  0.2009
  578ERGO    C1 6633   8.360  13.018   8.923  0.0314  0.1848  0.1532
  578ERGO    C2 6634   8.297  13.045   8.631 -0.3705 -0.1130 -0.0275
  579ERGO   ROH 6635  15.223   3.131  10.454 -0.3165 -0.2210 -0.1648
  579ERGO    R1 6636  15.398   3.125  10.232 -0.2732 -0.0609 -0.1364
  579ERGO    R2 6637  15.511   2.892  10.138  0.0191  0.0510 -0.0710
  579ERGO    R3 6638  15.401   2.970   9.902 -0.0394 -0.1275 -0.1045
  579ERGO    R4 6639  15.643   2.822   9.826  0.1482  0.1350 -0.0361
  579ERGO    R5 6640  15.589   3.025   9.764 -0.0793  0.0622 -0.0876
  579ERGO    C1 6641  15.616   2.855   9.423  0.1683  0.0163 -0.0473
  579ERGO    C2 6642  15.677   2.883   9.131  0.2299  0.2119 -0.1285
  580ERGO   ROH 6643   6.336   3.896   9.729  0.0091 -0.0511  0.0692
  580ERGO    R1 6644   6.275   3.941   9.456 -0.0070 -0.0351  0.0753
  580ERGO    R2 6645   6.466   3.922   9.256 -0.0182 -0.0204  0.0632
  580ERGO    R3 6646   6.287   3.748   9.147 -0.0222 -0.0160  0.0629
  580ERGO    R4 6647   6.446   3.843   8.920  0.0421 -0.0912  0.0762
  580ERGO    R5 6648   6.229   3.846   8.937  0.0389 -0.0529  0.0285
  580ERGO    C1 6649   6.267   3.634   8.622  0.0733 -0.1282  0.0833
  580ERGO    C2 6650   6.217   3.612   8.374  0.0198 -0.3320 -0.0346
  581ERGO   ROH 6651   1.737   8.523  10.075 -0.2596 -0.1416 -0.1332
  581ERGO    R1 6652   1.633   8.609   9.826 -0.1164 -0.0886 -0.1754
  581ERGO    R2 6653   1.762   8.563   9.586 -0.0625 -0.1891 -0.1270
  581ERGO    R3 6654   1.524   8.453   9.516 -0.1119 -0.0370 -0.2033
  581ERGO    R4 6655   1.623   8.578   9.270 -0.1199  0.2009 -0.0880
  581ERGO    R5 6656   1.428   8.610   9.363 -0.0919  0.1631 -0.0151
  581ERGO    C1 6657   1.317   8.484   9.021 -0.1996  0.5709 -0.1368
  581ERGO    C2 6658   1.304   8.259   8.770 -0.1272  0.1333 -0.0065
  582ERGO   ROH 6659   5.054   3.452   9.983 -0.0675 -0.0331  0.0737
  582ERGO    R1 6660   5.150   3.446   9.716 -0.0259  0.1530  0.0822
  582ERGO    R2 6661   5.102   3.234   9.545  0.2760  0.1200  0.0265
  582ERGO    R3 6662   5.003   3.428   9.383  0.0319  0.0304  0.0637
  582ERGO    R4 6663   5.027   3.194   9.210  0.2110  0.0671  0.0475
  582ERGO    R5 6664   5.111   3.391   9.173  0.0023  0.1501  0.0301
  582ERGO    C1 6665   4.892   3.353   8.863 -0.0559 -0.0479  0.0948
  582ERGO    C2 6666   4.711   3.526   8.616 -0.1559  0.2173 -0.1774
  583ERGO   ROH 6667  15.659   6.408  10.338 -0.0085  0.1527  0.0856
  583ERGO    R1 6668  15.758   6.314  10.090  0.1254  0.1588  0.1378
  583ERGO    R2 6669  15.594   6.259   9.875  0.2231 -0.0337  0.1205
  583ERGO    R3 6670  15.761   6.430   9.745  0.1191  0.0567  0.1002
  583ERGO    R4 6671  15.559   6.357   9.546  0.2599 -0.2723  0.0424
  583ERGO    R5 6672  15.775   6.342   9.523  0.3005 -0.0757  0.1525
  583ERGO    C1 6673  15.696   6.575   9.232  0.1838 -0.3264 -0.0223
  583ERGO    C2 6674  15.859   6.824   8.976  0.3150 -0.0352 -0.0270
  584ERGO   ROH 6675  13.561   1.613   9.934  0.0291  0.0074  0.0388
  584ERGO    R1 6676  13.626   1.410   9.749  0.1420  0.0535  0.0275
  584ERGO    R2 6677  13.506   1.390   9.501  0.0444 -0.0861  0.0850
  584ERGO    R3 6678  13.763   1.394   9.412  0.0024  0.1568 -0.0352
  584ERGO    R4 6679  13.603   1.326   9.175 -0.0468 -0.0026  0.0411
  584ERGO    R5 6680  13.773   1.215   9.253  0.0988  0.1606 -0.0341
  584ERGO    C1 6681  13.901   1.293   8.902 -0.1392  0.2741 -0.0976
  584ERGO    C2 6682  13.894   1.476   8.622  0.2336  0.1153 -0.1496
  585ERGO   ROH 6683   9.603  17.747   9.582  0.2821  0.0950  0.0221
  585ERGO    R1 6684   9.649  17.767   9.303  0.2725 -0.0082  0.0133
  585ERGO    R2 6685   9.749  17.557   9.154  0.0273 -0.1473  0.0422
  585ERGO    R3 6686   9.527  17.601   9.003  0.0570  0.0656  0.0573
  585ERGO    R4 6687   9.717  17.471   8.821 -0.0760 -0.1230  0.0454
  585ERGO    R5 6688   9.613  17.660   8.787  0.1024 -0.0196  0.0501
  585ERGO    C1 6689   9.490  17.462   8.485 -0.1082  0.0911  0.0614
  585ERGO    C2 6690   9.317  17.268   8.231  0.1802 -0.0645  0.2789
  586ERGO   ROH 6691   8.848  15.767   9.867  0.0505  0.1587 -0.0704
  586ERGO    R1 6692   8.853  15.808   9.587  0.0001  0.0535 -0.0875
  586ERGO    R2 6693   9.062  15.722   9.427  0.0236  0.0875 -0.0803
  586ERGO    R3 6694   8.863  15.597   9.290  0.0636 -0.0575 -0.0068
  586ERGO    R4 6695   9.090  15.602   9.105 -0.0113  0.1125 -0.0920
  586ERGO    R5 6696   8.888  15.675   9.065 -0.0797 -0.0363 -0.0148
  586ERGO    C1 6697   8.919  15.415   8.788  0.0059 -0.0090 -0.0297
  586ERGO    C2 6698   9.019  15.432   8.523  0.0897  0.4161 -0.1910
  587ERGO   ROH 6699   5.109   2.078   9.815 -0.3868 -0.1701 -0.2614
  587ERGO    R1 6700   5.024   2.147   9.554 -0.1657  0.0947 -0.2676
  587ERGO    R2 6701   5.038   2.405   9.457  0.1451  0.1536 -0.0846
  587ERGO    R3 6702   5.177   2.288   9.255  0.1513  0.1560 -0.0810
  587ERGO    R4 6703   5.000   2.479   9.121  0.0713  0.0730 -0.0938
  587ERGO    R5 6704   5.018   2.266   9.078  0.1313  0.0699 -0.0525
  587ERGO    C1 6705   5.109   2.412   8.737  0.0342  0.0283 -0.0958
  587ERGO    C2 6706   5.170   2.502   8.371  0.0248  0.1491 -0.2278
  588ERGO   ROH 6707   6.992   4.718   9.663  0.0741 -0.1328  0.0987
  588ERGO    R1 6708   6.986   4.750   9.382  0.0747 -0.0686  0.1059
  588ERGO    R2 6709   7.193   4.665   9.218  0.0842 -0.0077  0.0866
  588ERGO    R3 6710   6.993   4.531   9.091  0.1030  0.0017  0.0546
  588ERGO    R4 6711   7.181   4.602   8.878  0.1923 -0.1074  0.1009
  588ERGO    R5 6712   6.968   4.644   8.882  0.2044 -0.0583  0.0110
  588ERGO    C1 6713   6.986   4.438   8.562  0.2729 -0.1567  0.0791
  588ERGO    C2 6714   6.791   4.465   8.205 -0.3049 -0.1354 -0.1261
  589ERGO   ROH 6715   1.199  17.066  10.339  0.1327  0.1546  0.1342
  589ERGO    R1 6716   1.143  17.088  10.063  0.1031  0.1778  0.1411
  589ERGO    R2 6717   1.315  17.210   9.885  0.1208  0.1297  0.1178
  589ERGO    R3 6718   1.294  16.974   9.752  0.0296  0.1361  0.1219
  589ERGO    R4 6719   1.393  17.164   9.552  0.1285  0.0785  0.1272
  589ERGO    R5 6720   1.218  17.036   9.533  0.0778  0.1575  0.1152
  589ERGO    C1 6721   1.419  16.916   9.232  0.0475  0.0545  0.1367
  589ERGO    C2 6722   1.612  17.014   8.904 -0.1475 -0.4103  0.1568
  590ERGO   ROH 6723  11.222  17.051   9.700  0.1089 -0.1420  0.0553
  590ERGO    R1 6724  11.210  16.926   9.446  0.1310 -0.0203 -0.0057
  590ERGO    R2 6725  11.038  17.011   9.246  0.0011 -0.0551  0.0946
  590ERGO    R3 6726  11.267  17.025   9.100 -0.0558  0.2044  0.0240
  590ERGO    R4 6727  11.061  16.947   8.908 -0.0126 -0.1828  0.1167
  590ERGO    R5 6728  11.249  16.844   8.944  0.1518  0.0993  0.1140
  590ERGO    C1 6729  11.289  16.923   8.573 -0.0738 -0.0136  0.0634
  590ERGO    C2 6730  11.406  16.564   8.338 -0.3641 -0.0321  0.3306
  591ERGO   ROH 6731  11.423  11.970   9.654  0.1988 -0.1324 -0.0699
  591ERGO    R1 6732  11.357  11.982   9.379  0.1124 -0.2835 -0.0561
  591ERGO    R2 6733  11.459  12.175   9.210 -0.2789 -0.1073 -0.0999
  591ERGO    R3 6734  11.535  11.959   9.063  0.0884  0.0121 -0.0947
  591ERGO    R4 6735  11.457  12.160   8.864 -0.2652 -0.1218 -0.0998
  591ERGO    R5 6736  11.382  11.955   8.879  0.0830 -0.2554 -0.0901
  591ERGO    C1 6737  11.527  11.948   8.525  0.0877 -0.0183 -0.0950
  591ERGO    C2 6738  11.763  11.957   8.158  0.0211 -0.2913 -0.0753
  592ERGO   ROH 6739   6.911  12.267   9.803 -0.1393  0.0380  0.0614
  592ERGO    R1 6740   6.939  12.110   9.569 -0.0670  0.1246  0.0121
  592ERGO    R2 6741   6.723  12.029   9.417 -0.0334  0.0176  0.0286
  592ERGO    R3 6742   6.863  12.146   9.215 -0.1500  0.1704  0.0329
  592ERGO    R4 6743   6.673  11.969   9.080  0.2567 -0.3071  0.0372
  592ERGO    R5 6744   6.889  11.972   9.052  0.2794  0.1013  0.1549
  592ERGO    C1 6745   6.775  12.043   8.695  0.3162 -0.3528  0.0461
  592ERGO    C2 6746   6.821  11.841   8.294 -0.1252 -0.0761 -0.0804
  593ERGO   ROH 6747  13.838   2.662  10.220  0.0339  0.0614 -0.1399
  593ERGO    R1 6748  13.763   2.781   9.974 -0.1340  0.2203 -0.0151
  593ERGO    R2 6749  13.759   3.054   9.937  0.1272  0.2428  0.0759
  593ERGO    R3 6750  13.920   2.995   9.725 -0.1908  0.1187 -0.1379
  593ERGO    R4 6751  13.892   3.288   9.719  0.3570  0.1844  0.1515
  593ERGO    R5 6752  13.852   3.150   9.555 -0.0710  0.4001  0.0650
  593ERGO    C1 6753  14.120   3.368   9.394  0.1923  0.0339 -0.0052
  593ERGO    C2 6754  14.280   3.561   9.256 -0.1534  0.1186 -0.0475
  594ERGO   ROH 6755   7.958  15.478   9.724 -0.1832 -0.1308  0.0051
  594ERGO    R1 6756   7.828  15.441   9.476 -0.1251 -0.0968 -0.0317
  594ERGO    R2 6757   7.931  15.538   9.239 -0.1035 -0.0017  0.0103
  594ERGO    R3 6758   7.906  15.279   9.159 -0.0163  0.0122 -0.0598
  594ERGO    R4 6759   7.907  15.435   8.910 -0.1735  0.0816 -0.0100
  594ERGO    R5 6760   7.756  15.290   8.972 -0.0840 -0.0018 -0.0023
  594ERGO    C1 6761   7.868  15.132   8.643 -0.1325  0.1431 -0.0875
  594ERGO    C2 6762   7.784  14.900   8.339 -0.2528 -0.0151 -0.2037
  595ERGO   ROH 6763   9.392   4.312   9.444 -0.2525 -0.0397 -0.0049
  595ERGO    R1 6764   9.355   4.177   9.198 -0.2161  0.0185 -0.0433
  595ERGO    R2 6765   9.228   4.293   8.981 -0.0067  0.1441 -0.1050
  595ERGO    R3 6766   9.457   4.225   8.852  0.0182 -0.0130  0.0209
  595ERGO    R4 6767   9.259   4.252   8.640  0.1428  0.0599 -0.0813
  595ERGO    R5 6768   9.387   4.080   8.677  0.0247 -0.0050  0.0148
  595ERGO    C1 6769   9.493   4.164   8.320  0.2533 -0.1367  0.0507
  595ERGO    C2 6770   9.484   4.279   7.940 -0.4336  0.2304  0.1322
  596ERGO   ROH 6771   9.537   1.370   9.881 -0.1259 -0.1040 -0.0687
  596ERGO    R1 6772   9.423   1.241   9.657  0.1539 -0.2114 -0.1528
  596ERGO    R2 6773   9.371   1.372   9.420 -0.0261 -0.1937 -0.1031
  596ERGO    R3 6774   9.521   1.172   9.313  0.3599  0.1136 -0.1637
  596ERGO    R4 6775   9.381   1.291   9.084  0.0228 -0.1639 -0.1098
  596ERGO    R5 6776   9.382   1.080   9.141  0.4827 -0.1728 -0.1163
  596ERGO    C1 6777   9.526   1.056   8.788  0.4135  0.1419 -0.1706
  596ERGO    C2 6778   9.436   1.005   8.450 -0.1603 -0.1328 -0.1218
  597ERGO   ROH 6779   3.812  12.627   9.762  0.0083  0.1792 -0.0754
  597ERGO    R1 6780   3.874  12.647   9.486 -0.0936  0.1193 -0.1032
  597ERGO    R2 6781   3.968  12.433   9.339 -0.0209  0.1221 -0.0576
  597ERGO    R3 6782   3.759  12.494   9.177 -0.1085 -0.0539 -0.0140
  597ERGO    R4 6783   3.963  12.385   8.997 -0.0911  0.0150 -0.0422
  597ERGO    R5 6784   3.861  12.577   8.976 -0.2157 -0.0504 -0.0700
  597ERGO    C1 6785   3.763  12.415   8.645 -0.2142 -0.2126  0.0076
  597ERGO    C2 6786   3.723  12.283   8.299 -0.2066 -0.1182  0.2210
  598ERGO   ROH 6787  12.276   7.093  10.152 -0.2098 -0.0234  0.0270
  598ERGO    R1 6788  12.206   6.953   9.916 -0.1652 -0.0811  0.0485
  598ERGO    R2 6789  12.038   7.059   9.725  0.0206 -0.0502 -0.0988
  598ERGO    R3 6790  12.245   7.002   9.558  0.0828 -0.2678  0.0464
  598ERGO    R4 6791  12.015   7.044   9.380  0.2544  0.0167 -0.1193
  598ERGO    R5 6792  12.146   6.870   9.384  0.0558 -0.1372 -0.0402
  598ERGO    C1 6793  12.196   6.983   9.023  0.4488 -0.1486  0.0050
  598ERGO    C2 6794  12.129   7.075   8.678  0.2082 -0.0220 -0.2776
  599ERGO   ROH 6795  14.336   8.386  10.136  0.3119 -0.0207 -0.0144
  599ERGO    R1 6796  14.182   8.423   9.901  0.2237  0.0197  0.0494
  599ERGO    R2 6797  14.297   8.475   9.655  0.1337  0.0079  0.0065
  599ERGO    R3 6798  14.150   8.259   9.578  0.0593  0.0407  0.0536
  599ERGO    R4 6799  14.272   8.359   9.331  0.0961 -0.0540  0.0310
  599ERGO    R5 6800  14.060   8.322   9.366  0.0816  0.0266  0.0387
  599ERGO    C1 6801  14.119   8.089   9.069  0.0044 -0.0593  0.0894
  599ERGO    C2 6802  14.307   7.783   8.973 -0.1187 -0.2987  0.2063
  600ERGO   ROH 6803  16.321   1.010  10.301  0.1376 -0.0587  0.0883
  600ERGO    R1 6804  16.317   1.198  10.089  0.0856 -0.0193  0.1238
  600ERGO    R2 6805  16.534   1.242   9.924  0.0351 -0.0125  0.0568
  600ERGO    R3 6806  16.354   1.189   9.727 -0.0385  0.0422  0.1091
  600ERGO    R4 6807  16.604   1.246   9.586 -0.0895  0.0661  0.0313
  600ERGO    R5 6808  16.412   1.341   9.552 -0.0976  0.0815  0.1246
  600ERGO    C1 6809  16.476   1.199   9.204 -0.2310  0.1633  0.0658
  600ERGO    C2 6810  16.592   1.091   8.960 -0.3983  0.0807  0.1450
  601ERGO   ROH 6811  11.146  15.828   9.624  0.2702 -0.0858  0.0813
  601ERGO    R1 6812  11.107  15.736   9.360  0.1308 -0.0701  0.0968
  601ERGO    R2 6813  11.228  15.854   9.141  0.0255 -0.0672  0.0444
  601ERGO    R3 6814  11.314  15.600   9.093 -0.0131 -0.0699 -0.0180
  601ERGO    R4 6815  11.284  15.720   8.827  0.0081  0.0067  0.0087
  601ERGO    R5 6816  11.196  15.533   8.896 -0.0238  0.0002 -0.0389
  601ERGO    C1 6817  11.399  15.405   8.599 -0.0382  0.0473 -0.0707
  601ERGO    C2 6818  11.553  15.301   8.239 -0.1263 -0.2044 -0.0232
  602ERGO   ROH 6819  12.848  15.127   9.653 -0.1013 -0.1855  0.0299
  602ERGO    R1 6820  12.918  15.226   9.397 -0.0948 -0.0562  0.0808
  602ERGO    R2 6821  12.824  15.114   9.163 -0.0370  0.0203  0.0195
  602ERGO    R3 6822  12.744  15.368   9.111 -0.0961  0.0227  0.1209
  602ERGO    R4 6823  12.723  15.230   8.853  0.0268  0.1448  0.0449
  602ERGO    R5 6824  12.831  15.415   8.893 -0.0408  0.1577  0.1714
  602ERGO    C1 6825  12.589  15.536   8.625  0.0086  0.2194  0.1550
  602ERGO    C2 6826  12.548  15.730   8.419  0.0670 -0.2411  0.0523
  603ERGO   ROH 6827  17.438   0.476  10.180 -0.0507  0.1060  0.0236
  603ERGO    R1 6828  17.473   0.374   9.918  0.0331  0.2091 -0.0056
  603ERGO    R2 6829  17.285   0.213   9.794  0.2368 -0.0521  0.0141
  603ERGO    R3 6830  17.300   0.401   9.599 -0.0970  0.0159  0.0471
  603ERGO    R4 6831  17.201   0.161   9.463  0.4304 -0.1733 -0.0182
  603ERGO    R5 6832  17.374   0.280   9.406  0.2060  0.1944  0.0462
  603ERGO    C1 6833  17.166   0.307   9.087  0.2298 -0.1801 -0.0061
  603ERGO    C2 6834  17.255   0.295   8.821  0.1479  0.0718 -0.1709
  604ERGO   ROH 6835   8.547  12.200   9.518 -0.0847  0.0882 -0.0226
  604ERGO    R1 6836   8.561  12.382   9.301 -0.0460  0.0459 -0.0553
  604ERGO    R2 6837   8.775  12.390   9.127 -0.0719 -0.0708 -0.0897
  604ERGO    R3 6838   8.581  12.360   8.939 -0.1136 -0.0227 -0.0561
  604ERGO    R4 6839   8.777  12.542   8.817 -0.0636 -0.1035 -0.1064
  604ERGO    R5 6840   8.562  12.577   8.838 -0.0506 -0.0240 -0.0757
  604ERGO    C1 6841   8.596  12.602   8.459 -0.0978 -0.0774 -0.0844
  604ERGO    C2 6842   8.625  12.742   8.161  0.1222  0.1172 -0.2950
  605ERGO   ROH 6843   6.367   5.946   9.806  0.1135 -0.1746 -0.0503
  605ERGO    R1 6844   6.354   6.037   9.538  0.1274 -0.1105 -0.0301
  605ERGO    R2 6845   6.530   5.952   9.342  0.1145 -0.0951 -0.0527
  605ERGO    R3 6846   6.302   5.888   9.210  0.1023 -0.0285 -0.0632
  605ERGO    R4 6847   6.500   5.928   8.999  0.1028 -0.0144 -0.0569
  605ERGO    R5 6848   6.306   6.024   9.014  0.1201  0.0130 -0.0324
  605ERGO    C1 6849   6.268   5.853   8.675  0.0846  0.0951 -0.0692
  605ERGO    C2 6850   5.990   5.812   8.379 -0.0469  0.1079  0.1946
  606ERGO   ROH 6851   4.741  15.026   9.945 -0.0829 -0.2057 -0.0328
  606ERGO    R1 6852   4.817  15.033   9.672 -0.0928 -0.0349 -0.0324
  606ERGO    R2 6853   4.781  14.818   9.503  0.0362  0.0181 -0.1297
  606ERGO    R3 6854   4.650  15.001   9.350 -0.0814  0.0077 -0.0420
  606ERGO    R4 6855   4.807  14.843   9.159 -0.2129  0.0105 -0.1511
  606ERGO    R5 6856   4.808  15.061   9.180 -0.2068  0.0101 -0.1585
  606ERGO    C1 6857   4.699  15.030   8.816 -0.4684 -0.0037 -0.0813
  606ERGO    C2 6858   4.840  15.214   8.445  0.1279  0.2665 -0.1197
  607ERGO   ROH 6859   2.552   3.051  10.037 -0.0501  0.0511  0.0615
  607ERGO    R1 6860   2.596   3.115   9.765  0.2304  0.2062  0.1395
  607ERGO    R2 6861   2.845   3.097   9.645  0.2461 -0.3416  0.2273
  607ERGO    R3 6862   2.712   2.941   9.467 -0.1128  0.1755  0.0201
  607ERGO    R4 6863   2.953   3.028   9.324  0.2796 -0.4515  0.2620
  607ERGO    R5 6864   2.747   3.049   9.256  0.3747  0.2262  0.1158
  607ERGO    C1 6865   2.890   2.842   8.970 -0.0377 -0.0302  0.0878
  607ERGO    C2 6866   3.184   2.667   8.790 -0.0504 -0.0023  0.0628
  608ERGO   ROH 6867  13.053   2.323   9.667 -0.0735  0.3328 -0.0888
  608ERGO    R1 6868  13.200   2.412   9.443  0.0859  0.1677 -0.0518
  608ERGO    R2 6869  13.408   2.266   9.333 -0.0904 -0.0984 -0.0356
  608ERGO    R3 6870  13.264   2.294   9.105 -0.0159  0.1284 -0.0584
  608ERGO    R4 6871  13.533   2.225   9.014 -0.0397 -0.0319 -0.0247
  608ERGO    R5 6872  13.415   2.396   8.950  0.1039  0.0940  0.0318
  608ERGO    C1 6873  13.471   2.227   8.613  0.0598  0.2196 -0.0397
  608ERGO    C2 6874  13.549   1.996   8.338 -0.1088  0.0592 -0.0235
  609ERGO   ROH 6875   3.233  14.118   9.937  0.0765 -0.1068  0.0602
  609ERGO    R1 6876   3.281  14.022   9.676  0.0244 -0.0876  0.0437
  609ERGO    R2 6877   3.142  13.808   9.568 -0.0500 -0.0291  0.0280
  609ERGO    R3 6878   3.090  13.985   9.368 -0.0120  0.0113  0.0533
  609ERGO    R4 6879   3.169  13.738   9.231  0.2718  0.1097  0.0213
  609ERGO    R5 6880   3.255  13.937   9.201  0.1608  0.1849  0.1660
  609ERGO    C1 6881   3.136  13.864   8.847  0.4950  0.2282  0.0411
  609ERGO    C2 6882   3.058  13.855   8.541  0.0463 -0.1924  0.2400
  610ERGO   ROH 6883   0.125  15.824  10.177  0.2181 -0.1346  0.1025
  610ERGO    R1 6884   0.272  15.975   9.988  0.2081 -0.1194  0.1074
  610ERGO    R2 6885   0.287  15.903   9.721  0.2458 -0.1322  0.1147
  610ERGO    R3 6886   0.198  16.157   9.681  0.2044 -0.1504  0.0892
  610ERGO    R4 6887   0.232  16.047   9.412 -0.0687 -0.2766  0.0996
  610ERGO    R5 6888   0.318  16.232   9.488  0.0108 -0.2390 -0.0705
  610ERGO    C1 6889   0.116  16.368   9.194 -0.2907 -0.3773  0.0670
  610ERGO    C2 6890  -0.050  16.292   8.919  0.0438  0.2278 -0.0384
  611ERGO   ROH 6891  15.952   0.846  10.540 -0.3789  0.0127  0.2115
  611ERGO    R1 6892  15.689   0.821  10.439 -0.2871 -0.0549 -0.0197
  611ERGO    R2 6893  15.614   0.919  10.192 -0.1024 -0.0556 -0.0789
  611ERGO    R3 6894  15.528   0.664  10.152  0.0060 -0.0775 -0.1743
  611ERGO    R4 6895  15.461   0.805   9.904 -0.2311  0.0343 -0.0467
  611ERGO    R5 6896  15.325   0.688  10.029 -0.0882 -0.1112 -0.0263
  611ERGO    C1 6897  15.291   0.499   9.699 -0.2043  0.0660 -0.1175
  611ERGO    C2 6898  15.454   0.423   9.357  0.2571 -0.1613  0.1628
  612ERGO   ROH 6899  10.819   9.746   9.693  0.1063 -0.2047 -0.1266
  612ERGO    R1 6900  10.821   9.758   9.410  0.0572 -0.2692 -0.1297
  612ERGO    R2 6901  10.640   9.618   9.254 -0.1111 -0.1344 -0.0601
  612ERGO    R3 6902  10.591   9.864   9.149  0.0993 -0.1080 -0.1024
  612ERGO    R4 6903  10.532   9.676   8.931  0.0185 -0.0867 -0.0957
  612ERGO    R5 6904  10.666   9.847   8.922  0.1480 -0.1878 -0.0798
  612ERGO    C1 6905  10.422   9.940   8.644  0.2914 -0.0343 -0.1563
  612ERGO    C2 6906  10.054  10.016   8.513 -0.1684  0.2012 -0.1493
  613ERGO   ROH 6907   3.501   0.159  10.126 -0.1358 -0.0022 -0.0298
  613ERGO    R1 6908   3.408   0.130   9.860  0.0132 -0.1575 -0.0661
  613ERGO    R2 6909   3.273   0.331   9.727 -0.2771 -0.3808 -0.1130
  613ERGO    R3 6910   3.467   0.293   9.541 -0.1383 -0.0521 -0.0424
  613ERGO    R4 6911   3.239   0.399   9.389 -0.2527 -0.3750 -0.1146
  613ERGO    R5 6912   3.350   0.216   9.347  0.0511 -0.2050 -0.1024
  613ERGO    C1 6913   3.403   0.403   9.018 -0.1083 -0.0630 -0.0492
  613ERGO    C2 6914   3.551   0.314   8.712  0.0279  0.1017  0.0383
  614ERGO   ROH 6915   2.345  16.116  10.040  0.1657  0.0174 -0.0985
  614ERGO    R1 6916   2.521  15.982   9.864  0.1100 -0.0527 -0.1019
  614ERGO    R2 6917   2.690  15.779   9.947  0.0582 -0.0970 -0.0961
  614ERGO    R3 6918   2.569  15.640   9.747 -0.0050 -0.0793 -0.0717
  614ERGO    R4 6919   2.779  15.461   9.847  0.0614 -0.0653 -0.1940
  614ERGO    R5 6920   2.749  15.523   9.640 -0.0343 -0.0332 -0.1694
  614ERGO    C1 6921   2.718  15.145   9.601  0.0040 -0.0302 -0.2281
  614ERGO    C2 6922   2.651  14.850   9.676  0.0677 -0.1600 -0.0807
  615ERGO   ROH 6923   9.247  15.309   9.709 -0.0267 -0.1563 -0.0202
  615ERGO    R1 6924   9.299  15.362   9.435  0.0656 -0.1481 -0.0015
  615ERGO    R2 6925   9.466  15.204   9.282 -0.1350 -0.3335 -0.0335
  615ERGO    R3 6926   9.249  15.190   9.118 -0.1458  0.0062 -0.0537
  615ERGO    R4 6927   9.475  15.112   8.949 -0.2462 -0.3359 -0.0362
  615ERGO    R5 6928   9.329  15.269   8.907 -0.0050 -0.1066 -0.0432
  615ERGO    C1 6929   9.277  15.046   8.601 -0.3211 -0.0184 -0.0569
  615ERGO    C2 6930   9.248  14.870   8.331 -0.1994 -0.1278 -0.0179
  616ERGO   ROH 6931   4.831  16.807  10.534  0.1428 -0.1359 -0.0502
  616ERGO    R1 6932   4.731  16.883  10.280  0.0893 -0.0950 -0.0167
  616ERGO    R2 6933   4.862  16.824  10.044  0.0194 -0.0914 -0.0560
  616ERGO    R3 6934   4.623  16.714   9.977 -0.0152 -0.0475 -0.0065
  616ERGO    R4 6935   4.766  16.743   9.722 -0.0865 -0.0182 -0.0436
  616ERGO    R5 6936   4.566  16.817   9.768 -0.0635 -0.0006  0.0295
  616ERGO    C1 6937   4.485  16.592   9.472 -0.1807  0.0657  0.0102
  616ERGO    C2 6938   4.367  16.561   9.188  0.2109 -0.0023 -0.2038
  617ERGO   ROH 6939   1.674  13.187   9.573  0.3034 -0.0670  0.0296
  617ERGO    R1 6940   1.630  13.010   9.356  0.2169 -0.1680  0.1283
  617ERGO    R2 6941   1.601  13.098   9.096 -0.0412 -0.2759  0.1176
  617ERGO    R3 6942   1.803  12.922   9.048  0.0125 -0.1892  0.0181
  617ERGO    R4 6943   1.707  12.998   8.782 -0.0529 -0.1185  0.0624
  617ERGO    R5 6944   1.728  12.795   8.859  0.0280 -0.1415 -0.0197
  617ERGO    C1 6945   1.958  12.774   8.555 -0.0093  0.0546 -0.0631
  617ERGO    C2 6946   2.003  12.530   8.366  0.0376 -0.1872 -0.2072
  618ERGO   ROH 6947  14.327  12.329   9.827  0.0922  0.0350 -0.0830
  618ERGO    R1 6948  14.283  12.114   9.649  0.0092  0.0196 -0.0446
  618ERGO    R2 6949  14.210  12.151   9.385 -0.0818 -0.0023 -0.0237
  618ERGO    R3 6950  14.427  11.996   9.336 -0.1126 -0.0263 -0.0835
  618ERGO    R4 6951  14.348  12.098   9.073 -0.1101  0.0638 -0.0475
  618ERGO    R5 6952  14.377  11.889   9.127 -0.1435  0.0434 -0.1111
  618ERGO    C1 6953  14.632  11.921   8.845 -0.1555  0.0797 -0.1175
  618ERGO    C2 6954  14.642  11.895   8.510  0.1739  0.0880 -0.2214
  619ERGO   ROH 6955   6.935   8.039   9.740 -0.2303 -0.0058 -0.0692
  619ERGO    R1 6956   6.826   8.205   9.538 -0.1614  0.0285 -0.0795
  619ERGO    R2 6957   6.972   8.287   9.319 -0.0452  0.1711  0.0458
  619ERGO    R3 6958   6.764   8.180   9.181  0.0882  0.1382 -0.1317
  619ERGO    R4 6959   6.869   8.390   9.005  0.1580  0.1978 -0.0131
  619ERGO    R5 6960   6.662   8.367   9.071  0.1164  0.1268 -0.1732
  619ERGO    C1 6961   6.614   8.349   8.693  0.4015  0.1824 -0.2140
  619ERGO    C2 6962   6.508   8.239   8.418  0.1011  0.3166  0.0294
  620ERGO   ROH 6963   5.900   4.207   9.774  0.1705 -0.0854 -0.0873
  620ERGO    R1 6964   5.815   4.029   9.572 -0.0429  0.0587 -0.1298
  620ERGO    R2 6965   5.675   4.112   9.349  0.2054  0.3082 -0.2044
  620ERGO    R3 6966   5.875   3.985   9.216  0.0607 -0.0386 -0.1000
  620ERGO    R4 6967   5.645   3.972   9.034  0.1079  0.2740 -0.1792
  620ERGO    R5 6968   5.766   3.805   9.103 -0.1779  0.1011 -0.0944
  620ERGO    C1 6969   5.816   3.771   8.726 -0.0849 -0.0715 -0.0664
  620ERGO    C2 6970   5.728   3.665   8.435 -0.2022 -0.2240  0.0698
  621ERGO   ROH 6971   2.486   8.937   9.808 -0.0219 -0.0132  0.0810
  621ERGO    R1 6972   2.619   8.908   9.560 -0.1350  0.2169 -0.0094
  621ERGO    R2 6973   2.686   8.661   9.455  0.3108  0.3287 -0.0039
  621ERGO    R3 6974   2.548   8.750   9.240 -0.0417 -0.0004  0.0750
  621ERGO    R4 6975   2.778   8.611   9.126  0.2438  0.5534 -0.0587
  621ERGO    R5 6976   2.716   8.814   9.082 -0.2802  0.4145 -0.0259
  621ERGO    C1 6977   2.702   8.666   8.732 -0.1261  0.3753 -0.0167
  621ERGO    C2 6978   2.723   8.439   8.412  0.1674 -0.0525  0.0531
  622ERGO   ROH 6979  14.747  17.896  10.317 -0.1590 -0.0165 -0.0288
  622ERGO    R1 6980  14.750  17.893  10.034 -0.1575  0.0317 -0.0299
  622ERGO    R2 6981  14.604  18.071   9.882 -0.1352  0.0769 -0.0019
  622ERGO    R3 6982  14.846  18.122   9.768 -0.1274  0.0661  0.0112
  622ERGO    R4 6983  14.651  18.235   9.581 -0.1096  0.0747  0.0014
  622ERGO    R5 6984  14.809  18.092   9.534 -0.1146  0.0688  0.0101
  622ERGO    C1 6985  14.905  18.378   9.299 -0.0873  0.0633  0.0155
  622ERGO    C2 6986  15.075  18.572   9.043 -0.0432 -0.0314  0.0706
  623ERGO   ROH 6987   5.171   7.625   9.660  0.0522 -0.0922  0.1345
  623ERGO    R1 6988   5.033   7.502   9.445  0.0224  0.0959  0.0431
  623ERGO    R2 6989   5.065   7.582   9.183  0.2717  0.0841  0.0666
  623ERGO    R3 6990   5.122   7.319   9.144 -0.0264  0.0141  0.0776
  623ERGO    R4 6991   5.000   7.407   8.892  0.3191  0.2235 -0.0278
  623ERGO    R5 6992   4.938   7.237   9.014 -0.0156  0.2745 -0.1122
  623ERGO    C1 6993   5.016   7.059   8.685  0.0669  0.2388 -0.0725
  623ERGO    C2 6994   5.023   6.996   8.343 -0.3042  0.1009  0.1656
  624ERGO   ROH 6995   4.067  13.555   9.743  0.1340  0.1459 -0.0560
  624ERGO    R1 6996   4.079  13.650   9.477  0.3032 -0.0365 -0.1171
  624ERGO    R2 6997   4.245  13.538   9.287  0.2069 -0.3690 -0.0218
  624ERGO    R3 6998   4.014  13.515   9.145  0.1982 -0.1737 -0.0399
  624ERGO    R4 6999   4.227  13.500   8.944  0.1791 -0.1461 -0.0459
  624ERGO    R5 7000   4.056  13.636   8.943  0.2473 -0.0703  0.0372
  624ERGO    C1 7001   4.000  13.456   8.611  0.1548  0.1671 -0.0769
  624ERGO    C2 7002   4.099  13.534   8.281  0.1570  0.2269 -0.0015
  625ERGO   ROH 7003   2.167  10.113   9.902  0.1853  0.0211  0.0189
  625ERGO    R1 7004   2.192  10.126   9.620  0.1897  0.0256  0.0184
  625ERGO    R2 7005   2.436  10.142   9.493  0.1971  0.0304  0.0189
  625ERGO    R3 7006   2.344   9.924   9.358  0.1972  0.0293  0.0232
  625ERGO    R4 7007   2.492  10.078   9.158  0.2855 -0.0485  0.0490
  625ERGO    R5 7008   2.286  10.008   9.141  0.2848 -0.0058 -0.0068
  625ERGO    C1 7009   2.439   9.836   8.837  0.3371 -0.0956  0.0706
  625ERGO    C2 7010   2.370   9.887   8.531  0.3141 -0.4052 -0.1833
  626ERGO   ROH 7011  15.191   9.563  10.061 -0.2870 -0.1668 -0.0635
  626ERGO    R1 7012  15.126   9.492   9.795 -0.2190  0.0369 -0.1368
  626ERGO    R2 7013  14.902   9.591   9.665 -0.1363  0.2097 -0.1536
  626ERGO    R3 7014  15.084   9.666   9.478 -0.0389  0.2680 -0.0368
  626ERGO    R4 7015  14.826   9.757   9.372 -0.0385 -0.0583 -0.3341
  626ERGO    R5 7016  14.972   9.631   9.269  0.1839  0.0176 -0.1204
  626ERGO    C1 7017  14.952   9.924   9.025  0.1099 -0.1597 -0.3295
  626ERGO    C2 7018  15.054  10.059   8.707  0.0819 -0.2758 -0.1527
  627ERGO   ROH 7019  10.103   8.703  10.114 -0.0371 -0.2859 -0.1169
  627ERGO    R1 7020   9.976   8.824   9.891  0.0260 -0.0552 -0.0338
  627ERGO    R2 7021  10.117   8.912   9.670  0.0778  0.0190  0.0111
  627ERGO    R3 7022   9.943   8.753   9.536 -0.0198  0.2023 -0.0785
  627ERGO    R4 7023  10.088   8.897   9.326  0.1677  0.0834  0.0020
  627ERGO    R5 7024   9.872   8.885   9.349  0.1627  0.2789 -0.0807
  627ERGO    C1 7025   9.908   8.738   8.999  0.1282  0.2930 -0.0874
  627ERGO    C2 7026   9.937   8.736   8.570  0.1404 -0.1970 -0.2330
  628ERGO   ROH 7027   0.704   1.809  10.463  0.1470 -0.1949  0.0664
  628ERGO    R1 7028   0.737   1.572  10.311  0.0993 -0.1448 -0.0212
  628ERGO    R2 7029   0.561   1.499  10.110  0.0424 -0.0737  0.0068
  628ERGO    R3 7030   0.787   1.488   9.961 -0.0017 -0.0323 -0.0645
  628ERGO    R4 7031   0.588   1.339   9.805 -0.0343 -0.0580 -0.0091
  628ERGO    R5 7032   0.785   1.268   9.866 -0.0011 -0.0319 -0.0725
  628ERGO    C1 7033   0.817   1.236   9.487 -0.1204 -0.0100 -0.0853
  628ERGO    C2 7034   0.773   1.305   9.141  0.1803  0.0760 -0.0029
  629ERGO   ROH 7035  13.115   4.092  10.076  0.0168 -0.1592  0.1631
  629ERGO    R1 7036  13.324   4.226   9.939  0.0597 -0.2708  0.1166
  629ERGO    R2 7037  13.506   4.093   9.780 -0.1626 -0.3487 -0.0852
  629ERGO    R3 7038  13.425   4.273   9.593 -0.1168 -0.1525  0.0810
  629ERGO    R4 7039  13.677   4.165   9.488 -0.2060 -0.1977 -0.0735
  629ERGO    R5 7040  13.628   4.376   9.517 -0.0866 -0.1971  0.1102
  629ERGO    C1 7041  13.700   4.376   9.143 -0.1883  0.0743  0.0895
  629ERGO    C2 7042  13.812   4.234   8.895  0.1328  0.1645  0.2775
  630ERGO   ROH 7043  14.702   6.541  10.301  0.0585  0.2423 -0.1452
  630ERGO    R1 7044  14.705   6.317  10.128  0.0889  0.2047 -0.0967
  630ERGO    R2 7045  14.474   6.200  10.032  0.1002  0.0713  0.0311
  630ERGO    R3 7046  14.592   6.243   9.790 -0.0261  0.0762 -0.0301
  630ERGO    R4 7047  14.378   6.049   9.736 -0.0438  0.0705  0.0776
  630ERGO    R5 7048  14.589   6.028   9.684 -0.0715  0.0788 -0.0310
  630ERGO    C1 7049  14.432   6.001   9.337 -0.2462  0.0746  0.0471
  630ERGO    C2 7050  14.360   5.806   9.025 -0.0848  0.0509 -0.2080
  631ERGO   ROH 7051   7.044   4.254   9.531 -0.1133  0.0895  0.0216
  631ERGO    R1 7052   7.063   4.076   9.312 -0.1858  0.0488  0.0482
  631ERGO    R2 7053   6.870   4.061   9.116 -0.0812  0.2695 -0.0754
  631ERGO    R3 7054   7.080   4.105   8.949  0.0829  0.0036  0.0551
  631ERGO    R4 7055   6.860   4.027   8.772  0.0526  0.4114 -0.0943
  631ERGO    R5 7056   7.058   3.937   8.780 -0.0885  0.0968 -0.0174
  631ERGO    C1 7057   7.052   4.049   8.415  0.2846  0.2444  0.0171
  631ERGO    C2 7058   7.052   4.074   8.058 -0.2138  0.0261  0.3767
  632ERGO   ROH 7059  17.680  10.699   9.957 -0.0875 -0.0152  0.0495
  632ERGO    R1 7060  17.545  10.759   9.716 -0.2000 -0.1480  0.0761
  632ERGO    R2 7061  17.672  10.871   9.497 -0.4021  0.2324  0.1339
  632ERGO    R3 7062  17.568  10.657   9.367  0.0278  0.0819  0.0232
  632ERGO    R4 7063  17.530  10.881   9.182 -0.4037  0.0881  0.1308
  632ERGO    R5 7064  17.376  10.744   9.253 -0.1386 -0.2491  0.0511
  632ERGO    C1 7065  17.349  10.686   8.877 -0.0013 -0.1372  0.0250
  632ERGO    C2 7066  17.524  10.535   8.585  0.3281 -0.3010  0.0192
  633ERGO   ROH 7067   7.128   1.503   9.990  0.0268 -0.2390 -0.1151
  633ERGO    R1 7068   7.284   1.470   9.756  0.0446 -0.0311 -0.1344
  633ERGO    R2 7069   7.260   1.250   9.591  0.1689  0.0375 -0.2466
  633ERGO    R3 7070   7.222   1.438   9.399  0.0597  0.1154 -0.1502
  633ERGO    R4 7071   7.308   1.199   9.253  0.1393  0.2238 -0.2805
  633ERGO    R5 7072   7.398   1.397   9.241  0.0527  0.2674 -0.1981
  633ERGO    C1 7073   7.301   1.346   8.875  0.0195  0.4055 -0.2096
  633ERGO    C2 7074   7.296   1.358   8.479  0.0100 -0.0762  0.0436
  634ERGO   ROH 7075   6.405   1.319   9.826 -0.1266  0.0681 -0.1128
  634ERGO    R1 7076   6.409   1.257   9.550 -0.0176 -0.0006 -0.0965
  634ERGO    R2 7077   6.201   1.322   9.380  0.0320 -0.0760 -0.1880
  634ERGO    R3 7078   6.398   1.442   9.236  0.0649 -0.0802 -0.1467
  634ERGO    R4 7079   6.181   1.399   9.044 -0.0279  0.2370 -0.1156
  634ERGO    R5 7080   6.388   1.335   9.022 -0.0775  0.1161 -0.2399
  634ERGO    C1 7081   6.355   1.557   8.713 -0.0320  0.4153 -0.0345
  634ERGO    C2 7082   6.220   1.881   8.552  0.1253 -0.1152 -0.2267
  635ERGO   ROH 7083   7.828  13.671   9.813 -0.0218 -0.0340  0.0680
  635ERGO    R1 7084   7.693  13.544   9.598  0.0362 -0.0491  0.0404
  635ERGO    R2 7085   7.568  13.687   9.397 -0.0561 -0.0613  0.0895
  635ERGO    R3 7086   7.724  13.533   9.236  0.0208  0.0722  0.0348
  635ERGO    R4 7087   7.540  13.671   9.053 -0.0213  0.0757  0.0795
  635ERGO    R5 7088   7.574  13.456   9.065  0.0664  0.0838 -0.0110
  635ERGO    C1 7089   7.670  13.517   8.701  0.0710  0.2810  0.0224
  635ERGO    C2 7090   7.666  13.637   8.419 -0.1256  0.2637  0.0625
  636ERGO   ROH 7091   3.721  14.981   9.687  0.0794  0.2692 -0.1293
  636ERGO    R1 7092   3.693  14.838   9.444 -0.0090  0.0355  0.0132
  636ERGO    R2 7093   3.767  14.944   9.200 -0.2649 -0.1231 -0.1452
  636ERGO    R3 7094   3.914  14.716   9.182 -0.1217 -0.0383 -0.0456
  636ERGO    R4 7095   3.848  14.786   8.904 -0.0519 -0.1410 -0.0777
  636ERGO    R5 7096   3.812  14.594   9.002  0.0266 -0.1379 -0.0576
  636ERGO    C1 7097   4.033  14.480   8.714  0.2067 -0.0719  0.0550
  636ERGO    C2 7098   4.131  14.519   8.417 -0.1245  0.1490  0.1795
  637ERGO   ROH 7099   7.570   5.509   9.449  0.0656  0.1134  0.0734
  637ERGO    R1 7100   7.394   5.530   9.228  0.0392  0.0979  0.0926
  637ERGO    R2 7101   7.462   5.666   8.997  0.0458  0.0074  0.0406
  637ERGO    R3 7102   7.397   5.431   8.878 -0.0421 -0.0103  0.1221
  637ERGO    R4 7103   7.315   5.637   8.686  0.1387 -0.0476  0.0015
  637ERGO    R5 7104   7.191   5.476   8.766  0.0216  0.0552  0.0299
  637ERGO    C1 7105   7.168   5.399   8.393  0.1103 -0.0963  0.0555
  637ERGO    C2 7106   6.960   5.467   8.059  0.0958  0.0618 -0.0704
  638ERGO   ROH 7107   0.357  14.679  10.122  0.1796 -0.1332 -0.0240
  638ERGO    R1 7108   0.370  14.517   9.890  0.0672 -0.0536 -0.0869
  638ERGO    R2 7109   0.144  14.424   9.762  0.0037  0.0246 -0.0342
  638ERGO    R3 7110   0.258  14.541   9.545 -0.0627  0.0848 -0.0367
  638ERGO    R4 7111   0.001  14.438   9.447  0.0664 -0.2133 -0.0751
  638ERGO    R5 7112   0.198  14.398   9.362  0.1322 -0.0317 -0.0132
  638ERGO    C1 7113   0.026  14.556   9.060  0.0404 -0.2953 -0.1014
  638ERGO    C2 7114  -0.079  14.738   8.784  0.0091  0.2329 -0.2044
  639ERGO   ROH 7115  13.897  13.029   9.893 -0.1507  0.1014  0.0060
  639ERGO    R1 7116  13.878  13.048   9.611 -0.0806  0.0040 -0.0051
  639ERGO    R2 7117  14.034  13.222   9.463 -0.0316 -0.0628 -0.0267
  639ERGO    R3 7118  14.100  12.996   9.327 -0.0170 -0.1148  0.0643
  639ERGO    R4 7119  14.145  13.214   9.136 -0.1407 -0.1930 -0.0625
  639ERGO    R5 7120  14.023  13.036   9.104 -0.1060 -0.2452  0.0679
  639ERGO    C1 7121  14.273  12.998   8.818 -0.1904 -0.3176  0.0022
  639ERGO    C2 7122  14.536  12.920   8.580 -0.1259  0.0145 -0.0074
  640ERGO   ROH 7123   2.143  16.452  10.188 -0.0098 -0.0317  0.1129
  640ERGO    R1 7124   2.180  16.511   9.914  0.0862 -0.1320  0.1045
  640ERGO    R2 7125   2.135  16.325   9.713 -0.1400 -0.1146  0.1422
  640ERGO    R3 7126   1.972  16.518   9.615  0.1147  0.0791  0.0872
  640ERGO    R4 7127   2.043  16.358   9.382 -0.3651 -0.3053  0.1815
  640ERGO    R5 7128   2.065  16.573   9.402  0.0375 -0.3092 -0.0577
  640ERGO    C1 7129   1.837  16.559   9.097 -0.2571 -0.2344  0.1526
  640ERGO    C2 7130   1.860  16.506   8.848 -0.2544 -0.0608 -0.2351
  641ERGO   ROH 7131  16.376  15.461   9.863  0.1537  0.1472  0.0397
  641ERGO    R1 7132  16.498  15.439   9.608  0.2584  0.3313  0.0731
  641ERGO    R2 7133  16.361  15.351   9.384  0.4816 -0.0047  0.0649
  641ERGO    R3 7134  16.449  15.585   9.278  0.0329  0.1568  0.0257
  641ERGO    R4 7135  16.337  15.439   9.051  0.3726 -0.1389  0.0358
  641ERGO    R5 7136  16.537  15.525   9.064  0.2061  0.2738  0.0592
  641ERGO    C1 7137  16.406  15.710   8.757 -0.1120 -0.0652 -0.0180
  641ERGO    C2 7138  16.302  15.825   8.448  0.2765  0.0471 -0.1385
  642ERGO   ROH 7139   9.928  16.744   9.590  0.2405  0.0852 -0.0116
  642ERGO    R1 7140  10.084  16.704   9.356  0.2524  0.0569 -0.0003
  642ERGO    R2 7141  10.014  16.522   9.159  0.3427 -0.0812  0.0864
  642ERGO    R3 7142  10.035  16.740   8.998  0.2130 -0.1443 -0.0149
  642ERGO    R4 7143  10.006  16.515   8.814  0.2377 -0.2289  0.0923
  642ERGO    R5 7144  10.164  16.664   8.811  0.1799 -0.1744 -0.0217
  642ERGO    C1 7145  10.022  16.714   8.461  0.0549 -0.3741  0.0006
  642ERGO    C2 7146   9.995  16.662   8.156  0.0084  0.1093 -0.0289
  643ERGO   ROH 7147   9.801   4.454   9.688 -0.0004 -0.1679  0.1699
  643ERGO    R1 7148   9.801   4.522   9.413 -0.0811 -0.1201  0.1818
  643ERGO    R2 7149  10.006   4.451   9.242 -0.0455  0.0623  0.1476
  643ERGO    R3 7150   9.803   4.344   9.096  0.0183 -0.0644  0.1501
  643ERGO    R4 7151   9.957   4.502   8.903 -0.0457 -0.0151  0.1357
  643ERGO    R5 7152   9.743   4.517   8.941 -0.0577 -0.1174  0.1182
  643ERGO    C1 7153   9.738   4.431   8.570  0.0141 -0.1791  0.1310
  643ERGO    C2 7154   9.807   4.539   8.268 -0.2123  0.0692  0.3438
  644ERGO   ROH 7155   3.838   8.118   9.600  0.3625 -0.1226 -0.0630
  644ERGO    R1 7156   3.858   8.095   9.318  0.2811 -0.1117 -0.0700
  644ERGO    R2 7157   3.701   7.920   9.171  0.1498 -0.0136 -0.0457
  644ERGO    R3 7158   3.638   8.146   9.033  0.2394  0.0307 -0.0137
  644ERGO    R4 7159   3.546   7.929   8.862  0.3047  0.0816 -0.1221
  644ERGO    R5 7160   3.678   8.090   8.804  0.3501  0.0882 -0.0107
  644ERGO    C1 7161   3.396   8.145   8.553  0.4791  0.1788 -0.1366
  644ERGO    C2 7162   3.149   8.233   8.241  0.0220 -0.0130  0.1314
  645ERGO   ROH 7163   0.185  11.568   9.621 -0.1807 -0.0898 -0.0509
  645ERGO    R1 7164   0.128  11.475   9.360 -0.1027  0.0148 -0.1062
  645ERGO    R2 7165   0.077  11.646   9.149  0.0705  0.1023 -0.0793
  645ERGO    R3 7166   0.277  11.506   9.030  0.0635  0.0491 -0.0289
  645ERGO    R4 7167   0.051  11.485   8.844  0.0261 -0.1077  0.0331
  645ERGO    R5 7168   0.166  11.320   8.927  0.0667 -0.0364  0.1198
  645ERGO    C1 7169   0.224  11.260   8.555 -0.0064 -0.2799  0.1459
  645ERGO    C2 7170   0.103  11.016   8.304  0.0167  0.2272 -0.0398
  646ERGO   ROH 7171   5.205   5.838   9.957 -0.1390  0.0462 -0.1340
  646ERGO    R1 7172   5.194   5.640   9.755 -0.0616 -0.0239 -0.0699
  646ERGO    R2 7173   5.421   5.536   9.637 -0.0205  0.0195 -0.0279
  646ERGO    R3 7174   5.312   5.299   9.713  0.0626  0.0038  0.0454
  646ERGO    R4 7175   5.563   5.226   9.579 -0.0180  0.0391 -0.1289
  646ERGO    R5 7176   5.364   5.149   9.533 -0.0409  0.0128  0.0069
  646ERGO    C1 7177   5.544   4.823   9.616  0.0616  0.0359 -0.1189
  646ERGO    C2 7178   5.758   4.591   9.470  0.0323 -0.0274  0.0035
  647ERGO   ROH 7179  15.442  10.360   9.986  0.0205 -0.0927 -0.1546
  647ERGO    R1 7180  15.520  10.418   9.720  0.1821 -0.0133 -0.0914
  647ERGO    R2 7181  15.785  10.427   9.642  0.2266 -0.1853  0.0263
  647ERGO    R3 7182  15.701  10.248   9.454  0.1583 -0.0198 -0.1025
  647ERGO    R4 7183  15.988  10.284   9.401  0.1116  0.1145 -0.2544
  647ERGO    R5 7184  15.825  10.307   9.257  0.0129  0.2143 -0.1258
  647ERGO    C1 7185  16.027  10.034   9.085 -0.0194  0.4446 -0.5389
  647ERGO    C2 7186  16.331   9.728   9.069 -0.2029  0.0528  0.2693
  648ERGO   ROH 7187   2.567  12.898   9.762 -0.1447  0.1038  0.0476
  648ERGO    R1 7188   2.747  12.889   9.545 -0.2173  0.3101 -0.0217
  648ERGO    R2 7189   2.765  12.671   9.376  0.1400  0.2219  0.1344
  648ERGO    R3 7190   2.724  12.858   9.183 -0.3143  0.0058  0.0050
  648ERGO    R4 7191   2.895  12.657   9.056  0.2657  0.3475  0.1770
  648ERGO    R5 7192   2.933  12.871   9.067 -0.2985  0.4796  0.0539
  648ERGO    C1 7193   2.931  12.824   8.688 -0.0877  0.2179  0.0802
  648ERGO    C2 7194   2.909  12.946   8.305  0.1802 -0.0554  0.0571
  649ERGO   ROH 7195  10.641  15.922   9.587 -0.2509  0.1080 -0.1360
  649ERGO    R1 7196  10.624  15.948   9.305 -0.2821 -0.0949 -0.1541
  649ERGO    R2 7197  10.829  16.051   9.152 -0.4085  0.0633 -0.2169
  649ERGO    R3 7198  10.803  15.818   9.017 -0.1170 -0.0612 -0.0688
  649ERGO    R4 7199  10.924  16.002   8.824 -0.3634 -0.0186 -0.1919
  649ERGO    R5 7200  10.743  15.884   8.795 -0.2185 -0.2732 -0.1091
  649ERGO    C1 7201  10.953  15.754   8.505 -0.0635 -0.1832 -0.0384
  649ERGO    C2 7202  11.074  15.552   8.211 -0.0222  0.1051 -0.1048
  650ERGO   ROH 7203  15.670  13.636   9.901  0.2535  0.1005 -0.1052
  650ERGO    R1 7204  15.739  13.553   9.639  0.2114  0.0360 -0.0980
  650ERGO    R2 7205  15.570  13.588   9.423  0.1752 -0.0144 -0.0851
  650ERGO    R3 7206  15.786  13.713   9.316  0.1597 -0.0404 -0.1425
  650ERGO    R4 7207  15.613  13.655   9.086  0.1254 -0.0790 -0.1028
  650ERGO    R5 7208  15.823  13.601   9.108  0.1248 -0.0784 -0.1256
  650ERGO    C1 7209  15.841  13.812   8.790  0.0818 -0.1412 -0.1670
  650ERGO    C2 7210  15.729  14.060   8.470  0.1280  0.0795 -0.1174
  651ERGO   ROH 7211  12.489   1.462   9.631 -0.0101  0.1509  0.0581
  651ERGO    R1 7212  12.600   1.512   9.375  0.0028  0.2855  0.0896
  651ERGO    R2 7213  12.533   1.363   9.152  0.2255  0.2204  0.0634
  651ERGO    R3 7214  12.474   1.607   9.047 -0.0169  0.1627  0.0616
  651ERGO    R4 7215  12.621   1.468   8.835  0.0534  0.2815  0.0352
  651ERGO    R5 7216  12.666   1.664   8.917 -0.1003  0.3277  0.0102
  651ERGO    C1 7217  12.615   1.758   8.551 -0.2746  0.2629  0.0171
  651ERGO    C2 7218  12.443   1.929   8.259  0.2597 -0.1718 -0.1575
  652ERGO   ROH 7219  10.235  13.797   9.744 -0.0189 -0.0262  0.1209
  652ERGO    R1 7220  10.267  13.669   9.494 -0.0826  0.0205  0.0876
  652ERGO    R2 7221  10.055  13.612   9.327 -0.1289  0.0365  0.1366
  652ERGO    R3 7222  10.202  13.749   9.145 -0.1890  0.0807  0.1217
  652ERGO    R4 7223  10.064  13.542   8.989  0.0371 -0.1048  0.1688
  652ERGO    R5 7224  10.279  13.581   8.992  0.0021  0.0788  0.2194
  652ERGO    C1 7225  10.208  13.631   8.620  0.0770 -0.1455  0.1739
  652ERGO    C2 7226  10.216  13.423   8.315  0.1562  0.1272  0.0595
  653ERGO   ROH 7227   5.681  16.043  10.042 -0.3357 -0.3407 -0.0236
  653ERGO    R1 7228   5.590  15.970   9.784 -0.2108 -0.2111 -0.1058
  653ERGO    R2 7229   5.322  15.965   9.716 -0.1815 -0.2370 -0.2199
  653ERGO    R3 7230   5.403  16.129   9.514 -0.1374 -0.0980 -0.0912
  653ERGO    R4 7231   5.260  15.911   9.380 -0.2699  0.0837 -0.2586
  653ERGO    R5 7232   5.462  15.979   9.337 -0.2419  0.0244 -0.2335
  653ERGO    C1 7233   5.300  16.033   8.996 -0.2800  0.4008 -0.1603
  653ERGO    C2 7234   5.399  16.034   8.614  0.0721  0.2340  0.0002
  654ERGO   ROH 7235   3.718   6.438   9.861  0.0102 -0.0384 -0.1370
  654ERGO    R1 7236   3.663   6.303   9.619 -0.1215 -0.0538 -0.0988
  654ERGO    R2 7237   3.415   6.311   9.497 -0.1155  0.1472 -0.0958
  654ERGO    R3 7238   3.560   6.395   9.282 -0.0396 -0.0491 -0.1235
  654ERGO    R4 7239   3.328   6.257   9.167 -0.2048  0.1757 -0.0775
  654ERGO    R5 7240   3.538   6.217   9.123 -0.2465 -0.0609 -0.0876
  654ERGO    C1 7241   3.414   6.303   8.773 -0.1857  0.0080 -0.0928
  654ERGO    C2 7242   3.176   6.315   8.604  0.0023  0.2588  0.1235
  655ERGO   ROH 7243   0.761  12.369   9.618  0.1361  0.2570  0.0429
  655ERGO    R1 7244   0.701  12.334   9.344 -0.0295  0.2612  0.0773
  655ERGO    R2 7245   0.722  12.539   9.160  0.1442  0.1925  0.0184
  655ERGO    R3 7246   0.881  12.362   9.028 -0.1310 -0.0406 -0.0110
  655ERGO    R4 7247   0.798  12.555   8.823  0.2134  0.1612  0.0324
  655ERGO    R5 7248   0.778  12.338   8.813 -0.1482  0.1920 -0.0316
  655ERGO    C1 7249   0.992  12.397   8.504 -0.0046 -0.0757  0.0130
  655ERGO    C2 7250   1.142  12.298   8.203 -0.0563  0.0051 -0.1102
  656ERGO   ROH 7251   9.458  10.139   8.414 -0.0468 -0.0489  0.0640
  656ERGO    R1 7252   9.523   9.896   8.285 -0.0260 -0.0810  0.1356
  656ERGO    R2 7253   9.743   9.868   8.121 -0.0604 -0.0919  0.0958
  656ERGO    R3 7254   9.800   9.661   8.287  0.0233 -0.0240  0.1538
  656ERGO    R4 7255   9.955   9.606   8.044 -0.0768 -0.1077  0.1027
  656ERGO    R5 7256   9.815   9.470   8.142 -0.0290 -0.0799  0.2177
  656ERGO    C1 7257  10.131   9.258   8.156 -0.0077 -0.0531  0.1611
  656ERGO    C2 7258  10.325   9.007   8.298  0.0386 -0.1100 -0.2206
  657ERGO   ROH 7259   7.470   6.959   9.566  0.0050 -0.2205  0.0008
  657ERGO    R1 7260   7.534   7.004   9.294  0.0499 -0.1362  0.0247
  657ERGO    R2 7261   7.491   6.814   9.098  0.0577 -0.0656 -0.0457
  657ERGO    R3 7262   7.353   7.015   8.979  0.0977 -0.0105  0.0009
  657ERGO    R4 7263   7.415   6.827   8.762  0.0723  0.0294 -0.0450
  657ERGO    R5 7264   7.459   7.041   8.765  0.1108  0.0223  0.0103
  657ERGO    C1 7265   7.241   7.024   8.453  0.1183  0.1364 -0.0009
  657ERGO    C2 7266   7.261   6.824   8.105  0.0204  0.3032  0.2079
  658ERGO   ROH 7267   4.758   7.486   9.847 -0.2994 -0.1876 -0.0012
  658ERGO    R1 7268   4.571   7.477   9.635 -0.2082  0.0004 -0.0924
  658ERGO    R2 7269   4.608   7.614   9.398 -0.0083  0.0514 -0.0353
  658ERGO    R3 7270   4.571   7.369   9.287 -0.1170  0.1085 -0.1263
  658ERGO    R4 7271   4.588   7.551   9.058  0.2389  0.1478 -0.0700
  658ERGO    R5 7272   4.428   7.409   9.099  0.0826  0.2717 -0.2456
  658ERGO    C1 7273   4.541   7.283   8.758  0.2809  0.2576 -0.1758
  658ERGO    C2 7274   4.554   7.169   8.391 -0.1269  0.1514 -0.0167
  659ERGO   ROH 7275   8.443   8.321   9.609 -0.1586 -0.1536 -0.1284
  659ERGO    R1 7276   8.591   8.412   9.385 -0.1755 -0.1392 -0.1336
  659ERGO    R2 7277   8.472   8.524   9.163 -0.1707  0.2037  0.0310
  659ERGO    R3 7278   8.643   8.729   9.214  0.1114 -0.0470  0.1156
  659ERGO    R4 7279   8.585   8.749   8.927 -0.0604  0.2977  0.1714
  659ERGO    R5 7280   8.783   8.739   9.019 -0.0071 -0.0287  0.0313
  659ERGO    C1 7281   8.813   9.072   8.837  0.2688  0.1171  0.3328
  659ERGO    C2 7282   8.871   9.237   8.592  0.1119  0.1363 -0.1722
  660ERGO   ROH 7283  15.182  16.846   9.956  0.2311  0.0764 -0.1071
  660ERGO    R1 7284  15.093  16.969   9.718  0.1077  0.0539 -0.0727
  660ERGO    R2 7285  15.256  17.131   9.565  0.0109  0.0800 -0.1427
  660ERGO    R3 7286  15.183  16.961   9.366 -0.0396  0.0653 -0.1128
  660ERGO    R4 7287  15.217  17.220   9.233  0.1225  0.0227 -0.1719
  660ERGO    R5 7288  15.041  17.091   9.224  0.0536  0.1089 -0.1722
  660ERGO    C1 7289  15.127  17.112   8.853  0.1400 -0.0243 -0.1609
  660ERGO    C2 7290  15.103  17.169   8.453  0.1891  0.1839 -0.1120
  661ERGO   ROH 7291   4.642   6.429   9.610 -0.1096  0.0843  0.1195
  661ERGO    R1 7292   4.511   6.415   9.360 -0.0662  0.1419  0.0940
  661ERGO    R2 7293   4.648   6.386   9.122 -0.0317  0.0967  0.1216
  661ERGO    R3 7294   4.482   6.173   9.089 -0.1076  0.1612  0.0803
  661ERGO    R4 7295   4.564   6.247   8.817  0.0680  0.0727  0.1046
  661ERGO    R5 7296   4.360   6.224   8.889  0.0176  0.1760  0.0044
  661ERGO    C1 7297   4.360   5.966   8.609  0.0548  0.1192  0.0559
  661ERGO    C2 7298   4.533   5.782   8.392  0.1031  0.1623  0.0820
  662ERGO   ROH 7299  10.444  15.090   9.824  0.0782  0.0191 -0.0447
  662ERGO    R1 7300  10.454  14.922   9.596  0.0181  0.0073 -0.0388
  662ERGO    R2 7301  10.247  14.752   9.528 -0.0298  0.0537 -0.0140
  662ERGO    R3 7302  10.263  14.881   9.289 -0.0189  0.0414 -0.0200
  662ERGO    R4 7303  10.168  14.612   9.222  0.1068  0.0008 -0.0262
  662ERGO    R5 7304  10.340  14.714   9.136  0.0876  0.0622  0.0120
  662ERGO    C1 7305  10.136  14.653   8.820  0.1965 -0.0415 -0.0388
  662ERGO    C2 7306  10.016  14.546   8.570 -0.1509 -0.3188  0.4197
  663ERGO   ROH 7307   0.284   5.046  10.382 -0.0876 -0.2559  0.0173
  663ERGO    R1 7308   0.175   5.036  10.121 -0.0346  0.1747 -0.0284
  663ERGO    R2 7309   0.260   5.203   9.918  0.4928  0.0630  0.0853
  663ERGO    R3 7310   0.298   4.969   9.785 -0.0948  0.0104 -0.0185
  663ERGO    R4 7311   0.292   5.175   9.575  0.5993  0.1621  0.0864
  663ERGO    R5 7312   0.170   4.994   9.584  0.0729  0.4875 -0.0792
  663ERGO    C1 7313   0.347   4.938   9.251  0.1097  0.1704 -0.0103
  663ERGO    C2 7314   0.423   5.026   8.911 -0.0633 -0.1840  0.1177
  664ERGO   ROH 7315  13.332  15.298   9.590  0.0720  0.3125  0.0118
  664ERGO    R1 7316  13.384  15.209   9.326  0.0824  0.0992  0.0835
  664ERGO    R2 7317  13.229  15.285   9.110  0.1245 -0.0268  0.0050
  664ERGO    R3 7318  13.468  15.363   9.008  0.1561 -0.1606 -0.0238
  664ERGO    R4 7319  13.286  15.360   8.778  0.1430 -0.0901 -0.0062
  664ERGO    R5 7320  13.478  15.257   8.793  0.0885 -0.1853 -0.0117
  664ERGO    C1 7321  13.544  15.476   8.488  0.1834 -0.2525 -0.0398
  664ERGO    C2 7322  13.570  15.517   8.096  0.2445  0.2940 -0.0791
  665ERGO   ROH 7323   2.559  13.912   9.880 -0.0253 -0.2342 -0.0188
  665ERGO    R1 7324   2.674  13.981   9.630 -0.0139 -0.1248  0.0186
  665ERGO    R2 7325   2.728  13.793   9.435 -0.0481 -0.0258 -0.0686
  665ERGO    R3 7326   2.577  13.958   9.280 -0.0102  0.0775 -0.0010
  665ERGO    R4 7327   2.742  13.809   9.090 -0.2312 -0.1135 -0.0829
  665ERGO    R5 7328   2.723  14.025   9.103 -0.0428 -0.0794 -0.1046
  665ERGO    C1 7329   2.608  13.972   8.744 -0.3023 -0.0674 -0.0278
  665ERGO    C2 7330   2.590  14.091   8.400  0.2627  0.0115 -0.1250
  666ERGO   ROH 7331   1.142   3.829  10.599  0.1677 -0.1412  0.1284
  666ERGO    R1 7332   1.223   3.893  10.336  0.1755 -0.1921  0.1181
  666ERGO    R2 7333   1.235   3.705  10.134  0.0611 -0.2065  0.1235
  666ERGO    R3 7334   1.075   3.882  10.004  0.1379 -0.1299  0.1328
  666ERGO    R4 7335   1.232   3.754   9.792  0.0060 -0.2652  0.1158
  666ERGO    R5 7336   1.213   3.968   9.827  0.1477 -0.2462  0.0833
  666ERGO    C1 7337   1.080   3.948   9.470  0.0461 -0.2274  0.1200
  666ERGO    C2 7338   1.067   4.085   9.188  0.0766 -0.0190  0.0057
  667ERGO   ROH 7339   6.583  15.415  10.287  0.1001  0.0128 -0.0929
  667ERGO    R1 7340   6.657  15.534  10.041  0.0455  0.0977 -0.0685
  667ERGO    R2 7341   6.531  15.474   9.803  0.0865  0.0750 -0.0823
  667ERGO    R3 7342   6.497  15.743   9.790 -0.0561  0.0597 -0.0368
  667ERGO    R4 7343   6.436  15.648   9.520  0.2519  0.0937 -0.1276
  667ERGO    R5 7344   6.578  15.803   9.573  0.1161  0.1642  0.0525
  667ERGO    C1 7345   6.348  16.002   9.343  0.2143  0.0903 -0.1112
  667ERGO    C2 7346   6.209  16.210   9.054 -0.0522 -0.2304  0.1627
  668ERGO   ROH 7347   8.868   5.869  10.068  0.1039 -0.1421 -0.1121
  668ERGO    R1 7348   8.902   6.002   9.821  0.1435 -0.1900 -0.1313
  668ERGO    R2 7349   9.019   5.882   9.602 -0.0048 -0.3016 -0.1449
  668ERGO    R3 7350   8.789   5.957   9.478  0.0192 -0.1334 -0.1010
  668ERGO    R4 7351   8.997   5.988   9.273  0.0078 -0.3386 -0.1592
  668ERGO    R5 7352   8.854   6.139   9.337  0.1407 -0.2038 -0.1468
  668ERGO    C1 7353   8.769   6.120   8.966  0.0375 -0.2023 -0.1264
  668ERGO    C2 7354   8.858   5.980   8.725 -0.2909 -0.1254  0.0480
  669ERGO   ROH 7355  11.141  13.645   9.683 -0.2165  0.1157 -0.0295
  669ERGO    R1 7356  11.167  13.696   9.406 -0.3575  0.0642 -0.0526
  669ERGO    R2 7357  11.349  13.563   9.246 -0.1194  0.3500 -0.0259
  669ERGO    R3 7358  11.128  13.508   9.097 -0.0436 -0.1325  0.0226
  669ERGO    R4 7359  11.347  13.524   8.903 -0.0950  0.2347 -0.0140
  669ERGO    R5 7360  11.159  13.634   8.897 -0.3202 -0.1304 -0.0235
  669ERGO    C1 7361  11.138  13.450   8.563 -0.0097 -0.2852  0.0385
  669ERGO    C2 7362  11.290  13.317   8.296  0.0667 -0.1264  0.0888
  670ERGO   ROH 7363   0.726   6.459  10.505 -0.2525 -0.0002 -0.0062
  670ERGO    R1 7364   0.708   6.296  10.274 -0.1906 -0.0415  0.0185
  670ERGO    R2 7365   0.467   6.207  10.173 -0.1702  0.0267 -0.0883
  670ERGO    R3 7366   0.557   6.322   9.944 -0.0082 -0.0548 -0.0674
  670ERGO    R4 7367   0.429   6.074   9.856 -0.0857 -0.0099 -0.0837
  670ERGO    R5 7368   0.632   6.138   9.810 -0.0322 -0.1140 -0.0009
  670ERGO    C1 7369   0.493   6.104   9.457  0.1156 -0.1078 -0.0614
  670ERGO    C2 7370   0.475   5.906   9.076  0.0787 -0.0542 -0.5063
  671ERGO   ROH 7371  12.729   8.899   9.954  0.1127 -0.0786 -0.0639
  671ERGO    R1 7372  12.701   8.829   9.682  0.1492 -0.0240 -0.0824
  671ERGO    R2 7373  12.604   9.005   9.492  0.0520 -0.0256 -0.0382
  671ERGO    R3 7374  12.836   8.943   9.364  0.0863  0.1324 -0.0530
  671ERGO    R4 7375  12.638   8.973   9.150  0.0182 -0.1519 -0.0296
  671ERGO    R5 7376  12.768   8.801   9.183  0.1856 -0.0146  0.0252
  671ERGO    C1 7377  12.875   8.896   8.830  0.0306 -0.0771 -0.0384
  671ERGO    C2 7378  12.949   9.016   8.426 -0.0502 -0.2804 -0.2392
  672PSPI    C1 7379   3.815  10.725   5.959  0.2350 -0.2285  0.1506
  672PSPI    C2 7380   3.780  10.328   5.993  0.1403 -0.2277  0.0677
  672PSPI    C3 7381   3.778  10.499   5.631 -0.1180 -0.1257  0.1146
  672PSPI   PO4 7382   3.725  10.782   6.239 -0.1813 -0.0814 -0.2277
  672PSPI   GL1 7383   3.689  11.041   6.564  0.0572 -0.0440  0.1701
  672PSPI   GL2 7384   3.436  11.183   6.711 -0.0341 -0.2793  0.0139
  672PSPI   C1A 7385   3.797  11.146   7.012 -0.0689  0.0467 -0.0772
  672PSPI   C2A 7386   3.874  11.130   7.474  0.2644  0.0180  0.1066
  672PSPI   C3A 7387   3.911  11.292   7.824 -0.1585 -0.2215  0.0671
  672PSPI   C4A 7388   3.799  11.441   8.247  0.0773 -0.2748  0.0725
  672PSPI   C1B 7389   3.185  11.144   7.074 -0.1792 -0.1423 -0.0769
  672PSPI   C2B 7390   3.002  11.178   7.497  0.5296 -0.0583 -0.3805
  672PSPI   C3B 7391   3.124  10.907   7.868  0.0728  0.0242 -0.2006
  672PSPI   C4B 7392   3.205  10.542   7.996 -0.1245 -0.0304  0.2990
  673PSPI    C1 7393  17.504   2.981   6.762  0.0103  0.0626 -0.1429
  673PSPI    C2 7394  17.199   2.876   6.524  0.2004  0.0859 -0.4017
  673PSPI    C3 7395  17.359   3.242   6.495 -0.1150  0.2784  0.1313
  673PSPI   PO4 7396  17.406   2.912   7.021  0.1409 -0.0346  0.1994
  673PSPI   GL1 7397  17.226   3.134   7.351 -0.1204 -0.2762 -0.1145
  673PSPI   GL2 7398  17.070   3.361   7.344  0.1941  0.2462 -0.2177
  673PSPI   C1A 7399  17.450   3.188   7.744  0.0480 -0.2439  0.2260
  673PSPI   C2A 7400  17.641   3.177   8.141  0.0805 -0.1287 -0.2746
  673PSPI   C3A 7401  17.622   3.368   8.630 -0.1250  0.0728 -0.1279
  673PSPI   C4A 7402  17.866   3.463   9.032  0.0857 -0.0058 -0.0855
  673PSPI   C1B 7403  16.939   3.111   7.740  0.0281  0.1461  0.1919
  673PSPI   C2B 7404  17.127   3.016   8.091 -0.0637 -0.1986 -0.0229
  673PSPI   C3B 7405  17.161   3.188   8.476  0.0181  0.1218 -0.1460
  673PSPI   C4B 7406  17.208   3.211   8.945  0.0123  0.0213 -0.2284
  674PSPI    C1 7407   2.335   3.065   6.778  0.0503 -0.1474  0.1135
  674PSPI    C2 7408   2.538   2.810   6.546 -0.0090 -0.0272 -0.0736
  674PSPI    C3 7409   2.571   3.204   6.486  0.2161  0.0203  0.3246
  674PSPI   PO4 7410   2.086   2.918   6.842  0.0374  0.3132  0.2003
  674PSPI   GL1 7411   1.759   2.994   7.243 -0.3480 -0.0298 -0.0797
  674PSPI   GL2 7412   2.013   2.867   7.352 -0.0864 -0.1047  0.2274
  674PSPI   C1A 7413   1.656   2.731   7.660  0.0169  0.1269  0.4360
  674PSPI   C2A 7414   1.739   2.250   7.780  0.0173  0.1241 -0.0499
  674PSPI   C3A 7415   1.820   2.270   8.220 -0.0988 -0.0627 -0.1109
  674PSPI   C4A 7416   1.913   1.934   8.567  0.1259  0.0436  0.2666
  674PSPI   C1B 7417   2.144   2.725   7.750  0.1852 -0.2485  0.1362
  674PSPI   C2B 7418   2.244   2.582   8.123  0.2716 -0.0059 -0.0191
  674PSPI   C3B 7419   2.044   2.735   8.510 -0.0107 -0.0145  0.0112
  674PSPI   C4B 7420   1.806   2.479   8.665  0.0429  0.3796 -0.0364
  675PSPI    C1 7421   5.170  17.465   6.188 -0.0890 -0.0275  0.0654
  675PSPI    C2 7422   4.974  17.782   6.044  0.1441  0.0070 -0.1852
  675PSPI    C3 7423   5.364  17.809   6.127  0.1175 -0.1535  0.0006
  675PSPI   PO4 7424   5.096  17.359   6.392 -0.2164 -0.1203  0.1213
  675PSPI   GL1 7425   5.289  17.225   6.870 -0.1858  0.0204  0.0927
  675PSPI   GL2 7426   5.378  17.290   7.175 -0.0359 -0.0815  0.0966
  675PSPI   C1A 7427   5.547  16.815   7.097  0.0900  0.2929  0.0109
  675PSPI   C2A 7428   5.581  16.784   7.451 -0.0770  0.1812  0.0477
  675PSPI   C3A 7429   5.753  16.732   7.934  0.1581  0.2162 -0.2087
  675PSPI   C4A 7430   5.874  16.705   8.317  0.2974  0.2247  0.0471
  675PSPI   C1B 7431   5.475  17.266   7.601 -0.0178 -0.2583  0.0331
  675PSPI   C2B 7432   5.441  17.211   8.006 -0.0278  0.1051 -0.0297
  675PSPI   C3B 7433   5.746  17.322   8.237  0.4313  0.1502 -0.1190
  675PSPI   C4B 7434   5.905  17.588   8.532  0.2654 -0.0202  0.2745
  676PSPI    C1 7435   0.962   4.388   6.770 -0.1787 -0.0385  0.0761
  676PSPI    C2 7436   1.161   4.157   6.510 -0.0325  0.2593 -0.0820
  676PSPI    C3 7437   0.789   4.279   6.426 -0.1601 -0.0212  0.0612
  676PSPI   PO4 7438   1.061   4.407   7.006  0.0860 -0.2634 -0.0314
  676PSPI   GL1 7439   1.093   4.224   7.384  0.0137 -0.1547  0.3596
  676PSPI   GL2 7440   0.926   4.597   7.412 -0.1787 -0.1357 -0.0129
  676PSPI   C1A 7441   0.870   4.238   7.783  0.0076 -0.4096  0.0321
  676PSPI   C2A 7442   0.932   4.499   8.176  0.1375  0.1213 -0.2382
  676PSPI   C3A 7443   1.040   4.572   8.643 -0.1340  0.1764  0.0752
  676PSPI   C4A 7444   1.425   4.443   8.853  0.0656  0.2833 -0.3868
  676PSPI   C1B 7445   0.571   4.594   7.687  0.2608 -0.1675 -0.4156
  676PSPI   C2B 7446   0.344   4.339   7.937  0.1379  0.0124  0.3942
  676PSPI   C3B 7447   0.434   4.179   8.325  0.0004  0.1282 -0.0754
  676PSPI   C4B 7448   0.768   4.106   8.664  0.0075 -0.0532 -0.0163
  677PSPI    C1 7449  14.774  15.764   6.060 -0.0052 -0.1689  0.0042
  677PSPI    C2 7450  14.395  15.794   5.934  0.0116 -0.0922 -0.0286
  677PSPI    C3 7451  14.696  15.884   5.686  0.0472 -0.0108  0.0435
  677PSPI   PO4 7452  14.771  15.871   6.261 -0.0729 -0.2221 -0.0756
  677PSPI   GL1 7453  14.701  15.970   6.724  0.0638 -0.0031 -0.0252
  677PSPI   GL2 7454  14.731  15.632   6.744  0.1641 -0.1086  0.1901
  677PSPI   C1A 7455  14.542  15.904   7.122 -0.0661  0.2456  0.0849
  677PSPI   C2A 7456  14.245  15.798   7.547 -0.1000 -0.1653  0.0348
  677PSPI   C3A 7457  14.050  15.989   7.868  0.3830  0.2186 -0.0745
  677PSPI   C4A 7458  13.980  16.294   8.148 -0.3618 -0.2439  0.1298
  677PSPI   C1B 7459  15.020  15.415   6.986  0.2084 -0.1478  0.0178
  677PSPI   C2B 7460  15.125  15.448   7.452 -0.1548  0.0083  0.0190
  677PSPI   C3B 7461  15.225  15.712   7.814  0.0125  0.0279  0.0545
  677PSPI   C4B 7462  15.559  15.508   8.147 -0.3855 -0.0709 -0.3120
  678PSPI    C1 7463  10.030  17.394   5.714 -0.2465 -0.1312  0.1625
  678PSPI    C2 7464   9.711  17.246   5.522 -0.1336 -0.0963 -0.0547
  678PSPI    C3 7465  10.078  17.199   5.368 -0.0344 -0.1196  0.1840
  678PSPI   PO4 7466   9.981  17.360   5.916  0.0808 -0.0099 -0.1326
  678PSPI   GL1 7467   9.729  17.315   6.281  0.1198 -0.0813  0.0253
  678PSPI   GL2 7468   9.735  17.105   6.497  0.0466 -0.0489 -0.0346
  678PSPI   C1A 7469  10.046  17.562   6.515 -0.0991 -0.2099 -0.1793
  678PSPI   C2A 7470  10.238  17.858   6.834 -0.2398  0.1940 -0.0424
  678PSPI   C3A 7471  10.639  18.036   7.044 -0.0915  0.2003  0.3050
  678PSPI   C4A 7472  11.020  17.876   7.134  0.1337  0.1029  0.1197
  678PSPI   C1B 7473   9.541  17.443   6.723  0.2009  0.0856 -0.1320
  678PSPI   C2B 7474   9.245  17.683   6.888  0.0932  0.0263 -0.1856
  678PSPI   C3B 7475   9.209  18.053   7.279 -0.0299  0.0469  0.0103
  678PSPI   C4B 7476   9.397  18.329   7.408  0.0488 -0.1893  0.2206
  679PSPI    C1 7477   9.652   7.645   6.243  0.0199  0.0161  0.1911
  679PSPI    C2 7478   9.687   7.978   6.462 -0.1871  0.2357 -0.1020
  679PSPI    C3 7479   9.897   7.938   6.124  0.0743 -0.0695  0.0906
  679PSPI   PO4 7480   9.441   7.499   6.378 -0.1189 -0.3746  0.0382
  679PSPI   GL1 7481   9.399   7.625   6.798 -0.0170  0.0704  0.1718
  679PSPI   GL2 7482   9.612   7.376   6.871 -0.2740 -0.0332 -0.1832
  679PSPI   C1A 7483   9.193   7.699   7.079  0.0690 -0.3182 -0.1596
  679PSPI   C2A 7484   9.029   7.733   7.426 -0.0710  0.0583  0.0980
  679PSPI   C3A 7485   9.318   7.679   7.752 -0.0157  0.1381  0.0452
  679PSPI   C4A 7486   9.443   7.385   7.977  0.0956 -0.1171 -0.1600
  679PSPI   C1B 7487   9.661   7.591   7.293 -0.4571  0.1923 -0.1545
  679PSPI   C2B 7488   9.781   7.761   7.688 -0.1158  0.1949  0.0207
  679PSPI   C3B 7489   9.851   7.687   8.094 -0.1438 -0.0268  0.1996
  679PSPI   C4B 7490  10.216   7.386   8.325 -0.0297 -0.1803 -0.0465
  680PSPI    C1 7491  14.377   1.202   6.257  0.2239  0.1887  0.1020
  680PSPI    C2 7492  14.289   1.590   6.218  0.2649  0.1880 -0.0015
  680PSPI    C3 7493  14.395   1.376   5.897  0.1129  0.0592  0.0328
  680PSPI   PO4 7494  14.443   1.189   6.466 -0.0138  0.1235  0.1720
  680PSPI   GL1 7495  14.549   0.895   6.816 -0.1035  0.0948 -0.0985
  680PSPI   GL2 7496  14.281   0.982   6.930 -0.0458 -0.2474 -0.2372
  680PSPI   C1A 7497  14.599   0.578   7.227 -0.0002 -0.2565 -0.1960
  680PSPI   C2A 7498  14.445   0.693   7.605  0.3412 -0.0227  0.1879
  680PSPI   C3A 7499  14.464   0.823   8.014 -0.1842  0.0505  0.0645
  680PSPI   C4A 7500  14.270   0.549   8.275 -0.0414  0.4068 -0.0368
  680PSPI   C1B 7501  14.169   0.897   7.267  0.2369 -0.2438 -0.2843
  680PSPI   C2B 7502  14.006   0.920   7.646  0.1995  0.1602  0.2638
  680PSPI   C3B 7503  13.967   1.099   8.084 -0.0477 -0.3228 -0.0172
  680PSPI   C4B 7504  14.160   1.057   8.491  0.1303  0.0306  0.2129
  681PSPI    C1 7505   7.305   7.082   6.105 -0.0665  0.1623  0.1293
  681PSPI    C2 7506   6.949   7.020   6.275 -0.0361 -0.0032  0.1338
  681PSPI    C3 7507   7.007   7.343   6.047 -0.2313 -0.0476  0.0184
  681PSPI   PO4 7508   7.448   7.019   6.277 -0.0889  0.1571  0.1602
  681PSPI   GL1 7509   7.250   6.853   6.607  0.1204  0.1989 -0.2735
  681PSPI   GL2 7510   7.446   6.691   6.638  0.1376 -0.3619  0.0126
  681PSPI   C1A 7511   6.963   7.059   7.046  0.1061  0.0079 -0.0306
  681PSPI   C2A 7512   6.917   7.021   7.531 -0.1394  0.1164 -0.0797
  681PSPI   C3A 7513   6.807   6.862   7.952 -0.1756  0.0980  0.4134
  681PSPI   C4A 7514   6.729   6.942   8.352  0.1720  0.0067  0.3181
  681PSPI   C1B 7515   7.720   6.727   7.005  0.0419 -0.0307 -0.1775
  681PSPI   C2B 7516   7.818   6.715   7.465  0.0846 -0.0188 -0.0025
  681PSPI   C3B 7517   7.975   6.784   7.763  0.1082 -0.0242  0.2864
  681PSPI   C4B 7518   8.210   6.594   8.094 -0.1133 -0.0789 -0.3003
  682PSPI    C1 7519  15.384  17.985   6.299 -0.0549  0.0317  0.2232
  682PSPI    C2 7520  15.446  18.353   6.443 -0.2042  0.1683 -0.0542
  682PSPI    C3 7521  15.752  18.141   6.298 -0.1314  0.2162  0.0288
  682PSPI   PO4 7522  15.152  17.894   6.373 -0.0574 -0.1099 -0.1804
  682PSPI   GL1 7523  15.217  17.996   6.835  0.1355  0.3076  0.0231
  682PSPI   GL2 7524  15.430  17.675   6.900 -0.2747  0.3031  0.0226
  682PSPI   C1A 7525  15.220  17.916   7.275  0.1107  0.0531  0.1057
  682PSPI   C2A 7526  15.298  18.021   7.602  0.2555  0.1282  0.0956
  682PSPI   C3A 7527  15.114  17.998   7.936 -0.2507  0.1038 -0.0238
  682PSPI   C4A 7528  14.946  17.873   8.379  0.1401  0.0985  0.1152
  682PSPI   C1B 7529  15.152  17.460   7.198  0.0107 -0.1446 -0.2161
  682PSPI   C2B 7530  14.931  17.273   7.515 -0.0709  0.1825 -0.2140
  682PSPI   C3B 7531  14.900  16.952   7.739  0.1704 -0.1125 -0.3581
  682PSPI   C4B 7532  14.821  16.788   8.116 -0.4746  0.1890  0.0936
  683PSPI    C1 7533   1.959   3.857   6.721  0.1771  0.2061 -0.1600
  683PSPI    C2 7534   2.204   3.542   6.699 -0.0503  0.0151  0.0044
  683PSPI    C3 7535   1.993   3.654   6.378  0.1004  0.0584 -0.0806
  683PSPI   PO4 7536   1.792   3.798   6.977  0.3471  0.1612  0.2160
  683PSPI   GL1 7537   1.650   4.116   7.309 -0.1669  0.2856  0.1471
  683PSPI   GL2 7538   1.799   3.807   7.466 -0.0559  0.1788  0.0597
  683PSPI   C1A 7539   1.819   4.286   7.684 -0.1467 -0.2656  0.1909
  683PSPI   C2A 7540   1.791   4.225   8.052  0.3637  0.0906 -0.0642
  683PSPI   C3A 7541   1.693   3.956   8.349 -0.0037 -0.0796 -0.2689
  683PSPI   C4A 7542   1.640   3.918   8.766  0.3467 -0.1521  0.0275
  683PSPI   C1B 7543   1.850   3.699   7.840  0.0666 -0.1558  0.2783
  683PSPI   C2B 7544   1.946   3.505   8.164  0.2279  0.0173  0.0776
  683PSPI   C3B 7545   1.727   3.503   8.486  0.0160 -0.1162 -0.1141
  683PSPI   C4B 7546   1.320   3.424   8.665 -0.1782  0.3122 -0.0720
  684PSPI    C1 7547  14.687  13.648   6.017 -0.1852 -0.1144 -0.0587
  684PSPI    C2 7548  14.455  13.614   5.693 -0.0319  0.0166 -0.1832
  684PSPI    C3 7549  14.786  13.839   5.680  0.1823 -0.2843 -0.0516
  684PSPI   PO4 7550  14.539  13.701   6.240 -0.1359 -0.0132 -0.1415
  684PSPI   GL1 7551  14.408  13.575   6.616  0.3106 -0.1162 -0.3247
  684PSPI   GL2 7552  14.249  13.844   6.814  0.2343  0.0803 -0.1293
  684PSPI   C1A 7553  14.674  13.545   6.913  0.1690  0.1371 -0.1004
  684PSPI   C2A 7554  14.725  13.379   7.343 -0.2182  0.1394  0.0697
  684PSPI   C3A 7555  14.535  13.443   7.765  0.1030  0.1645  0.1431
  684PSPI   C4A 7556  14.476  13.124   8.103  0.2085  0.0724 -0.1198
  684PSPI   C1B 7557  14.392  13.818   7.250 -0.0050  0.2957  0.1509
  684PSPI   C2B 7558  14.444  13.891   7.658 -0.0284 -0.1946  0.1171
  684PSPI   C3B 7559  14.499  13.815   8.108 -0.0518  0.3257  0.2183
  684PSPI   C4B 7560  14.759  13.967   8.469  0.0205  0.1433  0.3366
  685PSPI    C1 7561  16.503  14.127   5.773  0.0832  0.0425 -0.1334
  685PSPI    C2 7562  16.479  14.526   5.787  0.3302  0.0569 -0.0684
  685PSPI    C3 7563  16.146  14.306   5.761  0.1889  0.2640 -0.0350
  685PSPI   PO4 7564  16.791  14.109   5.930  0.1047 -0.0011  0.1691
  685PSPI   GL1 7565  16.974  14.204   6.234 -0.1921  0.1488 -0.1931
  685PSPI   GL2 7566  16.810  14.476   6.192  0.0634  0.1852 -0.2087
  685PSPI   C1A 7567  17.066  14.200   6.679  0.0356 -0.1293  0.1306
  685PSPI   C2A 7568  17.199  14.121   7.116 -0.3240 -0.0308  0.2939
  685PSPI   C3A 7569  17.357  14.111   7.542 -0.2051  0.1569 -0.1949
  685PSPI   C4A 7570  17.074  14.177   7.889 -0.1893 -0.1871  0.0041
  685PSPI   C1B 7571  16.865  14.648   6.617 -0.2425 -0.0201 -0.2422
  685PSPI   C2B 7572  16.797  14.512   7.024 -0.0414  0.1334 -0.0986
  685PSPI   C3B 7573  16.730  14.508   7.523  0.1110  0.3211  0.0586
  685PSPI   C4B 7574  16.558  14.539   7.964 -0.3205 -0.1258 -0.0077
  686PSPI    C1 7575   1.835   1.035   6.531  0.1502  0.1225  0.0888
  686PSPI    C2 7576   1.936   1.330   6.280 -0.0973  0.4062  0.3157
  686PSPI    C3 7577   1.659   1.062   6.173  0.2606  0.1380  0.0350
  686PSPI   PO4 7578   1.981   1.059   6.686  0.0253 -0.0796 -0.0598
  686PSPI   GL1 7579   2.043   1.315   6.983  0.0408 -0.0831 -0.4194
  686PSPI   GL2 7580   1.886   1.615   7.049  0.1985 -0.0143  0.4977
  686PSPI   C1A 7581   2.094   1.119   7.393 -0.1571 -0.2424 -0.1307
  686PSPI   C2A 7582   2.149   1.045   7.723 -0.1272 -0.0250  0.1011
  686PSPI   C3A 7583   2.171   1.083   8.147 -0.0316  0.2998  0.2335
  686PSPI   C4A 7584   2.477   1.022   8.459 -0.0521 -0.1048 -0.0423
  686PSPI   C1B 7585   1.691   1.409   7.399 -0.1580 -0.1120 -0.0568
  686PSPI   C2B 7586   1.731   1.332   7.849 -0.1527 -0.1510  0.0382
  686PSPI   C3B 7587   1.782   1.379   8.261  0.0122  0.1657  0.1668
  686PSPI   C4B 7588   1.718   1.488   8.726 -0.0557 -0.0243  0.0113
  687PSPI    C1 7589   6.355  17.753   5.972 -0.0734 -0.0417 -0.0095
  687PSPI    C2 7590   6.226  17.375   5.944 -0.0669 -0.0346 -0.1373
  687PSPI    C3 7591   6.549  17.493   5.738 -0.0915  0.0505 -0.1275
  687PSPI   PO4 7592   6.332  17.796   6.282 -0.2016 -0.1720  0.2035
  687PSPI   GL1 7593   6.320  18.206   6.563  0.0943  0.2180 -0.0931
  687PSPI   GL2 7594   6.169  18.471   6.774 -0.1065  0.2266 -0.0041
  687PSPI   C1A 7595   6.549  18.178   6.996  0.1327 -0.0569 -0.1478
  687PSPI   C2A 7596   6.792  18.326   7.314 -0.0920  0.1284 -0.0460
  687PSPI   C3A 7597   6.878  18.480   7.797 -0.1542  0.0589  0.1659
  687PSPI   C4A 7598   7.300  18.454   7.986 -0.0685  0.2259  0.0480
  687PSPI   C1B 7599   6.174  18.465   7.173  0.4029 -0.3072 -0.1528
  687PSPI   C2B 7600   6.383  18.410   7.539 -0.0538 -0.1609  0.3436
  687PSPI   C3B 7601   6.386  18.548   7.926 -0.1833 -0.0550  0.0084
  687PSPI   C4B 7602   6.297  18.584   8.323  0.0903  0.1486 -0.1345
  688PSPI    C1 7603   8.911  11.220   6.029 -0.1385 -0.2253  0.1795
  688PSPI    C2 7604   9.122  11.007   5.765 -0.0537 -0.2708  0.2831
  688PSPI    C3 7605   8.956  11.354   5.655 -0.0948 -0.3332  0.1458
  688PSPI   PO4 7606   9.096  11.233   6.261 -0.0072  0.0779  0.1751
  688PSPI   GL1 7607   9.348  11.508   6.502  0.0382  0.0530 -0.1022
  688PSPI   GL2 7608   9.103  11.574   6.645 -0.0409  0.0429 -0.2035
  688PSPI   C1A 7609   9.602  11.318   6.839  0.4359 -0.1359  0.1544
  688PSPI   C2A 7610   9.740  11.095   7.149  0.1666 -0.2337  0.1217
  688PSPI   C3A 7611   9.592  11.056   7.588 -0.0727  0.1028  0.0124
  688PSPI   C4A 7612   9.292  11.057   7.857 -0.1069 -0.0470  0.3929
  688PSPI   C1B 7613   9.115  11.805   7.092  0.2115 -0.0448 -0.0182
  688PSPI   C2B 7614   9.273  11.855   7.445 -0.2347 -0.2526 -0.0429
  688PSPI   C3B 7615   9.202  12.258   7.748 -0.1945  0.1190 -0.4573
  688PSPI   C4B 7616   8.920  12.271   8.061 -0.1377 -0.1850 -0.2962
  689PSPI    C1 7617  14.876   9.072   6.387 -0.1685  0.2648 -0.0540
  689PSPI    C2 7618  14.846   9.096   5.989  0.0041 -0.0651 -0.0899
  689PSPI    C3 7619  15.191   9.187   6.169 -0.0575  0.0308 -0.0193
  689PSPI   PO4 7620  14.806   8.815   6.442 -0.1679 -0.2660 -0.1428
  689PSPI   GL1 7621  14.427   8.678   6.672 -0.2148 -0.0421  0.1107
  689PSPI   GL2 7622  14.244   8.549   6.842 -0.2515 -0.0675 -0.4353
  689PSPI   C1A 7623  14.477   8.942   7.045  0.1010  0.1896  0.1042
  689PSPI   C2A 7624  14.647   8.863   7.461 -0.1942 -0.2450  0.0608
  689PSPI   C3A 7625  14.558   9.005   7.898 -0.1412 -0.2756 -0.2070
  689PSPI   C4A 7626  14.326   8.945   8.202 -0.1362  0.2350  0.3775
  689PSPI   C1B 7627  14.479   8.470   7.129 -0.2443  0.0272  0.0612
  689PSPI   C2B 7628  14.436   8.403   7.576 -0.0274 -0.0636 -0.0274
  689PSPI   C3B 7629  14.389   8.415   8.074  0.2665  0.0188  0.0749
  689PSPI   C4B 7630  14.272   8.525   8.456 -0.2310  0.2769 -0.1207
  690PSPI    C1 7631   9.200   2.480   6.029 -0.1874  0.0719 -0.0729
  690PSPI    C2 7632   9.405   2.398   5.695 -0.1843 -0.0187 -0.0491
  690PSPI    C3 7633   9.143   2.701   5.700  0.1143  0.2447 -0.0136
  690PSPI   PO4 7634   9.302   2.333   6.187  0.0723  0.0654 -0.1756
  690PSPI   GL1 7635   9.284   2.268   6.590  0.3844  0.0648  0.2820
  690PSPI   GL2 7636   9.061   2.028   6.567 -0.2014 -0.1331 -0.0561
  690PSPI   C1A 7637   9.335   2.291   7.060 -0.2600 -0.1542 -0.0270
  690PSPI   C2A 7638   9.286   2.469   7.352 -0.1169 -0.1793  0.1835
  690PSPI   C3A 7639   9.041   2.724   7.637 -0.1196 -0.1436 -0.2103
  690PSPI   C4A 7640   9.041   3.149   7.737 -0.0337 -0.1245 -0.0299
  690PSPI   C1B 7641   9.053   1.793   6.945  0.2603 -0.1429  0.1708
  690PSPI   C2B 7642   8.832   1.575   7.261 -0.4250  0.2233 -0.0755
  690PSPI   C3B 7643   8.679   1.813   7.678  0.1373 -0.1348  0.0541
  690PSPI   C4B 7644   8.405   1.882   7.940 -0.1878 -0.1039  0.1798
  691PSPI    C1 7645   6.551  12.260   5.974 -0.1625  0.2266 -0.0113
  691PSPI    C2 7646   6.364  12.078   5.671  0.0231  0.0011  0.0063
  691PSPI    C3 7647   6.735  12.219   5.621 -0.0046  0.1030  0.0838
  691PSPI   PO4 7648   6.564  12.132   6.175  0.0374  0.1412  0.0398
  691PSPI   GL1 7649   6.424  12.000   6.502 -0.1867  0.1690  0.2111
  691PSPI   GL2 7650   6.149  11.978   6.502 -0.0150 -0.1040  0.1836
  691PSPI   C1A 7651   6.469  12.219   6.875 -0.0919  0.0612 -0.1177
  691PSPI   C2A 7652   6.448  12.625   7.221 -0.2532  0.0771  0.3905
  691PSPI   C3A 7653   6.378  12.672   7.630 -0.0434 -0.0484 -0.1848
  691PSPI   C4A 7654   6.363  12.547   8.016  0.1090 -0.3953  0.1154
  691PSPI   C1B 7655   6.095  11.856   6.835  0.0778  0.1698 -0.0150
  691PSPI   C2B 7656   6.106  11.963   7.280  0.1304  0.2169  0.2602
  691PSPI   C3B 7657   6.101  11.699   7.674  0.1120  0.1002 -0.1487
  691PSPI   C4B 7658   5.952  11.611   8.119 -0.0348  0.2584 -0.0190
  692POPI    C1 7659   1.927  16.865   6.325  0.0428 -0.3554  0.0567
  692POPI    C2 7660   1.807  16.900   5.945 -0.0096 -0.0495  0.0984
  692POPI    C3 7661   2.066  16.613   6.048  0.1316 -0.0329 -0.1995
  692POPI   PO4 7662   2.038  17.050   6.395 -0.1198 -0.2421  0.0653
  692POPI   GL1 7663   2.113  16.988   6.837 -0.2051  0.1651  0.1742
  692POPI   GL2 7664   2.137  16.706   6.836 -0.2147  0.1136  0.2116
  692POPI   C1A 7665   1.789  16.949   7.133 -0.2484  0.2996 -0.2869
  692POPI   D2A 7666   1.607  16.882   7.497 -0.1965 -0.1780 -0.1931
  692POPI   C3A 7667   1.588  16.911   7.915 -0.3767  0.0995 -0.0072
  692POPI   C4A 7668   1.617  17.104   8.319  0.2414  0.2538 -0.3390
  692POPI   C1B 7669   2.249  16.723   7.251  0.0631 -0.0817 -0.2374
  692POPI   C2B 7670   2.107  16.705   7.609 -0.0967 -0.1315  0.0121
  692POPI   C3B 7671   1.989  16.700   8.071 -0.1542  0.3159 -0.1246
  692POPI   C4B 7672   2.078  16.873   8.467  0.1131 -0.0005 -0.0149
  693POPI    C1 7673  14.240   6.707   6.465 -0.0786 -0.0581  0.1346
  693POPI    C2 7674  13.939   6.583   6.233 -0.0627 -0.0856  0.1286
  693POPI    C3 7675  14.261   6.351   6.284 -0.0780 -0.0917  0.2004
  693POPI   PO4 7676  14.085   6.754   6.642  0.2387  0.2753  0.2205
  693POPI   GL1 7677  13.974   6.610   7.017  0.1033  0.0986 -0.2305
  693POPI   GL2 7678  14.236   6.787   7.184 -0.0219 -0.0012  0.1848
  693POPI   C1A 7679  13.757   6.438   7.400  0.0631  0.1220  0.2690
  693POPI   D2A 7680  13.385   6.502   7.627  0.1239  0.2859  0.0611
  693POPI   C3A 7681  13.683   6.568   7.881 -0.1406  0.2502  0.1053
  693POPI   C4A 7682  13.809   6.689   8.274  0.1610 -0.1198  0.0292
  693POPI   C1B 7683  14.226   6.599   7.514  0.3191 -0.0157 -0.0786
  693POPI   C2B 7684  14.248   6.635   7.961  0.0100 -0.0344 -0.0283
  693POPI   C3B 7685  14.217   6.388   8.308  0.2558 -0.0605  0.1510
  693POPI   C4B 7686  14.172   5.961   8.438  0.0919  0.4413  0.6577
  694POPI    C1 7687   0.870   6.122   6.693  0.1993 -0.0225 -0.1996
  694POPI    C2 7688   0.758   6.496   6.607 -0.0429 -0.0319  0.0603
  694POPI    C3 7689   0.499   6.194   6.564  0.1335 -0.1641 -0.0921
  694POPI   PO4 7690   1.022   6.177   6.988  0.2487  0.0023 -0.2416
  694POPI   GL1 7691   1.285   6.257   7.272  0.3094 -0.0284 -0.3907
  694POPI   GL2 7692   1.350   6.579   7.279  0.1122 -0.1381 -0.2856
  694POPI   C1A 7693   1.132   6.454   7.709  0.5325 -0.0954 -0.2095
  694POPI   D2A 7694   1.113   6.725   8.105  0.2799 -0.1573 -0.0337
  694POPI   C3A 7695   1.339   6.646   8.396  0.1290  0.1525 -0.0648
  694POPI   C4A 7696   1.496   6.872   8.750 -0.0084 -0.0025 -0.0608
  694POPI   C1B 7697   1.327   6.904   7.603  0.0337 -0.1419 -0.0472
  694POPI   C2B 7698   1.426   7.052   7.991 -0.0467  0.1562  0.0812
  694POPI   C3B 7699   1.596   7.221   8.378  0.2106 -0.0167 -0.0876
  694POPI   C4B 7700   1.717   7.342   8.809  0.1822  0.0983  0.0206
  695POPI    C1 7701  13.638   5.756   6.445 -0.0125 -0.0682  0.0307
  695POPI    C2 7702  13.415   5.425   6.463  0.0469 -0.0990  0.2307
  695POPI    C3 7703  13.310   5.723   6.219  0.0276 -0.2892  0.0025
  695POPI   PO4 7704  13.745   5.759   6.659 -0.0003 -0.2261  0.0618
  695POPI   GL1 7705  13.632   5.429   7.019  0.0947 -0.2687 -0.1293
  695POPI   GL2 7706  13.361   5.644   6.940  0.2834 -0.0537 -0.2298
  695POPI   C1A 7707  13.621   5.605   7.521  0.0502 -0.1667 -0.2196
  695POPI   D2A 7708  13.565   5.673   7.937 -0.0189 -0.6145  0.2747
  695POPI   C3A 7709  13.456   5.472   8.228 -0.0645 -0.1203 -0.1140
  695POPI   C4A 7710  13.284   5.448   8.597  0.0124 -0.0416 -0.2015
  695POPI   C1B 7711  13.222   5.553   7.319  0.1804 -0.1009 -0.1418
  695POPI   C2B 7712  13.139   5.595   7.799 -0.2224 -0.1025 -0.0359
  695POPI   C3B 7713  12.969   5.728   8.193 -0.1644  0.0586  0.3330
  695POPI   C4B 7714  12.857   6.201   8.309  0.1051 -0.1489 -0.0886
  696POPI    C1 7715   2.069  15.660   6.359 -0.1205 -0.2070  0.0289
  696POPI    C2 7716   2.200  15.722   5.986 -0.2622  0.0731  0.0234
  696POPI    C3 7717   2.337  15.411   6.197 -0.0484  0.0142 -0.1980
  696POPI   PO4 7718   2.118  15.900   6.500  0.1121  0.0740 -0.0745
  696POPI   GL1 7719   2.218  16.012   6.874  0.2168 -0.1222  0.1246
  696POPI   GL2 7720   2.351  16.232   7.013  0.5037  0.1157 -0.0883
  696POPI   C1A 7721   1.988  15.820   7.194 -0.0980  0.3024 -0.2202
  696POPI   D2A 7722   1.939  15.754   7.636  0.1694 -0.2036 -0.1033
  696POPI   C3A 7723   1.909  15.762   8.010 -0.1289  0.0899 -0.4108
  696POPI   C4A 7724   1.950  15.709   8.399  0.1690  0.1157 -0.0119
  696POPI   C1B 7725   2.267  16.214   7.444  0.2024  0.0525 -0.1610
  696POPI   C2B 7726   2.350  16.288   7.828  0.4246  0.2503 -0.3182
  696POPI   C3B 7727   2.569  16.156   8.209 -0.1059  0.1847 -0.0622
  696POPI   C4B 7728   2.424  15.828   8.555  0.0413  0.1314 -0.1275
  697POPI    C1 7729   1.235   8.432   6.209 -0.0243 -0.2750  0.1761
  697POPI    C2 7730   1.501   8.640   5.995 -0.2404  0.0628  0.2283
  697POPI    C3 7731   1.473   8.244   5.948  0.2396  0.0266  0.1928
  697POPI   PO4 7732   1.242   8.497   6.435 -0.1141 -0.0504  0.0381
  697POPI   GL1 7733   1.170   8.572   6.859  0.0501 -0.0940 -0.1430
  697POPI   GL2 7734   1.504   8.346   6.864  0.3006 -0.2053  0.0806
  697POPI   C1A 7735   1.101   8.666   7.194  0.0931  0.0465  0.0968
  697POPI   D2A 7736   1.092   8.764   7.590  0.3201 -0.1848 -0.0465
  697POPI   C3A 7737   0.933   8.929   7.965  0.1362 -0.0515  0.2021
  697POPI   C4A 7738   0.681   8.882   8.388 -0.3195 -0.0365 -0.1177
  697POPI   C1B 7739   1.553   8.623   7.140 -0.2564  0.1206  0.2397
  697POPI   C2B 7740   1.620   8.768   7.561 -0.2602 -0.1772 -0.1360
  697POPI   C3B 7741   1.418   8.888   7.989  0.1019  0.0652  0.0215
  697POPI   C4B 7742   1.486   9.153   8.325  0.0063 -0.2126  0.2474
  698POPI    C1 7743   0.560  17.131   6.110  0.0741 -0.1156  0.0296
  698POPI    C2 7744   0.790  16.845   6.269 -0.0212 -0.1751  0.0609
  698POPI    C3 7745   0.511  16.750   5.998  0.0857 -0.0845 -0.0820
  698POPI   PO4 7746   0.418  17.259   6.342 -0.0240  0.0818  0.0066
  698POPI   GL1 7747   0.266  17.374   6.733 -0.0572 -0.2915  0.0927
  698POPI   GL2 7748   0.099  17.141   6.888  0.1584 -0.1063 -0.3576
  698POPI   C1A 7749  -0.003  17.641   7.056 -0.0169  0.1918  0.0862
  698POPI   D2A 7750  -0.331  17.796   7.163  0.0869 -0.0025  0.3559
  698POPI   C3A 7751  -0.386  18.164   7.382 -0.2085  0.0952  0.0824
  698POPI   C4A 7752  -0.386  18.144   7.743 -0.0076  0.1668 -0.1974
  698POPI   C1B 7753  -0.018  17.128   7.308 -0.0228  0.2495  0.1568
  698POPI   C2B 7754   0.094  17.001   7.777  0.1691  0.0701 -0.0438
  698POPI   C3B 7755   0.107  16.737   8.105  0.0028 -0.3866 -0.2642
  698POPI   C4B 7756   0.244  16.520   8.468  0.1096  0.0211  0.1348
  699POPI    C1 7757   1.907   5.911   6.488  0.0333 -0.0838 -0.2637
  699POPI    C2 7758   2.015   5.550   6.353  0.0148 -0.1810 -0.0241
  699POPI    C3 7759   1.636   5.617   6.463  0.0238 -0.0958 -0.0448
  699POPI   PO4 7760   2.059   5.967   6.756  0.0119  0.1720  0.1260
  699POPI   GL1 7761   2.150   6.115   7.223  0.1198  0.2191 -0.1589
  699POPI   GL2 7762   1.880   5.944   7.310 -0.2272 -0.0120 -0.3201
  699POPI   C1A 7763   2.235   6.079   7.653 -0.1552 -0.0061 -0.0602
  699POPI   D2A 7764   2.361   6.067   7.961  0.0738  0.0154  0.2225
  699POPI   C3A 7765   2.183   5.845   8.313 -0.1089 -0.0896 -0.1593
  699POPI   C4A 7766   2.197   6.045   8.648 -0.1761  0.3907 -0.1837
  699POPI   C1B 7767   1.673   6.338   7.525 -0.0574  0.0548 -0.0767
  699POPI   C2B 7768   1.560   6.552   7.915 -0.0402  0.0977  0.0880
  699POPI   C3B 7769   1.788   6.758   8.181 -0.0573  0.1246 -0.0483
  699POPI   C4B 7770   1.959   6.869   8.606  0.0361  0.0421  0.1511
  700POPI    C1 7771  17.706  10.510   5.836  0.2505 -0.2364 -0.0025
  700POPI    C2 7772  17.537  10.190   6.006  0.2321 -0.1493  0.1445
  700POPI    C3 7773  17.316  10.437   5.783  0.2504 -0.2490  0.0148
  700POPI   PO4 7774  17.841  10.629   6.019 -0.2956 -0.1581  0.0673
  700POPI   GL1 7775  17.745  10.760   6.417  0.0525 -0.2428  0.2912
  700POPI   GL2 7776  17.397  10.795   6.491 -0.0174 -0.0440  0.2073
  700POPI   C1A 7777  17.846  10.565   6.782  0.1268  0.4663  0.2267
  700POPI   D2A 7778  17.914  10.433   7.204  0.1791 -0.1567  0.0790
  700POPI   C3A 7779  17.970  10.578   7.593 -0.1873 -0.0093 -0.3221
  700POPI   C4A 7780  18.016  10.614   7.904 -0.3176 -0.0980 -0.0055
  700POPI   C1B 7781  17.508  10.924   6.938  0.1669 -0.0618 -0.3030
  700POPI   C2B 7782  17.543  10.868   7.405 -0.3042  0.1063 -0.1860
  700POPI   C3B 7783  17.574  10.791   7.821  0.0729 -0.4091  0.0545
  700POPI   C4B 7784  17.657  10.798   8.170 -0.1466  0.2017  0.0996
  701POPI    C1 7785   9.585   4.117   5.610 -0.1808  0.2801  0.0437
  701POPI    C2 7786   9.979   4.059   5.573 -0.2312 -0.0099 -0.0623
  701POPI    C3 7787   9.755   4.120   5.248 -0.2850  0.0846 -0.0079
  701POPI   PO4 7788   9.632   4.249   5.934 -0.1614  0.0764  0.1883
  701POPI   GL1 7789   9.404   4.319   6.322  0.2021  0.1274  0.1507
  701POPI   GL2 7790   9.541   4.467   6.439  0.0066 -0.1615 -0.2932
  701POPI   C1A 7791   9.304   4.052   6.663 -0.1860 -0.0525  0.2159
  701POPI   D2A 7792   9.202   3.996   7.041 -0.0324  0.2094 -0.0047
  701POPI   C3A 7793   8.865   4.279   7.144 -0.1581  0.0145 -0.0320
  701POPI   C4A 7794   8.537   4.418   7.278  0.1280 -0.0627 -0.2611
  701POPI   C1B 7795   9.486   4.469   6.880 -0.2579 -0.0119 -0.2120
  701POPI   C2B 7796   9.249   4.588   7.193 -0.0052  0.2360 -0.0372
  701POPI   C3B 7797   8.893   4.713   7.462 -0.1793  0.0583  0.0945
  701POPI   C4B 7798   8.964   5.015   7.844 -0.2226 -0.0363  0.2052
  702POPI    C1 7799  14.446  16.763   5.787  0.0559 -0.0002 -0.0481
  702POPI    C2 7800  14.816  16.644   5.694  0.0112 -0.0383 -0.1796
  702POPI    C3 7801  14.647  16.948   5.495  0.0628  0.1400  0.0442
  702POPI   PO4 7802  14.478  16.814   6.077 -0.3573  0.1336  0.1302
  702POPI   GL1 7803  14.553  16.511   6.461  0.2074  0.0289 -0.2822
  702POPI   GL2 7804  14.812  16.716   6.671  0.2597 -0.2110  0.1934
  702POPI   C1A 7805  14.348  16.728   6.823 -0.1143 -0.2944  0.1162
  702POPI   D2A 7806  14.173  17.047   7.170 -0.0427  0.1530  0.3938
  702POPI   C3A 7807  14.436  17.298   7.502  0.1893  0.1434  0.0337
  702POPI   C4A 7808  14.459  17.203   8.026 -0.0337 -0.2057  0.0174
  702POPI   C1B 7809  14.744  16.381   6.978  0.2479  0.2220  0.1796
  702POPI   C2B 7810  14.552  16.327   7.484  0.1814 -0.1129 -0.0949
  702POPI   C3B 7811  14.452  16.309   7.937 -0.1099 -0.0613  0.0381
  702POPI   C4B 7812  14.406  15.991   8.290  0.3056 -0.0143  0.0238
  703POPI    C1 7813   6.092   0.852   6.461 -0.1443  0.0132 -0.0981
  703POPI    C2 7814   6.005   1.240   6.414  0.1792  0.0673 -0.2810
  703POPI    C3 7815   6.120   1.021   6.099  0.2124 -0.1230 -0.1382
  703POPI   PO4 7816   5.835   0.719   6.566  0.0478  0.0128 -0.1085
  703POPI   GL1 7817   5.656   0.456   6.891  0.1427  0.2905 -0.0614
  703POPI   GL2 7818   5.724   0.210   6.810 -0.0436  0.0180 -0.0512
  703POPI   C1A 7819   5.814   0.753   7.228  0.0494  0.1043  0.2565
  703POPI   D2A 7820   6.065   0.805   7.587 -0.1683 -0.1046 -0.0561
  703POPI   C3A 7821   5.909   0.623   7.958  0.3533  0.1689  0.1950
  703POPI   C4A 7822   5.596   0.440   8.126  0.3957  0.1400  0.0970
  703POPI   C1B 7823   5.684   0.079   7.251 -0.3355  0.1339 -0.0847
  703POPI   C2B 7824   5.914   0.280   7.565  0.2645 -0.0562 -0.1000
  703POPI   C3B 7825   6.064   0.136   7.876  0.1111 -0.0085 -0.1375
  703POPI   C4B 7826   6.337   0.031   8.221  0.1257  0.0124 -0.2811
  704POPI    C1 7827  14.729  12.608   5.655 -0.1538  0.1641 -0.1321
  704POPI    C2 7828  14.748  12.329   5.370  0.0488 -0.0158  0.0532
  704POPI    C3 7829  15.085  12.489   5.516 -0.0496  0.0176  0.2463
  704POPI   PO4 7830  14.578  12.552   5.955 -0.0349 -0.0185 -0.4521
  704POPI   GL1 7831  14.674  12.595   6.356 -0.1924 -0.1867 -0.1517
  704POPI   GL2 7832  14.636  12.333   6.386  0.2050 -0.0144 -0.0801
  704POPI   C1A 7833  14.783  12.590   6.905  0.1566 -0.1715  0.1606
  704POPI   D2A 7834  15.244  12.584   6.955  0.1044  0.0595 -0.1097
  704POPI   C3A 7835  15.308  12.657   7.406  0.0815 -0.2802 -0.1594
  704POPI   C4A 7836  15.516  12.726   7.808 -0.1076  0.3311 -0.2860
  704POPI   C1B 7837  14.856  12.117   6.717  0.2904 -0.1526 -0.1821
  704POPI   C2B 7838  15.040  12.173   7.104  0.3413  0.0064  0.1538
  704POPI   C3B 7839  15.097  11.949   7.516 -0.2659 -0.0724 -0.2158
  704POPI   C4B 7840  15.201  11.975   7.995 -0.0501  0.1775  0.0905
  705POPI    C1 7841  11.642  15.965   6.008 -0.0226 -0.1037 -0.1415
  705POPI    C2 7842  11.629  16.094   5.629 -0.2394 -0.0907 -0.1307
  705POPI    C3 7843  11.311  15.913   5.790 -0.1831 -0.0086  0.0762
  705POPI   PO4 7844  11.611  16.278   6.205 -0.1034 -0.0949  0.1378
  705POPI   GL1 7845  11.538  16.231   6.579 -0.2345 -0.3056  0.1107
  705POPI   GL2 7846  11.250  16.166   6.771  0.0792  0.4120 -0.2553
  705POPI   C1A 7847  11.629  16.499   6.909 -0.0818  0.0320 -0.0119
  705POPI   D2A 7848  11.471  16.498   7.354 -0.2501  0.0328  0.0644
  705POPI   C3A 7849  11.387  16.409   7.882 -0.0413 -0.0606 -0.0061
  705POPI   C4A 7850  11.246  16.049   8.075  0.0638 -0.2141  0.0508
  705POPI   C1B 7851  11.159  16.198   7.098 -0.0520  0.0237 -0.2070
  705POPI   C2B 7852  11.112  16.123   7.487  0.0139 -0.0942 -0.2539
  705POPI   C3B 7853  10.776  15.856   7.660 -0.0407 -0.2659  0.1153
  705POPI   C4B 7854  10.750  15.436   7.880 -0.1367  0.2907 -0.2591
  706POPI    C1 7855  17.866  16.805   6.346 -0.0697 -0.2275  0.0495
  706POPI    C2 7856  18.115  17.004   6.104 -0.1133 -0.0124  0.1778
  706POPI    C3 7857  17.845  16.751   5.950  0.0359 -0.0792  0.0228
  706POPI   PO4 7858  17.847  16.903   6.600 -0.2363  0.1083 -0.1162
  706POPI   GL1 7859  17.836  16.702   7.052  0.1060  0.0217  0.2720
  706POPI   GL2 7860  17.593  16.926   7.020 -0.0045  0.1827  0.0728
  706POPI   C1A 7861  18.140  16.603   7.419  0.2527 -0.4062  0.2892
  706POPI   D2A 7862  18.333  16.369   7.708 -0.0432  0.1263  0.0491
  706POPI   C3A 7863  18.279  16.177   8.119  0.0244  0.0953 -0.1292
  706POPI   C4A 7864  18.672  16.086   8.309 -0.0359 -0.0261 -0.3079
  706POPI   C1B 7865  17.602  16.862   7.462 -0.1211 -0.0000 -0.0035
  706POPI   C2B 7866  17.809  16.598   7.832 -0.1393 -0.3227  0.1251
  706POPI   C3B 7867  17.815  16.294   7.960  0.0479 -0.0783  0.4486
  706POPI   C4B 7868  17.733  16.227   8.422 -0.0190 -0.1652 -0.0017
  707POPI    C1 7869  10.505  17.137   5.701  0.2400  0.0882  0.0533
  707POPI    C2 7870  10.544  16.884   5.393 -0.1723  0.0943 -0.0104
  707POPI    C3 7871  10.669  17.263   5.358 -0.0043  0.0329 -0.0864
  707POPI   PO4 7872  10.611  17.039   5.959  0.2623 -0.2960 -0.1218
  707POPI   GL1 7873  10.539  17.230   6.359 -0.6207 -0.1895  0.1347
  707POPI   GL2 7874  10.536  17.539   6.412 -0.2979 -0.0334 -0.1843
  707POPI   C1A 7875  10.163  17.170   6.801  0.0266 -0.0790  0.2865
  707POPI   D2A 7876   9.804  17.075   6.979  0.2208  0.2975 -0.0945
  707POPI   C3A 7877   9.561  17.342   7.245  0.0212 -0.1050  0.1737
  707POPI   C4A 7878   9.489  17.638   7.417  0.1166  0.1985  0.0522
  707POPI   C1B 7879  10.596  17.490   6.814 -0.0255  0.0191  0.0870
  707POPI   C2B 7880  10.484  17.665   7.285 -0.1319 -0.0305  0.0629
  707POPI   C3B 7881  10.688  17.846   7.567 -0.1726 -0.0413 -0.1020
  707POPI   C4B 7882  10.629  18.182   7.847 -0.0933  0.2446  0.4097
  708POPI    C1 7883   8.552   8.845   6.265  0.2162  0.1541  0.1014
  708POPI    C2 7884   8.405   9.026   5.941 -0.0320 -0.0089  0.1201
  708POPI    C3 7885   8.788   8.913   5.949 -0.0834 -0.2210 -0.2137
  708POPI   PO4 7886   8.348   8.700   6.327 -0.0669 -0.3482 -0.0662
  708POPI   GL1 7887   8.269   8.382   6.698  0.2261  0.0762  0.2323
  708POPI   GL2 7888   7.924   8.196   6.665  0.2230 -0.5011 -0.1203
  708POPI   C1A 7889   8.386   8.401   7.104 -0.4018  0.0960  0.0602
  708POPI   D2A 7890   8.506   8.360   7.633  0.1539  0.1754 -0.0263
  708POPI   C3A 7891   8.743   8.503   7.831 -0.0793 -0.0115 -0.0997
  708POPI   C4A 7892   9.073   8.440   8.001 -0.0963  0.1579 -0.2757
  708POPI   C1B 7893   7.936   8.177   7.085  0.2929  0.0582 -0.2133
  708POPI   C2B 7894   7.996   8.191   7.476 -0.0318  0.2243 -0.1324
  708POPI   C3B 7895   8.061   8.052   7.800  0.0309 -0.3087  0.1448
  708POPI   C4B 7896   8.233   8.286   8.175  0.1943 -0.0409 -0.2944
  709POPI    C1 7897   4.766  13.084   6.140 -0.1740 -0.0862  0.0865
  709POPI    C2 7898   4.551  13.364   6.327  0.1494  0.1796  0.0692
  709POPI    C3 7899   4.426  13.218   5.977 -0.1492  0.1177  0.1986
  709POPI   PO4 7900   4.760  12.856   6.221 -0.0770 -0.2756  0.2518
  709POPI   GL1 7901   4.635  12.512   6.488  0.2001 -0.3520  0.0555
  709POPI   GL2 7902   4.335  12.447   6.624 -0.2123  0.1706 -0.0005
  709POPI   C1A 7903   4.960  12.573   6.835 -0.2173 -0.0533 -0.0072
  709POPI   D2A 7904   5.061  12.423   7.227  0.0029 -0.2066  0.0657
  709POPI   C3A 7905   5.075  12.755   7.519 -0.2740 -0.0172 -0.2232
  709POPI   C4A 7906   5.203  12.852   7.923  0.3382  0.1444  0.4539
  709POPI   C1B 7907   4.566  12.298   7.008 -0.4251  0.1037  0.0913
  709POPI   C2B 7908   4.630  12.143   7.358 -0.0064  0.1345 -0.1052
  709POPI   C3B 7909   4.437  12.104   7.713 -0.1060  0.2113 -0.4272
  709POPI   C4B 7910   4.463  12.226   8.141 -0.2864  0.1681  0.0492
  710POPI    C1 7911  10.397   7.856   5.735  0.0092 -0.0501  0.2318
  710POPI    C2 7912  10.314   7.499   5.574  0.0539 -0.0381  0.1819
  710POPI    C3 7913  10.503   7.778   5.357 -0.1697  0.0919  0.1510
  710POPI   PO4 7914  10.538   7.766   5.976 -0.1073  0.3464  0.1979
  710POPI   GL1 7915  10.401   7.851   6.345 -0.2523  0.0828  0.0295
  710POPI   GL2 7916  10.317   8.028   6.470 -0.0499  0.1455 -0.3019
  710POPI   C1A 7917  10.624   7.599   6.740 -0.0973  0.0289  0.1178
  710POPI   D2A 7918  10.587   7.398   7.159 -0.0270  0.3483 -0.1374
  710POPI   C3A 7919  10.571   7.427   7.576  0.4189 -0.1440 -0.0659
  710POPI   C4A 7920  10.564   7.259   8.003 -0.1557  0.2074  0.2457
  710POPI   C1B 7921   9.974   8.274   6.751 -0.0940  0.0253  0.0891
  710POPI   C2B 7922   9.883   8.493   7.112  0.3707 -0.1413  0.0418
  710POPI   C3B 7923   9.886   8.613   7.524  0.0202 -0.1722 -0.0454
  710POPI   C4B 7924   9.805   8.573   7.998  0.0755  0.0400 -0.0214
  711POPI    C1 7925   9.747  14.040   5.873 -0.0135 -0.3100 -0.2952
  711POPI    C2 7926   9.467  14.326   5.868  0.2117 -0.0794 -0.0298
  711POPI    C3 7927   9.365  13.948   5.948 -0.0257  0.0006  0.0547
  711POPI   PO4 7928  10.002  14.110   5.858 -0.1633  0.1533  0.0406
  711POPI   GL1 7929  10.282  14.231   6.184  0.0853  0.1822  0.1286
  711POPI   GL2 7930   9.960  14.221   6.386 -0.0338 -0.0748  0.0110
  711POPI   C1A 7931  10.356  14.425   6.617 -0.1792  0.2732  0.1633
  711POPI   D2A 7932  10.168  14.467   6.982  0.0628 -0.2381 -0.1815
  711POPI   C3A 7933  10.098  14.225   7.302 -0.0228 -0.3049 -0.1187
  711POPI   C4A 7934  10.069  14.028   7.697 -0.0952 -0.0846 -0.0325
  711POPI   C1B 7935  10.053  13.960   6.788  0.0450  0.3392 -0.2116
  711POPI   C2B 7936   9.847  13.840   7.246  0.5479  0.3520 -0.0950
  711POPI   C3B 7937   9.481  13.704   7.501  0.2076  0.1128 -0.1286
  711POPI   C4B 7938   9.179  13.814   7.815  0.0349  0.3309  0.0280
  712POPI    C1 7939   5.613   8.253   5.937 -0.0164 -0.4085 -0.0819
  712POPI    C2 7940   5.823   7.955   5.774  0.2712 -0.1867 -0.1244
  712POPI    C3 7941   6.012   8.273   5.926 -0.0331 -0.0092 -0.1101
  712POPI   PO4 7942   5.480   8.123   6.174  0.0155  0.3980 -0.0328
  712POPI   GL1 7943   5.420   8.180   6.621 -0.3853  0.1505 -0.0751
  712POPI   GL2 7944   5.639   8.002   6.686  0.2299 -0.3791  0.1784
  712POPI   C1A 7945   5.146   8.056   7.016 -0.1044 -0.1418 -0.0776
  712POPI   D2A 7946   4.757   8.293   7.000  0.0558  0.1528  0.0003
  712POPI   C3A 7947   4.812   8.319   7.451  0.0651 -0.0428  0.0993
  712POPI   C4A 7948   4.872   8.241   7.883  0.1755 -0.0126 -0.0564
  712POPI   C1B 7949   5.641   7.984   7.046 -0.0049  0.1668 -0.0454
  712POPI   C2B 7950   5.503   7.813   7.387  0.0105  0.3410  0.2391
  712POPI   C3B 7951   5.780   7.567   7.658  0.2493 -0.2590 -0.3308
  712POPI   C4B 7952   6.167   7.532   7.699 -0.0533 -0.1092 -0.0754
  713POPI    C1 7953  16.079   9.772   5.949  0.1248 -0.1298 -0.1303
  713POPI    C2 7954  16.212   9.882   5.588  0.5225 -0.3689 -0.0623
  713POPI    C3 7955  16.437   9.947   5.913  0.1046 -0.0207  0.1680
  713POPI   PO4 7956  15.854   9.847   6.106  0.2799  0.1701 -0.1179
  713POPI   GL1 7957  15.667   9.839   6.558 -0.1665 -0.2582 -0.1657
  713POPI   GL2 7958  16.030   9.726   6.572  0.3642 -0.1911 -0.2412
  713POPI   C1A 7959  15.525  10.029   6.935  0.1115 -0.1013  0.1128
  713POPI   D2A 7960  15.258  10.292   7.195  0.0382  0.0870  0.0136
  713POPI   C3A 7961  15.142  10.310   7.623 -0.1672  0.1377  0.1013
  713POPI   C4A 7962  15.161  10.589   7.976  0.0916  0.0380  0.1196
  713POPI   C1B 7963  15.958   9.724   6.928 -0.0770 -0.2109  0.2547
  713POPI   C2B 7964  15.595   9.464   7.097  0.2128  0.1112  0.2572
  713POPI   C3B 7965  15.332   9.464   7.423 -0.0892 -0.4127 -0.1557
  713POPI   C4B 7966  15.051   9.763   7.735 -0.0009 -0.2584 -0.1253
  714POPI    C1 7967   7.191  15.410   5.748 -0.0072 -0.0649 -0.1746
  714POPI    C2 7968   7.349  15.348   5.386 -0.0603 -0.0429 -0.2016
  714POPI    C3 7969   6.989  15.519   5.421  0.0283  0.1320 -0.1322
  714POPI   PO4 7970   7.157  15.158   5.866 -0.2295  0.2126  0.0070
  714POPI   GL1 7971   7.391  14.887   6.113  0.0854 -0.2032 -0.1055
  714POPI   GL2 7972   7.590  14.659   6.246  0.2733 -0.1589  0.2398
  714POPI   C1A 7973   7.385  15.022   6.564 -0.0429  0.0046 -0.0868
  714POPI   D2A 7974   7.747  15.078   6.902  0.1217 -0.2009  0.1014
  714POPI   C3A 7975   7.575  14.885   7.239  0.3117 -0.0444  0.0204
  714POPI   C4A 7976   7.714  14.973   7.644 -0.0402  0.0539 -0.0442
  714POPI   C1B 7977   7.747  14.555   6.709  0.3969 -0.2930  0.0220
  714POPI   C2B 7978   7.767  14.367   7.123  0.0776 -0.0583  0.3004
  714POPI   C3B 7979   7.635  14.508   7.557  0.3560 -0.2162 -0.1611
  714POPI   C4B 7980   7.473  14.499   7.989  0.1004 -0.0647 -0.1485
  715POPI    C1 7981  11.511  13.256   5.962 -0.0626  0.1662  0.1994
  715POPI    C2 7982  11.599  12.872   5.894  0.1361  0.2050  0.2325
  715POPI    C3 7983  11.233  12.974   6.019 -0.0748  0.0780 -0.2592
  715POPI   PO4 7984  11.773  13.285   6.097  0.0910 -0.0959  0.2793
  715POPI   GL1 7985  11.946  12.849   6.268 -0.0960  0.1503 -0.0512
  715POPI   GL2 7986  11.811  12.548   6.288 -0.1907 -0.1623  0.0105
  715POPI   C1A 7987  11.874  13.066   6.690  0.0496  0.0346  0.0937
  715POPI   D2A 7988  11.918  13.308   7.102 -0.0550  0.0044 -0.2534
  715POPI   C3A 7989  11.800  13.174   7.415 -0.4353 -0.0377  0.3294
  715POPI   C4A 7990  11.949  13.067   7.812  0.1102 -0.0411 -0.0723
  715POPI   C1B 7991  11.702  12.578   6.642  0.2389 -0.0186 -0.0493
  715POPI   C2B 7992  11.722  12.697   7.083 -0.2564  0.0515 -0.2285
  715POPI   C3B 7993  11.862  12.617   7.588  0.1281  0.1331  0.2959
  715POPI   C4B 7994  12.135  12.314   7.806 -0.3563  0.1104  0.2522
  716POPI    C1 7995   1.582   2.840   6.820 -0.2565 -0.2357 -0.0895
  716POPI    C2 7996   1.479   2.543   6.572  0.0002 -0.2824 -0.1433
  716POPI    C3 7997   1.799   2.504   6.809 -0.0359 -0.0964 -0.0618
  716POPI   PO4 7998   1.288   3.056   6.892  0.3246  0.1472  0.4959
  716POPI   GL1 7999   1.136   3.073   7.266 -0.1903 -0.0594  0.0901
  716POPI   GL2 8000   1.066   2.803   7.330  0.1987 -0.0466  0.0565
  716POPI   C1A 8001   1.462   3.223   7.647 -0.0341 -0.2036  0.0976
  716POPI   D2A 8002   1.441   3.416   8.034  0.0373  0.0031 -0.0575
  716POPI   C3A 8003   1.045   3.400   8.151  0.1780  0.3343 -0.2013
  716POPI   C4A 8004   0.619   3.201   8.191 -0.2424  0.0299 -0.0181
  716POPI   C1B 8005   1.148   2.426   7.694 -0.0314 -0.0250 -0.1232
  716POPI   C2B 8006   1.315   2.197   8.073  0.1171 -0.0646  0.1358
  716POPI   C3B 8007   1.359   2.279   8.440  0.0048 -0.0916 -0.0330
  716POPI   C4B 8008   1.256   2.613   8.648 -0.1499  0.3716 -0.0610
  717POPI    C1 8009  12.530  13.904   5.955 -0.0643  0.0885 -0.0685
  717POPI    C2 8010  12.475  14.266   6.116 -0.1221  0.0560 -0.0149
  717POPI    C3 8011  12.600  14.232   5.738 -0.1332  0.1319 -0.0255
  717POPI   PO4 8012  12.250  13.679   6.009 -0.0928 -0.0242  0.3301
  717POPI   GL1 8013  12.116  13.509   6.397  0.1539  0.2019 -0.2277
  717POPI   GL2 8014  12.295  13.240   6.276  0.2280  0.0321 -0.1623
  717POPI   C1A 8015  12.126  13.699   6.825  0.2125 -0.2182 -0.2059
  717POPI   D2A 8016  12.087  13.782   7.214 -0.1274 -0.1460 -0.0498
  717POPI   C3A 8017  12.268  13.400   7.507  0.0908 -0.0903  0.1545
  717POPI   C4A 8018  12.483  13.406   7.914 -0.1315 -0.0689 -0.0701
  717POPI   C1B 8019  12.429  13.278   6.683  0.2151  0.2454 -0.0581
  717POPI   C2B 8020  12.442  13.259   7.048  0.0375 -0.0155 -0.2639
  717POPI   C3B 8021  12.693  13.133   7.371  0.1709  0.2759  0.1607
  717POPI   C4B 8022  12.751  12.999   7.775  0.2874 -0.0105 -0.0973
  718POPI    C1 8023   8.822  10.452   5.815  0.1639 -0.0118 -0.1447
  718POPI    C2 8024   8.427  10.497   5.863  0.1620 -0.0551 -0.1188
  718POPI    C3 8025   8.666  10.818   5.857  0.1167 -0.0230 -0.2215
  718POPI   PO4 8026   8.864  10.175   5.963  0.2878 -0.1624  0.1191
  718POPI   GL1 8027   9.076   9.964   6.254 -0.0474  0.1387  0.1660
  718POPI   GL2 8028   8.834   9.834   6.448 -0.1813 -0.1843  0.3388
  718POPI   C1A 8029   9.229   9.969   6.665 -0.0152 -0.1647  0.1246
  718POPI   D2A 8030   9.549  10.176   6.960  0.0239 -0.0479  0.1666
  718POPI   C3A 8031   9.554  10.103   7.402 -0.0403 -0.1053  0.1223
  718POPI   C4A 8032   9.426  10.097   7.791  0.1006  0.1803  0.1187
  718POPI   C1B 8033   8.705   9.854   6.865 -0.0751  0.1200 -0.0732
  718POPI   C2B 8034   8.652   9.917   7.263  0.1934  0.0560  0.0234
  718POPI   C3B 8035   8.628   9.981   7.695  0.1639  0.1388 -0.4025
  718POPI   C4B 8036   8.569   9.926   8.115  0.3131  0.0050  0.0481
  719POPI    C1 8037  14.867   0.889   6.420  0.0903  0.2394 -0.2455
  719POPI    C2 8038  14.820   1.034   6.050 -0.1066  0.1085 -0.2731
  719POPI    C3 8039  14.597   0.726   6.174  0.1671 -0.0416 -0.1465
  719POPI   PO4 8040  14.941   1.108   6.515 -0.0483  0.0405  0.0617
  719POPI   GL1 8041  14.824   1.317   6.895  0.1113  0.0036 -0.1901
  719POPI   GL2 8042  14.585   1.543   6.798 -0.0346 -0.0661  0.0169
  719POPI   C1A 8043  14.618   1.096   7.274 -0.3084 -0.0684  0.0552
  719POPI   D2A 8044  14.512   1.213   7.658 -0.1991 -0.1054 -0.1261
  719POPI   C3A 8045  14.397   1.350   7.962 -0.1067 -0.2076 -0.0149
  719POPI   C4A 8046  14.380   1.565   8.376  0.1729  0.0226 -0.0567
  719POPI   C1B 8047  14.606   1.606   7.254 -0.2094  0.0138 -0.2807
  719POPI   C2B 8048  14.733   1.636   7.641 -0.3084  0.2297  0.3713
  719POPI   C3B 8049  14.763   1.651   8.111  0.1568 -0.0685 -0.1483
  719POPI   C4B 8050  14.847   1.920   8.457  0.0195  0.1924 -0.0878
  720POPI    C1 8051   2.043  11.830   5.613 -0.0291 -0.0246 -0.0952
  720POPI    C2 8052   1.660  11.875   5.508 -0.0160  0.0051 -0.1306
  720POPI    C3 8053   1.950  11.987   5.257  0.0155  0.0783 -0.0619
  720POPI   PO4 8054   2.109  11.903   5.860 -0.0576 -0.0567  0.1559
  720POPI   GL1 8055   2.165  11.959   6.326  0.4283  0.1806  0.3769
  720POPI   GL2 8056   2.116  12.259   6.449 -0.2023 -0.0051 -0.2708
  720POPI   C1A 8057   1.857  11.835   6.610 -0.1409  0.1858  0.1903
  720POPI   D2A 8058   1.406  11.701   6.769  0.1141 -0.1548 -0.0030
  720POPI   C3A 8059   1.019  11.524   6.658 -0.0639 -0.0999 -0.1085
  720POPI   C4A 8060   0.726  11.630   6.365  0.1540  0.0031  0.2181
  720POPI   C1B 8061   2.129  12.082   6.922  0.1251 -0.2798 -0.2735
  720POPI   C2B 8062   1.970  11.982   7.339  0.2813  0.3478  0.1210
  720POPI   C3B 8063   1.818  11.911   7.740 -0.0891 -0.0920 -0.3727
  720POPI   C4B 8064   1.592  12.044   7.971 -0.1345 -0.2178  0.0723
  721POPI    C1 8065   4.657  15.245   6.285 -0.0095 -0.2055  0.0561
  721POPI    C2 8066   4.528  14.929   6.076 -0.1646 -0.0855 -0.0322
  721POPI    C3 8067   4.289  15.101   6.347 -0.0890 -0.0292 -0.0008
  721POPI   PO4 8068   4.960  15.096   6.386 -0.0812  0.0746 -0.0024
  721POPI   GL1 8069   5.073  15.340   6.791  0.0086 -0.0386  0.1887
  721POPI   GL2 8070   5.302  15.201   6.797  0.4483  0.1518 -0.2303
  721POPI   C1A 8071   4.772  15.367   7.137 -0.0393 -0.1226  0.3313
  721POPI   D2A 8072   4.559  15.428   7.419 -0.1419 -0.0555 -0.3775
  721POPI   C3A 8073   4.247  15.191   7.674  0.1299 -0.2088  0.0748
  721POPI   C4A 8074   3.933  15.399   7.999 -0.0136  0.0112  0.1277
  721POPI   C1B 8075   5.442  15.114   7.192  0.1990 -0.2604  0.0255
  721POPI   C2B 8076   5.507  15.274   7.648 -0.0885  0.3581  0.0628
  721POPI   C3B 8077   5.693  15.261   8.053  0.2514  0.1063  0.0055
  721POPI   C4B 8078   5.842  15.061   8.429 -0.1426 -0.2191 -0.1322
  722POPI    C1 8079   4.319  14.221   6.129  0.0659  0.1189  0.0534
  722POPI    C2 8080   4.488  14.232   5.766  0.0234 -0.0795  0.0262
  722POPI    C3 8081   4.143  14.037   5.820 -0.1106  0.1779  0.1178
  722POPI   PO4 8082   4.358  14.434   6.358  0.1298 -0.1550  0.1900
  722POPI   GL1 8083   4.589  14.775   6.567  0.0662  0.2548  0.2385
  722POPI   GL2 8084   4.604  15.021   6.787 -0.0457 -0.3078  0.0335
  722POPI   C1A 8085   4.540  14.517   6.932 -0.0341 -0.1456  0.0898
  722POPI   D2A 8086   4.518  14.163   7.278 -0.0562  0.1257 -0.1214
  722POPI   C3A 8087   4.520  14.322   7.698  0.0245 -0.0736 -0.1091
  722POPI   C4A 8088   4.483  14.411   8.065  0.1597 -0.5043  0.0424
  722POPI   C1B 8089   4.434  14.977   7.159 -0.5147 -0.1513 -0.1674
  722POPI   C2B 8090   4.498  14.795   7.546 -0.0482 -0.2544  0.3264
  722POPI   C3B 8091   4.654  14.981   7.849  0.0941 -0.0471 -0.0052
  722POPI   C4B 8092   4.540  15.324   8.008  0.0317  0.0848  0.0281
  723POPI    C1 8093  11.707  17.721   6.046  0.2529  0.0163 -0.0389
  723POPI    C2 8094  11.983  17.450   5.946 -0.0452 -0.1680 -0.3880
  723POPI    C3 8095  11.835  17.697   5.668  0.0207  0.1692 -0.1300
  723POPI   PO4 8096  11.795  17.733   6.298  0.0511  0.2496 -0.0092
  723POPI   GL1 8097  11.566  17.680   6.654 -0.0966  0.1396  0.0058
  723POPI   GL2 8098  11.875  17.502   6.753  0.1071  0.0819  0.0189
  723POPI   C1A 8099  11.446  17.505   7.029 -0.1417 -0.1287  0.1258
  723POPI   D2A 8100  11.475  17.753   7.380  0.0252 -0.0343  0.0924
  723POPI   C3A 8101  11.751  17.535   7.693 -0.1548  0.1268 -0.2022
  723POPI   C4A 8102  11.836  17.162   8.036 -0.4375 -0.0637 -0.1598
  723POPI   C1B 8103  11.883  17.396   7.231 -0.0159 -0.0583  0.2516
  723POPI   C2B 8104  12.239  17.270   7.583 -0.3095 -0.0583  0.2646
  723POPI   C3B 8105  12.249  17.443   7.922 -0.2405 -0.3542 -0.0426
  723POPI   C4B 8106  12.426  17.669   8.299  0.0667 -0.2174  0.0660
  724POPI    C1 8107  12.424  12.371   6.186 -0.0654  0.0354 -0.1604
  724POPI    C2 8108  12.658  12.082   6.038 -0.0456 -0.0174 -0.0273
  724POPI    C3 8109  12.545  12.387   5.805  0.0769 -0.0415 -0.1191
  724POPI   PO4 8110  12.248  12.294   6.282  0.3888 -0.2707  0.0768
  724POPI   GL1 8111  12.230  12.254   6.607  0.2980 -0.0933  0.0979
  724POPI   GL2 8112  12.429  11.980   6.647  0.0191 -0.0333 -0.0256
  724POPI   C1A 8113  11.989  12.217   7.002 -0.0224  0.1266  0.2064
  724POPI   D2A 8114  12.145  12.095   7.339 -0.1947  0.1438  0.0175
  724POPI   C3A 8115  11.758  12.084   7.557  0.1292 -0.1027  0.4117
  724POPI   C4A 8116  11.406  12.294   7.775 -0.1144  0.1339 -0.0372
  724POPI   C1B 8117  12.371  11.785   7.007  0.0749 -0.2477 -0.2339
  724POPI   C2B 8118  12.434  11.689   7.372  0.2287  0.0806 -0.0310
  724POPI   C3B 8119  12.507  11.374   7.730  0.1688  0.0416  0.0644
  724POPI   C4B 8120  12.383  11.192   8.074  0.2714 -0.1277  0.0574
  725POPI    C1 8121  12.734  15.195   6.055 -0.0489 -0.1432  0.1334
  725POPI    C2 8122  12.555  14.946   5.799  0.1317 -0.1224 -0.0158
  725POPI    C3 8123  12.930  15.065   5.732  0.0873  0.0978  0.1167
  725POPI   PO4 8124  12.543  15.267   6.205  0.0651  0.1453 -0.1203
  725POPI   GL1 8125  12.517  15.565   6.470  0.0598  0.0821 -0.0199
  725POPI   GL2 8126  12.492  15.866   6.486  0.2279 -0.2680  0.1327
  725POPI   C1A 8127  12.448  15.499   6.915  0.1257 -0.0230 -0.0669
  725POPI   D2A 8128  12.490  15.644   7.294 -0.0513  0.0404 -0.0105
  725POPI   C3A 8129  12.655  15.851   7.674  0.1862  0.0030  0.0439
  725POPI   C4A 8130  12.652  16.092   8.097  0.0723 -0.0883  0.0605
  725POPI   C1B 8131  12.570  15.995   6.876  0.2250  0.0554 -0.3127
  725POPI   C2B 8132  12.426  16.193   7.281  0.0589 -0.0310  0.0369
  725POPI   C3B 8133  12.228  16.237   7.624 -0.2333 -0.1248  0.0019
  725POPI   C4B 8134  12.204  15.981   7.952 -0.2775  0.0460 -0.3077
  726POPI    C1 8135  13.843   9.223   5.939 -0.0020 -0.0990 -0.0386
  726POPI    C2 8136  13.692   9.574   5.823  0.1435 -0.0773 -0.1662
  726POPI    C3 8137  13.455   9.253   5.850 -0.0332  0.0745  0.1493
  726POPI   PO4 8138  14.014   9.264   6.108  0.1824 -0.1572 -0.0178
  726POPI   GL1 8139  14.077   9.309   6.572  0.0183  0.0114 -0.1444
  726POPI   GL2 8140  14.042   8.961   6.780 -0.0848 -0.2289  0.2832
  726POPI   C1A 8141  14.272   9.388   6.990 -0.0237 -0.1238 -0.0551
  726POPI   D2A 8142  14.276   9.256   7.425  0.0211 -0.1310 -0.2949
  726POPI   C3A 8143  14.124   9.253   7.857  0.1204  0.2687  0.1398
  726POPI   C4A 8144  13.924   9.148   8.322  0.0953 -0.2568 -0.0021
  726POPI   C1B 8145  13.731   9.191   7.079 -0.0184  0.0430 -0.1048
  726POPI   C2B 8146  13.839   9.478   7.357 -0.0879  0.2251  0.1072
  726POPI   C3B 8147  14.109   9.744   7.660  0.0659 -0.3250  0.5257
  726POPI   C4B 8148  14.103   9.753   8.016 -0.0602 -0.1933  0.1386
  727POPI    C1 8149  13.406  14.532   5.865 -0.0428 -0.1810  0.0784
  727POPI    C2 8150  13.431  14.928   5.809  0.1835 -0.2027  0.0131
  727POPI    C3 8151  13.257  14.697   5.532 -0.0045 -0.1434  0.0798
  727POPI   PO4 8152  13.355  14.490   6.144 -0.0105  0.0535  0.3292
  727POPI   GL1 8153  13.463  14.695   6.538 -0.0472 -0.3042  0.0485
  727POPI   GL2 8154  13.146  14.705   6.694  0.1649  0.0150 -0.3263
  727POPI   C1A 8155  13.493  14.408   6.968  0.1522  0.2852  0.1287
  727POPI   D2A 8156  13.672  14.321   7.368  0.2326  0.3237 -0.0997
  727POPI   C3A 8157  13.653  14.599   7.648 -0.2116  0.1689  0.0304
  727POPI   C4A 8158  13.576  14.634   8.078  0.1823  0.1359 -0.3961
  727POPI   C1B 8159  13.242  14.839   7.119 -0.0630 -0.0693  0.2166
  727POPI   C2B 8160  13.345  15.031   7.439  0.1806 -0.0859 -0.0751
  727POPI   C3B 8161  13.573  15.086   7.798 -0.0718 -0.1976 -0.0061
  727POPI   C4B 8162  13.395  15.089   8.259  0.0217  0.1158  0.0821
  728POPI    C1 8163  14.347   0.354   6.460  0.1978  0.0566  0.0956
  728POPI    C2 8164  14.538   0.197   6.146  0.2357  0.1790  0.0572
  728POPI    C3 8165  14.191   0.390   6.094  0.0709 -0.0911  0.1336
  728POPI   PO4 8166  14.570   0.474   6.601 -0.0084 -0.0885 -0.1680
  728POPI   GL1 8167  14.949   0.493   6.797  0.0196 -0.3737  0.1241
  728POPI   GL2 8168  15.038   0.800   6.987  0.1412  0.4073  0.1877
  728POPI   C1A 8169  14.942   0.236   7.113  0.0612 -0.1129  0.1293
  728POPI   D2A 8170  14.900   0.228   7.587 -0.3157  0.1055  0.0371
  728POPI   C3A 8171  14.493   0.255   7.793 -0.2321  0.1901 -0.0356
  728POPI   C4A 8172  14.081   0.385   7.752 -0.2431 -0.0471 -0.0903
  728POPI   C1B 8173  15.012   0.819   7.306 -0.0643  0.0284  0.0734
  728POPI   C2B 8174  14.963   0.783   7.649 -0.1008  0.1507  0.2343
  728POPI   C3B 8175  14.992   0.475   8.002 -0.0065 -0.0757 -0.1484
  728POPI   C4B 8176  15.100   0.342   8.479  0.2383 -0.3411  0.1668
  729POPI    C1 8177  13.104  16.936   5.943  0.0477  0.0728 -0.0608
  729POPI    C2 8178  12.795  17.141   5.794  0.0715  0.0858 -0.0921
  729POPI    C3 8179  13.158  17.181   5.631  0.0581 -0.0508 -0.1568
  729POPI   PO4 8180  13.064  17.021   6.207 -0.0881  0.1410 -0.2199
  729POPI   GL1 8181  12.956  17.107   6.612  0.0692 -0.1771  0.0774
  729POPI   GL2 8182  12.722  16.948   6.802 -0.0141 -0.0953  0.1052
  729POPI   C1A 8183  13.040  17.213   7.039 -0.1968 -0.2212 -0.1384
  729POPI   D2A 8184  13.205  17.166   7.468 -0.3921 -0.2098 -0.2521
  729POPI   C3A 8185  13.081  16.999   7.862  0.1575  0.2739  0.0781
  729POPI   C4A 8186  13.252  16.898   8.255 -0.1770 -0.0418  0.1132
  729POPI   C1B 8187  12.846  16.815   7.259 -0.0723  0.0725 -0.3265
  729POPI   C2B 8188  12.694  17.050   7.580 -0.2585  0.0463 -0.0528
  729POPI   C3B 8189  12.656  17.134   8.053  0.1527  0.3332 -0.0274
  729POPI   C4B 8190  12.761  17.291   8.388  0.4412 -0.2203  0.0487
  730POPI    C1 8191  10.627  13.211   5.586 -0.0261  0.1710 -0.0603
  730POPI    C2 8192  10.941  13.420   5.452  0.0888  0.0021 -0.0580
  730POPI    C3 8193  10.573  13.576   5.433  0.1595  0.1582 -0.1590
  730POPI   PO4 8194  10.772  13.062   5.812  0.2415  0.2904  0.1536
  730POPI   GL1 8195  10.831  13.271   6.245  0.3678  0.0543  0.1601
  730POPI   GL2 8196  10.686  13.613   6.292 -0.3227 -0.0586 -0.0458
  730POPI   C1A 8197  10.916  12.873   6.471 -0.3605 -0.0237  0.1956
  730POPI   D2A 8198  10.822  12.836   6.874 -0.0522  0.0312 -0.1945
  730POPI   C3A 8199  10.683  12.787   7.339 -0.0319  0.2540  0.1893
  730POPI   C4A 8200  10.343  12.723   7.569  0.1620  0.0456 -0.2810
  730POPI   C1B 8201  10.497  13.695   6.729 -0.0890  0.0329  0.2176
  730POPI   C2B 8202  10.337  13.769   7.130 -0.0161  0.0047 -0.1217
  730POPI   C3B 8203  10.240  13.641   7.493 -0.0489 -0.2301 -0.1783
  730POPI   C4B 8204   9.933  13.507   7.816 -0.4269  0.3871 -0.0428
  731POPI    C1 8205   1.158  14.567   6.018 -0.0234  0.1451 -0.0834
  731POPI    C2 8206   1.485  14.396   5.862 -0.0871  0.0442 -0.1075
  731POPI    C3 8207   1.245  14.619   5.631 -0.1600 -0.0726 -0.1454
  731POPI   PO4 8208   1.142  14.529   6.232  0.1784  0.1033  0.1272
  731POPI   GL1 8209   1.083  14.296   6.598 -0.0035 -0.0180  0.0489
  731POPI   GL2 8210   1.415  14.465   6.778  0.1466 -0.0030  0.0493
  731POPI   C1A 8211   1.000  14.091   6.926 -0.0595 -0.1319  0.2345
  731POPI   D2A 8212   0.949  14.145   7.300 -0.2243 -0.2776  0.0003
  731POPI   C3A 8213   0.544  13.984   7.416  0.0410  0.1786  0.2593
  731POPI   C4A 8214   0.192  13.802   7.647 -0.0732  0.3634  0.0422
  731POPI   C1B 8215   1.213  14.494   7.130 -0.1414  0.0622 -0.0014
  731POPI   C2B 8216   1.129  14.679   7.469 -0.1166 -0.1032 -0.1489
  731POPI   C3B 8217   1.002  14.738   7.856 -0.1076  0.2747  0.1933
  731POPI   C4B 8218   1.016  14.725   8.274 -0.0412  0.1479 -0.1944
  732POPI    C1 8219  10.383  11.206   6.089  0.1273  0.0981  0.1206
  732POPI    C2 8220  10.495  11.581   6.007 -0.0182  0.0490 -0.3296
  732POPI    C3 8221  10.107  11.494   6.051  0.0147 -0.0510 -0.2346
  732POPI   PO4 8222  10.499  11.110   6.250  0.1214  0.2713  0.1816
  732POPI   GL1 8223  10.694  11.046   6.476  0.2063  0.3044 -0.0016
  732POPI   GL2 8224  10.694  10.660   6.567 -0.3661  0.2053  0.1251
  732POPI   C1A 8225  10.671  11.330   6.886 -0.1329 -0.0657 -0.2620
  732POPI   D2A 8226  10.826  11.354   7.321 -0.2006  0.2784 -0.0874
  732POPI   C3A 8227  10.552  11.272   7.742  0.0658 -0.1628  0.0760
  732POPI   C4A 8228  10.465  11.333   8.161 -0.2426 -0.0404 -0.1111
  732POPI   C1B 8229  11.000  10.896   6.835 -0.1032 -0.2817 -0.0977
  732POPI   C2B 8230  11.067  10.910   7.240  0.2598  0.0826 -0.0137
  732POPI   C3B 8231  10.951  10.976   7.658 -0.1667 -0.2341 -0.0916
  732POPI   C4B 8232  10.747  10.857   8.092  0.2272 -0.1960 -0.0570
  733POPI    C1 8233  12.796   8.820   5.826  0.0434 -0.0196 -0.1085
  733POPI    C2 8234  12.485   8.680   5.617  0.1402 -0.1540 -0.1641
  733POPI    C3 8235  12.840   8.497   5.594  0.2535  0.0653 -0.1895
  733POPI   PO4 8236  12.694   8.837   6.103 -0.3256  0.2305  0.1742
  733POPI   GL1 8237  12.894   8.758   6.558  0.1429 -0.1123  0.2491
  733POPI   GL2 8238  13.199   8.862   6.578  0.0310 -0.1358  0.0803
  733POPI   C1A 8239  12.873   8.712   7.022  0.0506  0.2746  0.0463
  733POPI   D2A 8240  12.907   8.661   7.488  0.3988 -0.1619 -0.0055
  733POPI   C3A 8241  13.159   8.900   7.835  0.2226  0.0724  0.0883
  733POPI   C4A 8242  13.187   9.192   8.072  0.0276  0.4486 -0.2035
  733POPI   C1B 8243  13.293   8.978   6.914 -0.0130 -0.1198  0.2538
  733POPI   C2B 8244  13.355   8.899   7.349 -0.0216  0.1640 -0.3239
  733POPI   C3B 8245  13.595   8.832   7.613 -0.0433  0.2664 -0.0102
  733POPI   C4B 8246  13.639   9.038   7.900  0.0027  0.1064 -0.0025
  734POPI    C1 8247  13.505   2.545   6.161 -0.2043  0.1182 -0.1143
  734POPI    C2 8248  13.289   2.717   6.451 -0.4035 -0.0783 -0.1433
  734POPI    C3 8249  13.254   2.844   6.073 -0.0996  0.2179 -0.0768
  734POPI   PO4 8250  13.556   2.288   6.247  0.0001  0.0344 -0.1071
  734POPI   GL1 8251  13.558   2.196   6.738 -0.1052 -0.1585 -0.0204
  734POPI   GL2 8252  13.282   2.438   6.837  0.2139 -0.1387 -0.1443
  734POPI   C1A 8253  13.932   1.985   6.747 -0.0991 -0.1723  0.1267
  734POPI   D2A 8254  14.240   1.953   7.029  0.1525  0.0917 -0.0369
  734POPI   C3A 8255  14.296   1.876   7.486  0.0458 -0.0297  0.1838
  734POPI   C4A 8256  14.253   1.800   7.935  0.3562  0.4117  0.0272
  734POPI   C1B 8257  13.428   2.512   7.159  0.0177 -0.0021 -0.1212
  734POPI   C2B 8258  13.285   2.608   7.597 -0.1523 -0.0312 -0.0233
  734POPI   C3B 8259  13.461   2.922   7.907  0.1527 -0.1893 -0.2922
  734POPI   C4B 8260  13.254   3.122   8.256 -0.0606 -0.1011  0.3317
  735POPI    C1 8261   0.486   8.840   6.214 -0.0886  0.0102  0.0984
  735POPI    C2 8262   0.787   8.731   6.455 -0.0104  0.2461  0.1099
  735POPI    C3 8263   0.664   8.485   6.164  0.0024  0.0283  0.2865
  735POPI   PO4 8264   0.457   9.108   6.334  0.1455 -0.0131  0.0615
  735POPI   GL1 8265   0.428   9.331   6.662  0.1324 -0.0899 -0.3970
  735POPI   GL2 8266   0.297   9.624   6.665 -0.1299  0.2149  0.1765
  735POPI   C1A 8267   0.320   9.204   7.180  0.2703  0.0932  0.0637
  735POPI   D2A 8268   0.225   9.123   7.584  0.2740 -0.1251 -0.2285
  735POPI   C3A 8269  -0.125   9.031   7.915 -0.1872 -0.0976 -0.1222
  735POPI   C4A 8270  -0.416   9.193   8.046 -0.2316  0.2269 -0.1206
  735POPI   C1B 8271   0.506   9.686   6.968 -0.1751  0.3031  0.2486
  735POPI   C2B 8272   0.707   9.909   7.349  0.1632 -0.2840  0.2538
  735POPI   C3B 8273   0.816  10.160   7.718  0.1447 -0.1658  0.1705
  735POPI   C4B 8274   0.905  10.583   8.032  0.0045 -0.0761 -0.1389
  736POPI    C1 8275  13.375  15.402   5.954 -0.2041  0.0274 -0.1179
  736POPI    C2 8276  13.068  15.532   6.175 -0.2671  0.0110 -0.1950
  736POPI    C3 8277  13.042  15.534   5.776 -0.1255  0.1105 -0.2047
  736POPI   PO4 8278  13.570  15.370   6.151 -0.0390 -0.0275 -0.1587
  736POPI   GL1 8279  13.451  15.169   6.589 -0.1389  0.2035 -0.1507
  736POPI   GL2 8280  13.261  15.330   6.622  0.2298  0.1071  0.0710
  736POPI   C1A 8281  13.560  15.106   6.933 -0.0868 -0.0224 -0.2543
  736POPI   D2A 8282  13.832  14.839   7.214 -0.3930  0.1638 -0.0557
  736POPI   C3A 8283  14.027  14.945   7.590 -0.1021  0.0106  0.0993
  736POPI   C4A 8284  14.316  15.179   7.626  0.3528 -0.1207  0.1406
  736POPI   C1B 8285  12.929  15.633   6.770  0.0454  0.1203  0.0836
  736POPI   C2B 8286  12.926  15.829   7.180  0.0934 -0.2463  0.1172
  736POPI   C3B 8287  13.174  15.929   7.549 -0.2303  0.0598 -0.0251
  736POPI   C4B 8288  13.153  16.243   7.885  0.0575 -0.1620  0.3579
  737POPI    C1 8289   6.147  11.229   5.948  0.1072  0.0231 -0.0212
  737POPI    C2 8290   5.953  11.123   5.614 -0.1434 -0.0839  0.1555
  737POPI    C3 8291   6.272  10.913   5.736 -0.0638 -0.0570 -0.0036
  737POPI   PO4 8292   5.996  11.199   6.198  0.1755 -0.0092  0.1051
  737POPI   GL1 8293   5.984  10.937   6.541 -0.3471 -0.2411  0.4611
  737POPI   GL2 8294   6.011  10.708   6.563  0.1698 -0.0463  0.0023
  737POPI   C1A 8295   5.830  11.098   6.957  0.1637 -0.1521  0.2102
  737POPI   D2A 8296   5.992  11.094   7.311 -0.0689 -0.0384  0.1048
  737POPI   C3A 8297   6.103  10.781   7.519  0.1893 -0.1954  0.0478
  737POPI   C4A 8298   5.991  10.672   7.944 -0.1444  0.0476 -0.1566
  737POPI   C1B 8299   5.956  10.564   6.973  0.1566  0.0724  0.1472
  737POPI   C2B 8300   5.690  10.547   7.287  0.0191 -0.2504  0.4094
  737POPI   C3B 8301   5.578  10.668   7.681  0.2499  0.0727  0.0322
  737POPI   C4B 8302   5.494  10.856   8.073  0.0603 -0.1188  0.0075
  738POPI    C1 8303  12.240   5.825   6.229  0.0376  0.1195 -0.0234
  738POPI    C2 8304  12.424   5.922   5.888  0.1733 -0.1162 -0.0195
  738POPI    C3 8305  12.213   5.583   5.912  0.1769 -0.1081  0.1349
  738POPI   PO4 8306  12.056   6.087   6.391  0.1931  0.1307  0.1863
  738POPI   GL1 8307  11.915   6.146   6.819  0.1209  0.0559  0.1517
  738POPI   GL2 8308  11.571   6.099   6.749 -0.0495  0.1388  0.1216
  738POPI   C1A 8309  11.960   6.305   7.301 -0.2462  0.1184 -0.2151
  738POPI   D2A 8310  12.288   6.407   7.523 -0.0775 -0.2170 -0.0809
  738POPI   C3A 8311  12.340   6.783   7.807 -0.1368 -0.1492  0.0403
  738POPI   C4A 8312  12.242   6.861   8.255  0.2220  0.0623  0.0753
  738POPI   C1B 8313  11.540   6.079   7.171 -0.2772 -0.2242 -0.1821
  738POPI   C2B 8314  11.476   6.277   7.651 -0.1250  0.1566 -0.0738
  738POPI   C3B 8315  11.156   6.326   8.046 -0.0885  0.1733 -0.0613
  738POPI   C4B 8316  11.299   6.541   8.409  0.3242  0.2738 -0.3079
  739POPS   CNO 8317   2.354   9.800   5.658 -0.1594 -0.1327 -0.1317
  739POPS   PO4 8318   2.284   9.923   6.068  0.0468  0.0221  0.0012
  739POPS   GL1 8319   2.256   9.607   6.405  0.0002  0.0199  0.0424
  739POPS   GL2 8320   1.997   9.781   6.636  0.1511 -0.1863 -0.2764
  739POPS   C1A 8321   2.278   9.350   6.731  0.2415 -0.2927  0.0753
  739POPS   D2A 8322   2.307   9.112   7.070 -0.1684  0.1017  0.2051
  739POPS   C3A 8323   2.268   9.231   7.539  0.0671  0.0102 -0.0272
  739POPS   C4A 8324   2.329   9.328   7.979 -0.0053 -0.0409  0.2515
  739POPS   C1B 8325   2.146   9.723   7.067  0.1257 -0.0309  0.1155
  739POPS   C2B 8326   2.160   9.686   7.421  0.1232 -0.0025 -0.1857
  739POPS   C3B 8327   2.096   9.786   7.840 -0.1026 -0.1337 -0.2480
  739POPS   C4B 8328   1.945   9.695   8.211  0.1312  0.1312 -0.1172
  740POPS   CNO 8329  11.295   5.724   5.849 -0.1732 -0.4061  0.0374
  740POPS   PO4 8330  11.216   5.804   6.332 -0.1083  0.1420 -0.4103
  740POPS   GL1 8331  11.400   5.592   6.743 -0.0994  0.1381  0.0795
  740POPS   GL2 8332  11.623   5.382   6.644 -0.1354  0.1845 -0.0674
  740POPS   C1A 8333  11.545   5.560   7.238  0.0624  0.0761  0.1226
  740POPS   D2A 8334  11.312   5.827   7.620  0.1179  0.2089  0.0644
  740POPS   C3A 8335  11.386   5.863   8.034 -0.0304 -0.0559 -0.0248
  740POPS   C4A 8336  11.639   6.222   8.147  0.1988  0.1078 -0.0745
  740POPS   C1B 8337  11.348   5.151   6.921 -0.1893 -0.0195 -0.1147
  740POPS   C2B 8338  11.427   5.077   7.382  0.1027  0.0482 -0.2857
  740POPS   C3B 8339  11.528   5.382   7.786  0.1572 -0.1224 -0.1306
  740POPS   C4B 8340  11.693   5.557   8.239  0.1463 -0.0202 -0.2028
  741POPS   CNO 8341   6.452  16.930   6.044  0.1593  0.1882 -0.4070
  741POPS   PO4 8342   6.393  16.536   6.325 -0.1072  0.0785 -0.3204
  741POPS   GL1 8343   6.555  16.437   6.677  0.2189  0.2241  0.1854
  741POPS   GL2 8344   6.420  16.459   6.959 -0.3475  0.1035 -0.1396
  741POPS   C1A 8345   6.925  16.423   7.005 -0.0446  0.1948  0.2345
  741POPS   D2A 8346   7.061  16.294   7.405 -0.0723 -0.0921 -0.0462
  741POPS   C3A 8347   7.117  16.010   7.658 -0.0848 -0.4119  0.2615
  741POPS   C4A 8348   7.351  15.854   8.010 -0.0353 -0.2591 -0.1359
  741POPS   C1B 8349   6.504  16.347   7.383 -0.2576 -0.2188 -0.2300
  741POPS   C2B 8350   6.722  16.284   7.819  0.1770  0.2010  0.2368
  741POPS   C3B 8351   6.823  16.133   8.187  0.1556 -0.2279 -0.1210
  741POPS   C4B 8352   7.106  15.925   8.450  0.2455 -0.0506  0.3313
  742POPS   CNO 8353   7.772  12.624   5.637 -0.1398  0.4820  0.0486
  742POPS   PO4 8354   8.122  12.671   5.842 -0.2432  0.0576  0.1921
  742POPS   GL1 8355   8.241  12.754   6.259 -0.2206  0.1738 -0.3871
  742POPS   GL2 8356   8.203  13.118   6.333 -0.0911  0.2058 -0.0911
  742POPS   C1A 8357   8.686  12.848   6.412  0.1415 -0.0639 -0.2151
  742POPS   D2A 8358   8.990  12.911   6.640 -0.0018  0.0994 -0.2801
  742POPS   C3A 8359   8.990  12.673   6.968  0.0976 -0.1557  0.0020
  742POPS   C4A 8360   9.037  12.320   7.303  0.1852  0.0234  0.2232
  742POPS   C1B 8361   8.336  13.118   6.639  0.2898 -0.0768 -0.1916
  742POPS   C2B 8362   8.595  12.982   6.909 -0.0236  0.1121  0.0482
  742POPS   C3B 8363   8.965  13.124   7.188  0.2441 -0.0484 -0.0821
  742POPS   C4B 8364   9.218  13.445   7.114  0.0465  0.1694  0.0542
  743POPS   CNO 8365   5.370  16.768   6.640 -0.0621  0.1552  0.0975
  743POPS   PO4 8366   5.395  16.361   6.554  0.0555  0.1709  0.1642
  743POPS   GL1 8367   5.599  16.381   6.930 -0.0479 -0.1096  0.1770
  743POPS   GL2 8368   5.558  16.162   7.104  0.2769  0.0825 -0.1501
  743POPS   C1A 8369   5.980  16.431   7.201  0.1175  0.1379 -0.1069
  743POPS   D2A 8370   6.102  16.683   7.595  0.1332  0.0263 -0.3762
  743POPS   C3A 8371   6.273  16.457   8.010 -0.2867  0.3707 -0.2234
  743POPS   C4A 8372   6.355  16.267   8.421 -0.1808  0.0278 -0.0518
  743POPS   C1B 8373   5.521  15.898   7.459 -0.1441  0.2872  0.0410
  743POPS   C2B 8374   5.441  15.730   7.858 -0.1191  0.0325 -0.1331
  743POPS   C3B 8375   5.630  15.782   8.189 -0.1945 -0.0047  0.1345
  743POPS   C4B 8376   5.929  15.935   8.427 -0.0101 -0.0228  0.1736
  744POPS   CNO 8377   4.217  10.569   6.235  0.1907  0.1716  0.0190
  744POPS   PO4 8378   4.480  10.380   6.497 -0.2845 -0.0038 -0.2521
  744POPS   GL1 8379   4.364  10.417   6.962  0.2803 -0.1029  0.0166
  744POPS   GL2 8380   4.282  10.093   6.953 -0.2259 -0.3245  0.1158
  744POPS   C1A 8381   4.273  10.306   7.417  0.1393  0.1040  0.0013
  744POPS   D2A 8382   4.226  10.302   7.820 -0.0476 -0.3311  0.0678
  744POPS   C3A 8383   4.399  10.061   8.105 -0.0902  0.2114  0.1240
  744POPS   C4A 8384   4.623   9.702   8.124  0.2304 -0.1855  0.0750
  744POPS   C1B 8385   4.107   9.878   7.255  0.0431 -0.1181 -0.0873
  744POPS   C2B 8386   4.254   9.814   7.578  0.0169  0.1062 -0.0846
  744POPS   C3B 8387   4.562   9.548   7.651  0.1158  0.1196 -0.0019
  744POPS   C4B 8388   4.819   9.264   7.940  0.2111  0.1020  0.0455
  745POPS   CNO 8389  17.678   1.923   6.745  0.1073 -0.0882 -0.1371
  745POPS   PO4 8390  17.196   1.958   6.843 -0.3158  0.0499  0.1971
  745POPS   GL1 8391  17.108   2.096   7.204  0.1474  0.2748 -0.1067
  745POPS   GL2 8392  16.864   1.903   7.253 -0.1441 -0.1174 -0.2817
  745POPS   C1A 8393  17.236   2.055   7.619 -0.0562 -0.0739  0.0145
  745POPS   D2A 8394  17.208   2.016   7.920 -0.0387 -0.0687 -0.1820
  745POPS   C3A 8395  17.155   2.143   8.292 -0.1631  0.2029  0.1127
  745POPS   C4A 8396  16.985   2.365   8.599 -0.0121 -0.1272  0.0108
  745POPS   C1B 8397  16.786   1.849   7.646 -0.1421  0.3409  0.0416
  745POPS   C2B 8398  16.704   1.967   8.018  0.0789  0.2540 -0.0506
  745POPS   C3B 8399  16.620   2.118   8.316 -0.3482  0.1341 -0.2027
  745POPS   C4B 8400  16.721   1.973   8.659  0.0053  0.1559  0.0397
  746POPS   CNO 8401   9.100  15.453   6.384  0.0258  0.0899  0.0078
  746POPS   PO4 8402   9.370  15.791   6.252  0.1306 -0.0690 -0.1747
  746POPS   GL1 8403   9.354  15.854   6.728 -0.4583 -0.1674  0.3307
  746POPS   GL2 8404   9.102  15.752   6.801 -0.0543  0.2758 -0.2623
  746POPS   C1A 8405   9.452  16.069   6.988 -0.2803  0.1357  0.2160
  746POPS   D2A 8406   9.542  16.147   7.376 -0.0380  0.0094 -0.0348
  746POPS   C3A 8407   9.889  16.000   7.688 -0.2138  0.0662  0.0088
  746POPS   C4A 8408  10.240  15.677   7.853  0.2124  0.2387  0.0585
  746POPS   C1B 8409   9.001  15.934   7.203 -0.1165 -0.1801  0.4851
  746POPS   C2B 8410   9.015  15.994   7.643  0.0937 -0.0683  0.1330
  746POPS   C3B 8411   8.950  15.618   7.915 -0.1180  0.1107  0.2143
  746POPS   C4B 8412   9.226  15.310   8.028 -0.0829 -0.1116  0.0521
  747POPS   CNO 8413   8.515  14.979   5.710 -0.0223 -0.0952  0.0372
  747POPS   PO4 8414   8.260  14.949   6.011 -0.3653 -0.2347  0.0576
  747POPS   GL1 8415   8.443  14.903   6.448 -0.1948  0.3127 -0.1511
  747POPS   GL2 8416   8.201  14.691   6.622 -0.0342  0.0549  0.0740
  747POPS   C1A 8417   8.705  14.874   6.880  0.2810 -0.0605 -0.0664
  747POPS   D2A 8418   8.647  14.877   7.241 -0.0249  0.1585  0.1177
  747POPS   C3A 8419   8.647  14.520   7.495  0.0656  0.0630  0.0120
  747POPS   C4A 8420   8.510  14.359   7.834 -0.2431 -0.1185 -0.0484
  747POPS   C1B 8421   8.145  14.732   7.028  0.1539 -0.0278 -0.1462
  747POPS   C2B 8422   8.153  14.547   7.438 -0.1289 -0.1148  0.0420
  747POPS   C3B 8423   8.031  14.607   7.959  0.0210  0.1305 -0.3214
  747POPS   C4B 8424   7.835  14.386   8.313 -0.1981 -0.4019  0.3900
  748POPS   CNO 8425  10.689   7.447   6.309  0.0503  0.1525  0.1149
  748POPS   PO4 8426  10.371   7.069   6.301  0.2430 -0.3060 -0.2105
  748POPS   GL1 8427  10.293   7.008   6.706  0.0521 -0.1442  0.1058
  748POPS   GL2 8428  10.005   7.041   6.826 -0.1424 -0.0959  0.1923
  748POPS   C1A 8429  10.305   6.878   7.166 -0.0631 -0.1929  0.0752
  748POPS   D2A 8430  10.224   7.074   7.548  0.0220 -0.0627  0.0045
  748POPS   C3A 8431  10.364   6.865   7.874 -0.0618  0.1350 -0.1999
  748POPS   C4A 8432  10.712   6.896   7.650  0.0128  0.1116 -0.0208
  748POPS   C1B 8433  10.116   7.293   7.108  0.1275 -0.1384 -0.1653
  748POPS   C2B 8434  10.126   7.533   7.467 -0.4126  0.2252  0.1284
  748POPS   C3B 8435  10.294   7.698   7.839 -0.0678 -0.0954  0.0875
  748POPS   C4B 8436  10.733   7.743   8.046 -0.1131  0.1107  0.2288
  749POPS   CNO 8437   0.172   7.490   7.047 -0.0289  0.3373 -0.2039
  749POPS   PO4 8438   0.100   7.144   7.293  0.2695  0.1337 -0.0625
  749POPS   GL1 8439  -0.205   7.375   7.476  0.0187  0.1736  0.4000
  749POPS   GL2 8440  -0.203   7.692   7.377 -0.0854 -0.2095 -0.0210
  749POPS   C1A 8441  -0.262   7.421   7.910  0.1834 -0.0698  0.3150
  749POPS   D2A 8442  -0.392   7.280   8.278  0.2023 -0.1696 -0.1948
  749POPS   C3A 8443  -0.735   7.001   8.362 -0.0989 -0.1725 -0.1396
  749POPS   C4A 8444  -0.819   6.660   8.618 -0.2783  0.1250 -0.0373
  749POPS   C1B 8445  -0.139   7.879   7.771  0.1173  0.2589  0.0095
  749POPS   C2B 8446  -0.293   8.232   8.054  0.0878  0.0412 -0.2079
  749POPS   C3B 8447  -0.160   8.325   8.468  0.3153 -0.0662 -0.2854
  749POPS   C4B 8448  -0.148   8.713   8.704  0.2784 -0.3357  0.3057
  750POPS   CNO 8449   7.955  11.657   5.853  0.1661 -0.0652  0.4635
  750POPS   PO4 8450   8.193  11.692   6.127  0.0582  0.2830 -0.3778
  750POPS   GL1 8451   8.184  11.777   6.499  0.0122  0.0996 -0.1745
  750POPS   GL2 8452   8.503  11.901   6.606 -0.0444  0.4249  0.0346
  750POPS   C1A 8453   8.096  12.249   6.630  0.2300  0.0659 -0.0550
  750POPS   D2A 8454   8.206  12.643   6.751  0.0601 -0.0255  0.2037
  750POPS   C3A 8455   8.247  12.720   7.199 -0.1075 -0.2895 -0.2653
  750POPS   C4A 8456   8.294  12.682   7.623 -0.0950 -0.1511 -0.0568
  750POPS   C1B 8457   8.628  11.930   7.016 -0.0179  0.1970 -0.1509
  750POPS   C2B 8458   8.790  11.823   7.471 -0.2845  0.0633 -0.4198
  750POPS   C3B 8459   8.765  11.829   7.906  0.0740  0.3167 -0.3456
  750POPS   C4B 8460   8.720  12.099   8.465  0.0816  0.0356 -0.1203
  751POPS   CNO 8461  16.754   7.035   7.000 -0.0094 -0.1894  0.2360
  751POPS   PO4 8462  16.404   7.160   6.895  0.4574 -0.1406  0.1546
  751POPS   GL1 8463  16.477   7.331   7.276 -0.2636 -0.2696 -0.1677
  751POPS   GL2 8464  16.201   7.176   7.338  0.1109 -0.0362  0.1266
  751POPS   C1A 8465  16.470   7.739   7.595 -0.0836 -0.2340  0.2274
  751POPS   D2A 8466  16.106   7.865   7.892 -0.0212 -0.2471 -0.0899
  751POPS   C3A 8467  16.079   7.832   8.263 -0.0535 -0.0903  0.1420
  751POPS   C4A 8468  16.312   8.023   8.550 -0.1023  0.0110  0.0561
  751POPS   C1B 8469  16.093   7.379   7.656  0.1551 -0.0652 -0.3577
  751POPS   C2B 8470  16.064   7.387   8.018  0.0406 -0.1067 -0.1178
  751POPS   C3B 8471  15.990   7.354   8.316 -0.1678  0.0398 -0.2330
  751POPS   C4B 8472  16.043   7.211   8.652  0.0012 -0.1381  0.1540
  752POPS   CNO 8473   7.059  14.566   5.899 -0.2798 -0.0170 -0.2520
  752POPS   PO4 8474   6.995  14.094   5.750  0.0850 -0.0597  0.2448
  752POPS   GL1 8475   7.183  14.197   6.224 -0.1340  0.1976  0.2374
  752POPS   GL2 8476   6.992  14.138   6.443  0.4558  0.4154  0.1904
  752POPS   C1A 8477   7.423  14.123   6.652  0.0708 -0.0062 -0.0949
  752POPS   D2A 8478   7.806  13.878   6.838  0.0098  0.0874 -0.1512
  752POPS   C3A 8479   7.800  13.544   7.209  0.1057 -0.1499 -0.3439
  752POPS   C4A 8480   8.145  13.496   7.624  0.1961  0.0529 -0.2030
  752POPS   C1B 8481   6.639  14.085   6.761 -0.3530  0.0351  0.0526
  752POPS   C2B 8482   6.773  14.093   7.153  0.1343 -0.3904  0.0245
  752POPS   C3B 8483   6.768  13.962   7.600  0.0303 -0.0762  0.1228
  752POPS   C4B 8484   6.864  14.004   7.952  0.1685  0.0643 -0.0641
  753POPS   CNO 8485  10.885  13.640   5.866  0.0997 -0.0961 -0.4283
  753POPS   PO4 8486  11.187  13.638   6.197 -0.0519 -0.1286  0.2626
  753POPS   GL1 8487  11.040  13.533   6.612 -0.2668 -0.1973  0.1744
  753POPS   GL2 8488  11.058  13.816   6.712  0.0865  0.1090 -0.1946
  753POPS   C1A 8489  10.811  13.300   6.791  0.0964  0.0155  0.3632
  753POPS   D2A 8490  10.722  13.261   7.178 -0.1376  0.1489  0.0516
  753POPS   C3A 8491  10.530  13.230   7.540  0.0577 -0.0232 -0.1871
  753POPS   C4A 8492  10.336  13.206   7.849 -0.1362  0.1297 -0.0082
  753POPS   C1B 8493  10.936  13.677   7.073 -0.0875 -0.2051 -0.2988
  753POPS   C2B 8494  10.751  13.674   7.471  0.2828 -0.0482 -0.1434
  753POPS   C3B 8495  10.512  13.719   7.839 -0.5216  0.0887 -0.2481
  753POPS   C4B 8496  10.208  13.893   8.167 -0.0055 -0.0630  0.2691
  754POPS   CNO 8497   7.002  13.575   5.677 -0.2453 -0.0790 -0.1155
  754POPS   PO4 8498   7.062  13.628   6.098  0.2216  0.2460 -0.0728
  754POPS   GL1 8499   7.183  13.635   6.495 -0.0176  0.0810  0.3922
  754POPS   GL2 8500   7.492  13.610   6.571 -0.0132  0.1025  0.2647
  754POPS   C1A 8501   7.101  13.807   6.861 -0.1087  0.0532 -0.0169
  754POPS   D2A 8502   7.149  13.789   7.242  0.0805 -0.0029 -0.0534
  754POPS   C3A 8503   7.547  13.936   7.295 -0.5158  0.2977  0.2168
  754POPS   C4A 8504   7.859  14.024   7.505  0.3584 -0.1042 -0.3220
  754POPS   C1B 8505   7.415  13.398   6.925 -0.0776 -0.1631  0.3508
  754POPS   C2B 8506   7.339  13.327   7.376  0.2103 -0.1429 -0.1685
  754POPS   C3B 8507   7.560  13.661   7.694  0.2026  0.1684 -0.1424
  754POPS   C4B 8508   7.698  13.978   7.996  0.0656 -0.0165  0.1766
  755POPS   CNO 8509   3.537   5.925   6.160 -0.1527  0.1483 -0.1828
  755POPS   PO4 8510   3.764   5.647   6.350  0.0776 -0.3152  0.0629
  755POPS   GL1 8511   4.010   5.649   6.756 -0.0838 -0.0392 -0.1830
  755POPS   GL2 8512   4.314   5.540   6.795 -0.1549 -0.2090 -0.3102
  755POPS   C1A 8513   4.084   5.692   7.198 -0.2506 -0.5715  0.0197
  755POPS   D2A 8514   4.221   5.674   7.594  0.0125 -0.0954  0.1520
  755POPS   C3A 8515   4.536   5.864   7.832 -0.1080  0.2433 -0.1469
  755POPS   C4A 8516   4.517   6.191   8.133 -0.1792 -0.1956 -0.0064
  755POPS   C1B 8517   4.571   5.722   7.030 -0.1959 -0.1270  0.2017
  755POPS   C2B 8518   4.776   5.750   7.400  0.0545 -0.0097 -0.0828
  755POPS   C3B 8519   4.980   5.557   7.663 -0.0170 -0.0945  0.1535
  755POPS   C4B 8520   5.274   5.266   7.896 -0.1116  0.2033 -0.3562
  756POPS   CNO 8521   5.359   7.180   6.513  0.2496  0.2016  0.2024
  756POPS   PO4 8522   5.386   6.836   6.170  0.0150  0.3822  0.0304
  756POPS   GL1 8523   5.354   6.502   6.515 -0.1364  0.4001  0.0437
  756POPS   GL2 8524   5.186   6.728   6.644 -0.1627 -0.0722 -0.0465
  756POPS   C1A 8525   5.245   6.289   6.910  0.0488 -0.1620  0.0638
  756POPS   D2A 8526   5.584   6.235   7.148  0.2572  0.1409 -0.1860
  756POPS   C3A 8527   5.583   6.280   7.683 -0.4457 -0.1265  0.1698
  756POPS   C4A 8528   5.828   6.173   8.086  0.0511  0.0591  0.4206
  756POPS   C1B 8529   4.895   6.675   6.949 -0.2084 -0.1994  0.0741
  756POPS   C2B 8530   4.900   6.729   7.378 -0.2407  0.0780  0.1247
  756POPS   C3B 8531   5.041   6.593   7.797  0.1200  0.1685 -0.0093
  756POPS   C4B 8532   5.349   6.351   8.129 -0.0155  0.0963 -0.0324
  757POPS   CNO 8533  12.940  11.106   6.201  0.1458  0.1467 -0.2272
  757POPS   PO4 8534  12.584  10.827   6.183  0.1607  0.2687 -0.0777
  757POPS   GL1 8535  12.663  10.963   6.582 -0.0929  0.0833 -0.1888
  757POPS   GL2 8536  12.912  10.874   6.833  0.2787 -0.0763  0.3282
  757POPS   C1A 8537  12.407  10.852   6.969 -0.3734 -0.0682 -0.1312
  757POPS   D2A 8538  12.408  10.813   7.449  0.3095  0.0042  0.1014
  757POPS   C3A 8539  12.500  10.692   7.959 -0.2138  0.1401  0.0782
  757POPS   C4A 8540  12.674  10.819   8.353 -0.2225  0.0887  0.1340
  757POPS   C1B 8541  12.901  10.768   7.228  0.2873  0.2824 -0.1225
  757POPS   C2B 8542  12.836  10.694   7.646 -0.3286  0.1591  0.1988
  757POPS   C3B 8543  13.016  10.686   7.997 -0.0928  0.3270  0.0050
  757POPS   C4B 8544  13.170  10.892   8.360  0.2205  0.0974  0.0298
  758POPS   CNO 8545  10.159  13.173   5.660 -0.2640 -0.1820 -0.0398
  758POPS   PO4 8546   9.717  13.074   5.821 -0.2885  0.0918  0.1515
  758POPS   GL1 8547   9.981  12.979   6.173  0.2812  0.0053 -0.0746
  758POPS   GL2 8548   9.935  13.265   6.377 -0.1008  0.0418  0.3046
  758POPS   C1A 8549   9.958  12.721   6.548 -0.0330  0.0915  0.0366
  758POPS   D2A 8550  10.065  12.611   6.870 -0.1552  0.1477 -0.1680
  758POPS   C3A 8551   9.881  12.697   7.224 -0.1541  0.1996  0.0489
  758POPS   C4A 8552   9.439  12.762   7.227 -0.0672 -0.0030 -0.4100
  758POPS   C1B 8553   9.943  13.490   6.790 -0.1540  0.2033 -0.0798
  758POPS   C2B 8554   9.725  13.360   7.167 -0.1843 -0.0515  0.2240
  758POPS   C3B 8555   9.368  13.216   7.490 -0.0378 -0.1680  0.0882
  758POPS   C4B 8556   8.947  13.363   7.631 -0.0854 -0.1686  0.1508
  759POPS   CNO 8557  10.495   3.430   5.981  0.0683 -0.1977  0.2419
  759POPS   PO4 8558  10.460   3.201   6.257 -0.2510 -0.1607 -0.0484
  759POPS   GL1 8559  10.415   2.974   6.536 -0.2561 -0.3444 -0.0912
  759POPS   GL2 8560  10.096   3.047   6.640  0.0524 -0.0657 -0.3124
  759POPS   C1A 8561  10.659   2.720   6.642 -0.2814 -0.2651  0.0483
  759POPS   D2A 8562  10.747   2.326   6.849 -0.2109  0.1479  0.1617
  759POPS   C3A 8563  11.134   2.342   7.150 -0.0190 -0.1396 -0.2912
  759POPS   C4A 8564  11.156   2.212   7.662 -0.2023  0.3534  0.1266
  759POPS   C1B 8565   9.876   3.111   7.036  0.1130 -0.1524 -0.3934
  759POPS   C2B 8566   9.903   3.331   7.335 -0.0570 -0.1835 -0.0616
  759POPS   C3B 8567  10.064   3.367   7.790 -0.2285 -0.0282 -0.0863
  759POPS   C4B 8568  10.313   3.205   8.098  0.3302 -0.0833 -0.0051
  760POPS   CNO 8569   4.358   8.793   5.968 -0.0174  0.3109  0.2236
  760POPS   PO4 8570   4.319   8.713   6.428 -0.1922  0.1046  0.0122
  760POPS   GL1 8571   4.425   8.661   6.889  0.3880 -0.0852 -0.3673
  760POPS   GL2 8572   4.514   8.985   6.936  0.0249 -0.1481  0.1080
  760POPS   C1A 8573   4.351   8.599   7.328  0.2422  0.3239  0.0098
  760POPS   D2A 8574   4.521   8.635   7.706  0.1625 -0.1591 -0.1693
  760POPS   C3A 8575   4.710   8.788   7.988  0.2564  0.1178  0.0077
  760POPS   C4A 8576   4.847   8.930   8.359 -0.3340  0.0325 -0.2459
  760POPS   C1B 8577   4.839   8.777   7.168  0.0557 -0.2466  0.0645
  760POPS   C2B 8578   4.989   8.762   7.526 -0.3011 -0.0939 -0.1934
  760POPS   C3B 8579   5.144   8.631   7.919 -0.1116 -0.1363  0.0387
  760POPS   C4B 8580   5.285   8.650   8.305 -0.1818 -0.0035 -0.2570
  761POPS   CNO 8581   7.255  16.822   6.069 -0.0504 -0.1238 -0.0686
  761POPS   PO4 8582   7.248  17.259   6.248  0.1826 -0.1931 -0.0226
  761POPS   GL1 8583   7.457  17.464   6.598 -0.2115  0.0578  0.1728
  761POPS   GL2 8584   7.207  17.766   6.553  0.1054  0.0542 -0.2402
  761POPS   C1A 8585   7.404  17.530   7.038  0.1232  0.0941  0.1693
  761POPS   D2A 8586   7.349  17.632   7.431 -0.0600  0.2235  0.1765
  761POPS   C3A 8587   7.644  17.820   7.706  0.2775  0.3087  0.2682
  761POPS   C4A 8588   7.787  17.747   8.110  0.1606  0.2866 -0.2276
  761POPS   C1B 8589   7.539  17.957   6.746 -0.0388 -0.2497 -0.2297
  761POPS   C2B 8590   7.736  17.861   7.178  0.1578  0.0358 -0.0079
  761POPS   C3B 8591   8.112  17.981   7.574  0.1508  0.3224  0.3646
  761POPS   C4B 8592   8.244  17.734   7.849 -0.1260  0.3508 -0.2149
  762POPS   CNO 8593  17.732   2.851   6.346  0.0013  0.0051  0.0863
  762POPS   PO4 8594  17.998   2.971   6.726  0.0919 -0.0216 -0.0799
  762POPS   GL1 8595  17.890   2.753   7.025 -0.0187 -0.1164  0.1387
  762POPS   GL2 8596  18.225   2.586   7.006  0.0032  0.2249  0.1998
  762POPS   C1A 8597  17.823   2.641   7.434  0.1959  0.1808  0.1292
  762POPS   D2A 8598  17.680   2.246   7.706 -0.1114  0.3040 -0.4596
  762POPS   C3A 8599  17.745   2.209   8.170  0.0335  0.1412  0.1089
  762POPS   C4A 8600  17.822   2.365   8.553 -0.1154  0.2383 -0.0989
  762POPS   C1B 8601  18.194   2.303   7.432 -0.2228 -0.1082 -0.0358
  762POPS   C2B 8602  18.166   2.385   7.874 -0.1347  0.0371 -0.1263
  762POPS   C3B 8603  18.298   2.240   8.246 -0.1265 -0.1550 -0.1888
  762POPS   C4B 8604  18.539   1.929   8.442 -0.2104 -0.0881 -0.1648
  763POPS   CNO 8605   5.183  12.287   6.459 -0.1412  0.0110  0.0515
  763POPS   PO4 8606   4.911  11.981   6.244  0.0868 -0.2702 -0.1114
  763POPS   GL1 8607   4.658  11.919   6.578 -0.2452 -0.1439 -0.1033
  763POPS   GL2 8608   4.455  11.657   6.635 -0.0540 -0.1953  0.0518
  763POPS   C1A 8609   4.926  11.896   6.980 -0.4088  0.2577 -0.0438
  763POPS   D2A 8610   4.987  11.823   7.371  0.0096 -0.0814 -0.1931
  763POPS   C3A 8611   5.105  12.102   7.637 -0.0118 -0.1359  0.1082
  763POPS   C4A 8612   4.830  12.426   7.856  0.1087  0.2495  0.0078
  763POPS   C1B 8613   4.454  11.746   7.079  0.0388 -0.1905 -0.0745
  763POPS   C2B 8614   4.528  11.675   7.532 -0.2352 -0.0864 -0.0039
  763POPS   C3B 8615   4.517  11.674   7.954 -0.1350  0.0330  0.2113
  763POPS   C4B 8616   4.286  11.542   8.371 -0.1252 -0.1053 -0.0932
  764POPS   CNO 8617   6.466   6.178   6.047  0.2594 -0.2489 -0.2687
  764POPS   PO4 8618   6.739   6.557   6.146  0.2386 -0.2710 -0.2314
  764POPS   GL1 8619   6.894   6.432   6.525 -0.0647 -0.0424 -0.3797
  764POPS   GL2 8620   7.184   6.215   6.549 -0.1338 -0.1815 -0.0816
  764POPS   C1A 8621   7.074   6.490   6.959 -0.0699  0.0575 -0.1423
  764POPS   D2A 8622   7.259   6.715   7.227 -0.3678  0.1328  0.1042
  764POPS   C3A 8623   7.154   6.582   7.691 -0.2611 -0.2432 -0.1155
  764POPS   C4A 8624   7.294   6.326   8.050  0.1041  0.0689  0.0217
  764POPS   C1B 8625   7.528   6.218   6.756 -0.0802 -0.2375  0.1271
  764POPS   C2B 8626   7.703   6.248   7.239  0.4443  0.2484  0.0355
  764POPS   C3B 8627   7.634   6.216   7.678 -0.0537 -0.0487 -0.3040
  764POPS   C4B 8628   7.781   6.429   8.053 -0.1975 -0.1452  0.0339
  765POPS   CNO 8629  10.543   2.779   5.960  0.0602 -0.0615  0.0246
  765POPS   PO4 8630  10.232   2.511   5.868 -0.0513 -0.0751 -0.1669
  765POPS   GL1 8631  10.220   2.383   6.269  0.0571 -0.1343  0.0234
  765POPS   GL2 8632   9.937   2.464   6.448  0.2128  0.0113 -0.3537
  765POPS   C1A 8633  10.382   2.044   6.532 -0.1687 -0.0655  0.0153
  765POPS   D2A 8634  10.292   1.840   6.941  0.1167 -0.7076 -0.1883
  765POPS   C3A 8635  10.389   1.831   7.401  0.0853 -0.1335  0.2251
  765POPS   C4A 8636  10.425   1.572   7.730 -0.4763  0.0887 -0.2319
  765POPS   C1B 8637  10.151   2.504   6.814 -0.0506  0.4453  0.0672
  765POPS   C2B 8638  10.367   2.360   7.187  0.1098 -0.1995  0.1542
  765POPS   C3B 8639  10.172   2.430   7.608 -0.0241 -0.0616  0.1273
  765POPS   C4B 8640   9.999   2.282   7.956 -0.4100 -0.2439 -0.0929
  766POPS   CNO 8641   4.033   7.934   5.930 -0.1903 -0.1746  0.1252
  766POPS   PO4 8642   3.716   7.999   6.251  0.0092 -0.1457 -0.0202
  766POPS   GL1 8643   3.524   7.791   6.616 -0.1913 -0.0547 -0.0185
  766POPS   GL2 8644   3.730   7.997   6.819 -0.1172  0.1417 -0.0941
  766POPS   C1A 8645   3.360   7.678   7.019 -0.3718 -0.4310 -0.3754
  766POPS   D2A 8646   3.145   7.437   7.254 -0.0886  0.1731  0.1471
  766POPS   C3A 8647   3.101   7.564   7.666 -0.3368 -0.0226 -0.0407
  766POPS   C4A 8648   3.119   7.350   8.095  0.1184  0.2892  0.0442
  766POPS   C1B 8649   3.861   8.349   7.123  0.0563  0.2576  0.0621
  766POPS   C2B 8650   3.955   8.366   7.462  0.0585  0.1394  0.0542
  766POPS   C3B 8651   3.984   8.499   7.907  0.1798  0.1877 -0.1864
  766POPS   C4B 8652   4.268   8.546   8.195 -0.0780 -0.1540 -0.1323
  767POPS   CNO 8653   7.436  13.360   5.774  0.1735 -0.0949  0.1577
  767POPS   PO4 8654   7.860  13.479   5.752 -0.2624  0.1905  0.0655
  767POPS   GL1 8655   7.898  13.476   6.253  0.0830 -0.0101  0.2110
  767POPS   GL2 8656   8.013  13.744   6.359 -0.1009  0.2998 -0.1857
  767POPS   C1A 8657   7.946  13.427   6.759 -0.0009 -0.1275  0.3277
  767POPS   D2A 8658   8.305  13.443   7.083  0.1393  0.1742  0.4076
  767POPS   C3A 8659   8.480  13.176   7.347 -0.3488 -0.0397 -0.0451
  767POPS   C4A 8660   8.492  13.140   7.829 -0.2716 -0.0807 -0.1018
  767POPS   C1B 8661   8.321  13.779   6.651  0.1760 -0.2034  0.0753
  767POPS   C2B 8662   8.666  13.926   6.699  0.1111  0.0946 -0.2436
  767POPS   C3B 8663   9.088  14.080   6.692 -0.1768 -0.0459 -0.3401
  767POPS   C4B 8664   9.398  13.798   6.771  0.0757  0.0634  0.1895
  768POPS   CNO 8665   0.426   3.846   6.535  0.0257  0.0674 -0.0712
  768POPS   PO4 8666   0.777   3.918   6.777 -0.1911 -0.3982 -0.2735
  768POPS   GL1 8667   0.729   4.020   7.200 -0.1055  0.2086 -0.1446
  768POPS   GL2 8668   0.428   4.251   7.291 -0.2482 -0.1380 -0.0158
  768POPS   C1A 8669   0.598   3.825   7.531  0.1646 -0.0596 -0.1595
  768POPS   D2A 8670   0.605   3.646   7.878 -0.2060  0.1823  0.1403
  768POPS   C3A 8671   0.782   3.895   8.201  0.0546  0.0691 -0.0041
  768POPS   C4A 8672   1.193   3.852   8.465 -0.0781 -0.2975 -0.3324
  768POPS   C1B 8673   0.146   3.988   7.604  0.3709 -0.2483 -0.0300
  768POPS   C2B 8674   0.222   3.810   8.089  0.0000 -0.1863  0.3031
  768POPS   C3B 8675   0.457   3.594   8.492 -0.0809 -0.2779 -0.2630
  768POPS   C4B 8676   0.808   3.419   8.593 -0.1276  0.2282 -0.2315
  769POPS   CNO 8677   4.356  16.909   6.209  0.0917 -0.0555  0.0638
  769POPS   PO4 8678   4.459  16.757   6.535  0.0927  0.3592  0.1013
  769POPS   GL1 8679   4.413  16.908   6.906  0.2767  0.2007 -0.0502
  769POPS   GL2 8680   4.262  16.766   7.012  0.0104  0.1158 -0.0557
  769POPS   C1A 8681   4.692  16.748   7.291  0.2962  0.0630  0.4025
  769POPS   D2A 8682   5.107  16.904   7.424 -0.0174  0.4071 -0.2093
  769POPS   C3A 8683   5.123  16.793   7.872 -0.0482  0.0071  0.0252
  769POPS   C4A 8684   5.279  16.609   8.255 -0.0990  0.0452 -0.3294
  769POPS   C1B 8685   4.229  16.677   7.433  0.2045 -0.1183 -0.0281
  769POPS   C2B 8686   4.586  16.719   7.749  0.0383 -0.2048 -0.3483
  769POPS   C3B 8687   4.750  16.598   8.059  0.1010  0.2948  0.1259
  769POPS   C4B 8688   4.699  16.651   8.463  0.1731 -0.3523 -0.1196
  770POPS   CNO 8689  16.899   1.092   6.016 -0.0251  0.0901  0.0334
  770POPS   PO4 8690  16.942   1.193   6.525 -0.2107 -0.1907 -0.1152
  770POPS   GL1 8691  16.932   1.192   7.051  0.0208  0.0671 -0.1542
  770POPS   GL2 8692  17.266   1.113   7.174  0.1691  0.5214 -0.2157
  770POPS   C1A 8693  16.872   1.396   7.435 -0.0647 -0.0604  0.0982
  770POPS   D2A 8694  16.873   1.432   7.969  0.1640 -0.0226  0.2274
  770POPS   C3A 8695  16.960   1.690   8.306  0.0184  0.2754 -0.0149
  770POPS   C4A 8696  17.139   1.787   8.704 -0.0923  0.2146 -0.4177
  770POPS   C1B 8697  17.196   1.137   7.696 -0.0447  0.0194  0.2007
  770POPS   C2B 8698  17.131   0.880   8.120 -0.1659  0.1775 -0.2453
  770POPS   C3B 8699  16.937   0.746   8.511  0.1903 -0.0202 -0.0800
  770POPS   C4B 8700  16.842   0.594   8.880 -0.1138 -0.2416 -0.5365
  771POPS   CNO 8701   6.832  16.209   6.270  0.1223 -0.0000  0.2300
  771POPS   PO4 8702   7.170  16.397   6.328  0.2583  0.0486  0.1271
  771POPS   GL1 8703   7.244  16.601   6.725 -0.0585 -0.2305 -0.1111
  771POPS   GL2 8704   7.276  16.914   6.623  0.0059  0.2928  0.0401
  771POPS   C1A 8705   7.356  16.622   7.106  0.0154 -0.0760  0.1003
  771POPS   D2A 8706   7.441  16.607   7.558 -0.2208 -0.0792 -0.1939
  771POPS   C3A 8707   7.252  16.441   7.874 -0.1140  0.1857  0.0933
  771POPS   C4A 8708   7.299  16.374   8.292 -0.5275  0.0545  0.0620
  771POPS   C1B 8709   7.484  17.062   6.985  0.0980  0.0914 -0.2058
  771POPS   C2B 8710   7.559  17.119   7.454  0.3466 -0.0119  0.1204
  771POPS   C3B 8711   7.569  17.348   7.877  0.0825 -0.0131 -0.1189
  771POPS   C4B 8712   7.787  17.298   8.288  0.1667  0.1923 -0.0826
  772POPS   CNO 8713   7.987   0.902   5.954 -0.1586  0.1249 -0.1151
  772POPS   PO4 8714   7.992   0.461   6.028  0.0140  0.1413  0.1438
  772POPS   GL1 8715   8.012   0.680   6.452 -0.0514 -0.1497 -0.1512
  772POPS   GL2 8716   8.292   0.788   6.451  0.0903 -0.2002 -0.0438
  772POPS   C1A 8717   8.019   0.700   6.890 -0.1117 -0.2512 -0.0546
  772POPS   D2A 8718   7.835   0.743   7.293 -0.2122  0.2214 -0.1126
  772POPS   C3A 8719   7.438   0.994   7.249 -0.2422  0.0888  0.0563
  772POPS   C4A 8720   7.204   1.094   7.612 -0.0408  0.3446 -0.0957
  772POPS   C1B 8721   8.335   1.056   6.810 -0.4495  0.0664 -0.4501
  772POPS   C2B 8722   8.259   0.991   7.302  0.0817  0.1330  0.0173
  772POPS   C3B 8723   8.198   1.005   7.755 -0.1110 -0.1481 -0.3016
  772POPS   C4B 8724   8.179   1.118   8.097  0.1668  0.2276 -0.1313
  773POPS   CNO 8725  12.285   4.879   6.467  0.0522  0.0692  0.0433
  773POPS   PO4 8726  12.723   4.733   6.370  0.0376 -0.2345  0.3790
  773POPS   GL1 8727  12.870   4.535   6.622  0.1002  0.0003  0.2586
  773POPS   GL2 8728  12.560   4.457   6.820  0.1731  0.1155  0.1943
  773POPS   C1A 8729  13.059   4.286   7.032  0.3780 -0.3451  0.2010
  773POPS   D2A 8730  13.336   3.954   7.055 -0.2413  0.2331  0.0661
  773POPS   C3A 8731  13.709   3.973   7.344  0.2388  0.1748  0.2838
  773POPS   C4A 8732  13.932   3.727   7.514  0.1555 -0.1353  0.2802
  773POPS   C1B 8733  12.447   4.515   7.340 -0.0135  0.0066  0.1683
  773POPS   C2B 8734  12.368   4.355   7.772  0.0095 -0.1663  0.1600
  773POPS   C3B 8735  12.450   4.387   8.198 -0.1776  0.1950  0.2620
  773POPS   C4B 8736  12.240   4.454   8.582 -0.5118  0.0450 -0.0111
  774POPS   CNO 8737   8.800   7.275   5.782  0.2433  0.2895  0.1337
  774POPS   PO4 8738   8.534   7.165   6.179  0.2331  0.2808  0.1222
  774POPS   GL1 8739   8.684   7.228   6.545  0.1831  0.3627 -0.0032
  774POPS   GL2 8740   8.410   7.325   6.669  0.2789  0.2421  0.0665
  774POPS   C1A 8741   8.788   7.706   6.821  0.0407 -0.1192 -0.1249
  774POPS   D2A 8742   8.828   8.061   6.853  0.0184  0.0189 -0.0618
  774POPS   C3A 8743   8.836   8.163   7.315 -0.1222  0.1504  0.1027
  774POPS   C4A 8744   8.998   8.031   7.765  0.1657  0.0708 -0.1761
  774POPS   C1B 8745   8.569   7.323   7.036  0.1003 -0.0771  0.1370
  774POPS   C2B 8746   8.663   7.446   7.422 -0.2697 -0.1058  0.0350
  774POPS   C3B 8747   8.852   7.529   7.822 -0.0102  0.0762 -0.2071
  774POPS   C4B 8748   8.975   7.718   8.210  0.0772  0.4382  0.1867
  775POPS   CNO 8749   8.984   3.211   5.622 -0.0302  0.1110  0.0009
  775POPS   PO4 8750   9.291   3.502   5.878 -0.1722 -0.0879  0.1280
  775POPS   GL1 8751   9.292   3.620   6.273  0.4040  0.1602 -0.3311
  775POPS   GL2 8752   9.579   3.631   6.389 -0.0036 -0.0493 -0.0635
  775POPS   C1A 8753   9.016   3.688   6.587 -0.2504  0.2111 -0.1346
  775POPS   D2A 8754   8.759   3.802   6.969 -0.0876 -0.1607 -0.2181
  775POPS   C3A 8755   8.779   3.889   7.420 -0.3126 -0.1169 -0.0042
  775POPS   C4A 8756   8.634   4.244   7.730  0.2463  0.2003 -0.2498
  775POPS   C1B 8757   9.552   3.463   6.774 -0.0366 -0.1967  0.1487
  775POPS   C2B 8758   9.399   3.473   7.189 -0.0359 -0.2457 -0.0508
  775POPS   C3B 8759   9.215   3.627   7.627 -0.2706 -0.0201 -0.1569
  775POPS   C4B 8760   8.804   3.735   7.902  0.1044  0.5011 -0.0959
  776POPS   CNO 8761  17.857  11.266   5.471 -0.4065 -0.1593  0.1193
  776POPS   PO4 8762  17.555  11.356   5.765  0.2331  0.2363  0.3214
  776POPS   GL1 8763  17.618  11.554   6.170  0.0238 -0.1084  0.0167
  776POPS   GL2 8764  17.636  11.262   6.422 -0.0007  0.0908 -0.2684
  776POPS   C1A 8765  17.787  11.783   6.493 -0.2152 -0.0957 -0.0857
  776POPS   D2A 8766  17.640  11.804   6.886 -0.2398  0.2695  0.0666
  776POPS   C3A 8767  17.446  11.891   7.302  0.2625 -0.0350 -0.0832
  776POPS   C4A 8768  17.118  11.682   7.347 -0.1659 -0.0028 -0.2919
  776POPS   C1B 8769  17.670  11.362   6.798 -0.2800 -0.0948 -0.0088
  776POPS   C2B 8770  17.601  11.372   7.192  0.0881 -0.1766 -0.0877
  776POPS   C3B 8771  17.587  11.398   7.600 -0.1934 -0.0356  0.0421
  776POPS   C4B 8772  17.459  11.279   7.992 -0.5244  0.0904 -0.1228
  777POPS   CNO 8773   7.711  12.573   6.128  0.1828  0.1768  0.2030
  777POPS   PO4 8774   7.444  12.302   6.226 -0.0286 -0.1776 -0.0405
  777POPS   GL1 8775   7.597  12.219   6.633  0.0924  0.1354 -0.1658
  777POPS   GL2 8776   7.575  12.530   6.685  0.0237  0.0049 -0.0458
  777POPS   C1A 8777   7.544  12.101   7.180  0.1294  0.2108  0.1536
  777POPS   D2A 8778   7.464  12.142   7.532  0.1510  0.0233 -0.1236
  777POPS   C3A 8779   7.433  11.839   7.795 -0.0503 -0.3133 -0.0078
  777POPS   C4A 8780   7.047  11.613   7.963  0.0187 -0.0714 -0.2503
  777POPS   C1B 8781   7.734  12.531   7.074 -0.2373  0.2046  0.1726
  777POPS   C2B 8782   7.848  12.419   7.395 -0.5241  0.1271 -0.0654
  777POPS   C3B 8783   7.850  12.530   7.793 -0.0098 -0.3566  0.1635
  777POPS   C4B 8784   7.789  12.193   7.937 -0.1161 -0.4403  0.1407
  778POPS   CNO 8785  12.955  14.096   6.119  0.0418  0.3195 -0.0129
  778POPS   PO4 8786  12.953  13.641   6.067 -0.2200  0.0123 -0.1509
  778POPS   GL1 8787  13.236  13.698   6.456  0.0743 -0.0413  0.0564
  778POPS   GL2 8788  13.220  13.400   6.628  0.0483 -0.1134  0.0650
  778POPS   C1A 8789  13.315  13.749   6.946 -0.0433  0.0778  0.1535
  778POPS   D2A 8790  13.351  13.841   7.410 -0.2721  0.1974  0.0398
  778POPS   C3A 8791  13.055  13.978   7.735 -0.1154  0.0403  0.1004
  778POPS   C4A 8792  13.037  14.286   8.032 -0.0406  0.1474 -0.1536
  778POPS   C1B 8793  12.977  13.385   6.940  0.3067 -0.0828 -0.1513
  778POPS   C2B 8794  13.064  13.428   7.336 -0.1685  0.0911 -0.1960
  778POPS   C3B 8795  12.958  13.507   7.740 -0.0121 -0.0071  0.3808
  778POPS   C4B 8796  13.048  13.288   8.065 -0.0273  0.0132 -0.1923
  779POPS   CNO 8797  13.221   9.813   5.869  0.1487 -0.1926  0.0825
  779POPS   PO4 8798  12.865  10.042   6.004 -0.1718 -0.0005 -0.1580
  779POPS   GL1 8799  12.716  10.114   6.470 -0.2986 -0.1856 -0.4199
  779POPS   GL2 8800  12.783   9.795   6.747 -0.3824  0.0133 -0.3110
  779POPS   C1A 8801  12.953  10.348   6.817 -0.0441  0.1037  0.0999
  779POPS   D2A 8802  13.074  10.242   7.225 -0.0209 -0.0562  0.0898
  779POPS   C3A 8803  13.129  10.281   7.644 -0.1590  0.0506  0.2528
  779POPS   C4A 8804  13.491  10.458   7.911 -0.0953  0.1668 -0.0868
  779POPS   C1B 8805  12.947   9.761   7.200 -0.2475 -0.0375  0.0787
  779POPS   C2B 8806  13.042   9.752   7.623  0.3204  0.3936  0.0227
  779POPS   C3B 8807  13.083   9.684   7.943 -0.1888 -0.1060  0.0409
  779POPS   C4B 8808  12.872   9.496   8.284 -0.2014  0.0076  0.2780
  780POPS   CNO 8809   4.546  13.712   5.928 -0.0140 -0.3340 -0.1804
  780POPS   PO4 8810   4.903  13.625   6.125 -0.0251 -0.2237  0.2347
  780POPS   GL1 8811   5.030  13.324   6.478  0.1134  0.1138 -0.0933
  780POPS   GL2 8812   4.963  13.104   6.654 -0.3638  0.0665 -0.0047
  780POPS   C1A 8813   5.207  13.485   6.871 -0.1239 -0.1192 -0.0881
  780POPS   D2A 8814   5.220  13.724   7.247  0.0307  0.1582  0.0448
  780POPS   C3A 8815   5.261  13.665   7.725 -0.2492 -0.1519  0.1533
  780POPS   C4A 8816   5.121  13.343   7.992 -0.1396  0.1523  0.1063
  780POPS   C1B 8817   5.072  13.048   7.106 -0.1828 -0.3929  0.1290
  780POPS   C2B 8818   4.946  13.240   7.466  0.2967 -0.1401 -0.1423
  780POPS   C3B 8819   4.775  13.082   7.821 -0.0948  0.1559  0.1090
  780POPS   C4B 8820   4.582  13.374   8.140  0.1715  0.3007 -0.1607
  781POPS   CNO 8821   3.966   3.039   6.302 -0.2222  0.0698  0.1746
  781POPS   PO4 8822   4.255   3.331   6.559  0.3066 -0.0176 -0.0325
  781POPS   GL1 8823   4.543   3.185   6.841  0.1366  0.5078  0.1649
  781POPS   GL2 8824   4.641   2.835   6.903 -0.0049  0.1406 -0.1478
  781POPS   C1A 8825   4.684   3.356   7.246  0.0054 -0.2129  0.2441
  781POPS   D2A 8826   4.772   3.741   7.523 -0.2548 -0.0554 -0.1598
  781POPS   C3A 8827   4.503   3.901   7.754 -0.1684  0.0180 -0.1131
  781POPS   C4A 8828   4.199   4.019   8.178 -0.0847  0.0430  0.0149
  781POPS   C1B 8829   4.622   2.806   7.290  0.0017  0.0187 -0.0734
  781POPS   C2B 8830   4.618   3.042   7.651 -0.0538 -0.0707  0.0896
  781POPS   C3B 8831   4.668   3.394   7.836  0.0196 -0.1073  0.0101
  781POPS   C4B 8832   4.477   3.526   8.197  0.0236  0.0727 -0.0688
  782POPS   CNO 8833   0.357   2.309   6.094  0.1324 -0.0316 -0.3919
  782POPS   PO4 8834   0.501   2.184   6.523  0.1684  0.0132  0.0262
  782POPS   GL1 8835   0.576   2.165   6.980 -0.2260  0.0659 -0.1431
  782POPS   GL2 8836   0.666   2.458   7.124 -0.0561 -0.1768 -0.2323
  782POPS   C1A 8837   0.534   2.012   7.396  0.0981 -0.4403  0.1847
  782POPS   D2A 8838   0.524   2.036   7.902 -0.1454 -0.4208  0.0312
  782POPS   C3A 8839   0.827   2.143   8.120 -0.3043 -0.2098 -0.0339
  782POPS   C4A 8840   0.754   2.395   8.461 -0.1355 -0.0207  0.1237
  782POPS   C1B 8841   0.667   2.460   7.588  0.1707  0.0641  0.0585
  782POPS   C2B 8842   0.807   2.753   8.058 -0.3415  0.2051 -0.1248
  782POPS   C3B 8843   1.068   3.012   8.406 -0.1093  0.0582 -0.2947
  782POPS   C4B 8844   1.022   2.994   8.967  0.1404 -0.2831  0.1212
  783POPS   CNO 8845   6.086   4.533   5.916  0.3543  0.1753  0.0379
  783POPS   PO4 8846   6.397   4.692   5.749 -0.1204 -0.3025 -0.0425
  783POPS   GL1 8847   6.486   4.701   6.206 -0.2595 -0.0513 -0.2307
  783POPS   GL2 8848   6.642   4.895   6.245 -0.0487  0.2749  0.1184
  783POPS   C1A 8849   6.486   4.458   6.585  0.1355 -0.0845 -0.1993
  783POPS   D2A 8850   6.484   4.553   7.049  0.1841 -0.0108  0.2827
  783POPS   C3A 8851   6.108   4.722   7.343 -0.0455 -0.0136  0.1176
  783POPS   C4A 8852   6.119   4.973   7.758 -0.0366 -0.1186  0.2949
  783POPS   C1B 8853   6.499   4.935   6.688 -0.0338  0.0638  0.0865
  783POPS   C2B 8854   6.483   5.057   7.149  0.1089  0.3499 -0.1328
  783POPS   C3B 8855   6.585   5.013   7.551  0.1631 -0.3625 -0.1963
  783POPS   C4B 8856   6.579   5.150   8.018 -0.0261 -0.1303 -0.0165
  784POPS   CNO 8857   8.045  10.244   6.128  0.0597 -0.2929  0.0073
  784POPS   PO4 8858   8.510  10.350   6.341 -0.1875 -0.1399  0.3500
  784POPS   GL1 8859   8.878  10.302   6.629  0.0617 -0.0780 -0.1268
  784POPS   GL2 8860   8.824  10.696   6.790 -0.0009  0.0609 -0.0365
  784POPS   C1A 8861   8.988  10.268   7.058  0.0858  0.0820  0.0818
  784POPS   D2A 8862   8.992  10.362   7.545  0.1220  0.4484 -0.0496
  784POPS   C3A 8863   8.869  10.356   7.944  0.5781  0.2249  0.3481
  784POPS   C4A 8864   8.864  10.326   8.424 -0.1275  0.0332 -0.0330
  784POPS   C1B 8865   8.864  10.792   7.165 -0.1137  0.2255 -0.0589
  784POPS   C2B 8866   8.953  10.852   7.559 -0.0008  0.0238  0.1250
  784POPS   C3B 8867   8.840  10.867   7.983 -0.1500 -0.0587 -0.2844
  784POPS   C4B 8868   9.077  10.858   8.356 -0.0194 -0.0727 -0.3281
  785POPS   CNO 8869   0.166  16.448   6.182  0.0677  0.2576  0.2211
  785POPS   PO4 8870   0.493  16.344   6.464 -0.0496  0.0798 -0.0516
  785POPS   GL1 8871   0.353  16.518   6.901  0.1072 -0.1100 -0.2477
  785POPS   GL2 8872   0.423  16.831   6.991  0.1441 -0.3129 -0.1150
  785POPS   C1A 8873   0.383  16.187   7.212  0.2087 -0.0932  0.0767
  785POPS   D2A 8874   0.639  16.001   7.457  0.3043  0.2182 -0.0762
  785POPS   C3A 8875   0.555  15.902   7.845 -0.0579 -0.3027 -0.2260
  785POPS   C4A 8876   0.381  15.680   8.245  0.0609 -0.1318  0.0361
  785POPS   C1B 8877   0.521  17.065   7.289 -0.2014  0.0258  0.1472
  785POPS   C2B 8878   0.657  17.103   7.683 -0.0773  0.0656  0.1067
  785POPS   C3B 8879   0.539  17.113   8.088  0.0024 -0.3157 -0.0453
  785POPS   C4B 8880   0.312  17.185   8.472 -0.0108 -0.0296 -0.4009
  786POPS   CNO 8881  17.984   8.254   6.429  0.0606  0.1469  0.1771
  786POPS   PO4 8882  17.791   8.517   6.789  0.1129 -0.0850 -0.1374
  786POPS   GL1 8883  17.501   8.687   7.138  0.3251 -0.0753  0.1452
  786POPS   GL2 8884  17.137   8.694   7.210  0.2259 -0.0707 -0.0001
  786POPS   C1A 8885  17.485   8.768   7.603 -0.1676 -0.1794  0.0469
  786POPS   D2A 8886  17.560   8.644   7.968  0.1274 -0.0608 -0.0208
  786POPS   C3A 8887  17.714   8.757   8.264  0.0163  0.0556  0.0103
  786POPS   C4A 8888  17.741   9.110   8.541  0.0789  0.1091 -0.0868
  786POPS   C1B 8889  17.006   8.713   7.687 -0.1837  0.3882 -0.1950
  786POPS   C2B 8890  16.644   8.640   7.949 -0.1045  0.2306  0.1368
  786POPS   C3B 8891  16.684   8.798   8.381 -0.3182  0.1444 -0.0087
  786POPS   C4B 8892  16.586   9.019   8.589 -0.0858  0.1179  0.1531
  787POPS   CNO 8893  15.799   3.084   6.808 -0.2253 -0.1551 -0.0590
  787POPS   PO4 8894  15.681   2.644   6.609 -0.1561 -0.3160  0.0234
  787POPS   GL1 8895  15.695   2.449   6.999 -0.0061  0.1757 -0.1201
  787POPS   GL2 8896  15.991   2.574   7.007 -0.0422  0.2198 -0.0938
  787POPS   C1A 8897  15.762   2.330   7.370  0.0316 -0.1642 -0.1187
  787POPS   D2A 8898  15.838   2.319   7.750 -0.0426 -0.0154 -0.0381
  787POPS   C3A 8899  15.513   2.211   8.024 -0.0182 -0.1163  0.0570
  787POPS   C4A 8900  15.227   2.231   8.369  0.0065 -0.0561 -0.0743
  787POPS   C1B 8901  16.252   2.563   7.384  0.1801 -0.2810  0.0585
  787POPS   C2B 8902  16.171   2.646   7.915 -0.1174  0.0656 -0.1039
  787POPS   C3B 8903  16.243   2.639   8.307  0.0695 -0.2329 -0.0078
  787POPS   C4B 8904  16.479   2.506   8.701  0.0103  0.2720  0.2602
  788POPS   CNO 8905  11.812   8.873   6.242 -0.1961 -0.2729 -0.0685
  788POPS   PO4 8906  12.135   8.528   6.242 -0.1343  0.4331  0.1830
  788POPS   GL1 8907  12.105   8.579   6.595 -0.1210  0.1950  0.3693
  788POPS   GL2 8908  11.801   8.563   6.683  0.1171 -0.0813 -0.1162
  788POPS   C1A 8909  12.337   8.618   6.890 -0.0113 -0.1850 -0.0610
  788POPS   D2A 8910  12.469   8.938   7.129  0.0063  0.3808 -0.0063
  788POPS   C3A 8911  12.411   9.054   7.507 -0.0267  0.1400 -0.0195
  788POPS   C4A 8912  12.604   8.817   7.882  0.2809  0.1072  0.1485
  788POPS   C1B 8913  11.893   8.733   7.185 -0.1544 -0.1983 -0.2357
  788POPS   C2B 8914  11.945   8.833   7.560  0.1791 -0.0288 -0.1447
  788POPS   C3B 8915  11.999   8.996   7.931  0.3123  0.2337  0.0581
  788POPS   C4B 8916  11.938   9.333   8.287  0.1615  0.0620  0.2863
  789POPS   CNO 8917  15.402   3.095   6.503  0.1445 -0.1351 -0.0159
  789POPS   PO4 8918  15.599   3.466   6.575 -0.0112 -0.2928 -0.2641
  789POPS   GL1 8919  15.544   3.653   6.891 -0.0828 -0.0074  0.0823
  789POPS   GL2 8920  15.607   3.369   7.174 -0.1341  0.3180  0.0975
  789POPS   C1A 8921  15.589   3.886   7.327 -0.0204 -0.0340 -0.1571
  789POPS   D2A 8922  15.563   4.184   7.537  0.1715 -0.0028  0.0455
  789POPS   C3A 8923  15.618   4.058   7.969  0.0450  0.2827  0.0697
  789POPS   C4A 8924  15.580   4.250   8.365 -0.1513  0.2518  0.0541
  789POPS   C1B 8925  15.661   3.465   7.639 -0.0152 -0.0008  0.1471
  789POPS   C2B 8926  15.770   3.499   8.011 -0.0111  0.1441  0.2426
  789POPS   C3B 8927  15.869   3.254   8.349  0.0600 -0.1855  0.2238
  789POPS   C4B 8928  15.916   2.961   8.641  0.0113  0.3245  0.2859
  790POPS   CNO 8929   1.138   1.735   6.362  0.0377  0.0888 -0.0082
  790POPS   PO4 8930   1.026   1.296   6.628  0.2167 -0.3427  0.0201
  790POPS   GL1 8931   0.774   1.408   7.016  0.1216  0.0825 -0.1661
  790POPS   GL2 8932   0.720   1.124   7.164 -0.0747  0.0884  0.1222
  790POPS   C1A 8933   0.609   1.524   7.473 -0.0162  0.1137  0.0311
  790POPS   D2A 8934   0.445   1.585   7.795  0.2784  0.0354 -0.0311
  790POPS   C3A 8935   0.386   1.513   8.229  0.1963  0.1865 -0.2751
  790POPS   C4A 8936   0.262   1.263   8.449  0.1363 -0.0266  0.0697
  790POPS   C1B 8937   0.620   1.053   7.454  0.0879 -0.1292 -0.3012
  790POPS   C2B 8938   0.647   1.157   7.904 -0.2804 -0.0282  0.0334
  790POPS   C3B 8939   0.919   1.206   8.253  0.1330  0.0128  0.0157
  790POPS   C4B 8940   1.212   1.353   8.576 -0.1539 -0.2933  0.0048
  791POPS   CNO 8941  10.928   1.034   5.636 -0.0625 -0.0228 -0.0677
  791POPS   PO4 8942  10.882   0.816   6.009 -0.0057 -0.0560 -0.0978
  791POPS   GL1 8943  10.567   0.824   6.316 -0.0474 -0.0797  0.2170
  791POPS   GL2 8944  10.183   0.820   6.346  0.0405 -0.2482  0.1089
  791POPS   C1A 8945  10.663   0.859   6.762  0.3074 -0.2607  0.0170
  791POPS   D2A 8946  10.849   0.942   7.170 -0.1021 -0.0802  0.1871
  791POPS   C3A 8947  10.653   0.997   7.665 -0.0069 -0.4957 -0.0572
  791POPS   C4A 8948  10.563   1.062   8.110 -0.1072 -0.0832  0.0889
  791POPS   C1B 8949  10.162   0.868   6.808 -0.0496 -0.1847  0.0105
  791POPS   C2B 8950  10.244   0.949   7.228  0.2407 -0.2394  0.0293
  791POPS   C3B 8951  10.142   1.156   7.626 -0.0351  0.3931  0.2182
  791POPS   C4B 8952  10.104   1.289   7.943 -0.3962 -0.0447 -0.2601
  792POPS   CNO 8953   2.816  17.290   6.148  0.0737 -0.0269 -0.1617
  792POPS   PO4 8954   2.740  17.514   6.560  0.0085  0.1486 -0.0604
  792POPS   GL1 8955   2.840  17.265   6.927  0.1341  0.1707 -0.1229
  792POPS   GL2 8956   2.546  17.128   7.071 -0.0412  0.0251  0.0584
  792POPS   C1A 8957   3.042  17.262   7.406 -0.0840 -0.4355 -0.2020
  792POPS   D2A 8958   2.948  17.204   7.805 -0.2091 -0.1327 -0.2604
  792POPS   C3A 8959   3.263  17.239   8.235 -0.0632  0.1681 -0.0137
  792POPS   C4A 8960   3.507  17.471   8.596 -0.1665 -0.1477 -0.0553
  792POPS   C1B 8961   2.503  17.081   7.576 -0.0279 -0.1259 -0.0834
  792POPS   C2B 8962   2.340  17.034   7.973  0.3722  0.2526  0.0975
  792POPS   C3B 8963   2.537  17.253   8.194  0.0783 -0.1269  0.1509
  792POPS   C4B 8964   2.930  17.630   8.109  0.1979  0.1718 -0.1346
  793POPS   CNO 8965  14.763  17.566   6.117  0.0570 -0.0500 -0.2761
  793POPS   PO4 8966  14.362  17.291   6.208  0.2677  0.0608 -0.1637
  793POPS   GL1 8967  14.346  17.209   6.683 -0.1153 -0.1309 -0.1943
  793POPS   GL2 8968  14.378  17.509   6.832 -0.0289  0.0337 -0.1198
  793POPS   C1A 8969  13.928  17.368   6.853 -0.1646 -0.0110 -0.0323
  793POPS   D2A 8970  13.539  17.484   6.973 -0.2723 -0.0229 -0.2130
  793POPS   C3A 8971  13.422  17.572   7.353  0.2032  0.0895  0.0893
  793POPS   C4A 8972  13.507  17.546   7.736  0.2629  0.1511 -0.2944
  793POPS   C1B 8973  14.673  17.222   7.034 -0.0503  0.1125 -0.1443
  793POPS   C2B 8974  14.635  16.840   7.246  0.0506  0.0474  0.2119
  793POPS   C3B 8975  14.433  16.783   7.717 -0.2967  0.0229 -0.0261
  793POPS   C4B 8976  14.110  16.721   7.951 -0.1130  0.0748 -0.1754
  794POPS   CNO 8977   7.294  10.901   5.824 -0.4613  0.2106 -0.0486
  794POPS   PO4 8978   7.499  10.942   6.191 -0.0917 -0.0169 -0.3147
  794POPS   GL1 8979   7.735  11.119   6.546  0.0661  0.1277  0.1088
  794POPS   GL2 8980   8.023  11.215   6.409 -0.0017 -0.2737  0.0154
  794POPS   C1A 8981   7.750  11.004   6.933 -0.0742 -0.1716 -0.3707
  794POPS   D2A 8982   7.827  11.191   7.278  0.2327 -0.1456 -0.2562
  794POPS   C3A 8983   7.949  11.157   7.695 -0.0016 -0.2950 -0.4777
  794POPS   C4A 8984   7.710  10.964   8.088 -0.0852 -0.0757  0.0428
  794POPS   C1B 8985   8.147  11.367   6.864  0.2660  0.1722 -0.2440
  794POPS   C2B 8986   8.268  11.449   7.261  0.3748  0.0589  0.3385
  794POPS   C3B 8987   8.349  11.483   7.571 -0.1457 -0.0047 -0.0531
  794POPS   C4B 8988   8.420  11.436   7.959  0.0131 -0.0082 -0.0220
  795POPS   CNO 8989   3.060  16.448   6.533  0.0488 -0.0049 -0.0589
  795POPS   PO4 8990   3.263  16.188   6.499 -0.0296 -0.1643 -0.2614
  795POPS   GL1 8991   3.201  15.925   6.874  0.0221  0.0744  0.1077
  795POPS   GL2 8992   2.945  16.143   6.917 -0.1811  0.3295  0.2657
  795POPS   C1A 8993   3.292  15.762   7.210 -0.0619  0.3575 -0.2660
  795POPS   D2A 8994   3.509  15.400   7.411 -0.1743 -0.1945  0.2788
  795POPS   C3A 8995   3.471  15.321   7.905 -0.2839  0.1547  0.1206
  795POPS   C4A 8996   3.524  15.189   8.283  0.0854 -0.0694 -0.1567
  795POPS   C1B 8997   3.039  16.123   7.409  0.0226 -0.0807 -0.1326
  795POPS   C2B 8998   2.869  16.035   7.842 -0.0293 -0.3585  0.0355
  795POPS   C3B 8999   2.982  15.834   8.141 -0.2115 -0.0918  0.0593
  795POPS   C4B 9000   3.123  15.929   8.460 -0.0276  0.1071 -0.3365
  796POPS   CNO 9001   5.995   9.484   6.103 -0.0363  0.2019  0.0604
  796POPS   PO4 9002   6.116   9.690   6.435 -0.0506  0.0180 -0.0137
  796POPS   GL1 9003   6.047   9.311   6.726 -0.2891  0.1074 -0.1145
  796POPS   GL2 9004   6.361   9.359   6.781 -0.1146  0.0874 -0.1698
  796POPS   C1A 9005   5.894   9.189   7.092  0.2205 -0.0807  0.1411
  796POPS   D2A 9006   5.734   9.098   7.435 -0.1780 -0.2183 -0.0570
  796POPS   C3A 9007   5.432   9.001   7.616 -0.0902 -0.0426 -0.2603
  796POPS   C4A 9008   5.301   9.179   7.974  0.1216 -0.1538  0.0549
  796POPS   C1B 9009   6.317   9.476   7.216 -0.0136 -0.2098 -0.2998
  796POPS   C2B 9010   6.162   9.426   7.563  0.2043 -0.2082 -0.1111
  796POPS   C3B 9011   5.872   9.238   7.862 -0.0398  0.1448 -0.1114
  796POPS   C4B 9012   5.736   8.930   8.123 -0.0495  0.1416 -0.0220
  797POPS   CNO 9013   1.113  12.544   5.983 -0.1696 -0.0611 -0.0312
  797POPS   PO4 9014   0.784  12.812   6.300  0.0047 -0.4544 -0.2964
  797POPS   GL1 9015   0.849  12.389   6.442  0.1196  0.2067 -0.2789
  797POPS   GL2 9016   0.909  12.124   6.173 -0.1316 -0.1172 -0.0661
  797POPS   C1A 9017   0.992  12.024   6.662 -0.1603 -0.3524 -0.0769
  797POPS   D2A 9018   1.013  11.852   7.041 -0.2120  0.6695 -0.2028
  797POPS   C3A 9019   1.274  11.412   7.128  0.0275  0.0989 -0.3019
  797POPS   C4A 9020   1.491  11.148   7.361  0.2365 -0.3659 -0.1433
  797POPS   C1B 9021   1.200  11.806   6.273 -0.0158 -0.0781  0.2134
  797POPS   C2B 9022   1.298  11.356   6.268 -0.1961 -0.2610  0.1573
  797POPS   C3B 9023   1.199  11.019   6.665 -0.2441  0.4736 -0.1647
  797POPS   C4B 9024   1.143  10.903   7.081 -0.0213  0.0475  0.0835
  798POPS   CNO 9025   2.941  11.050   5.910 -0.1083  0.0936 -0.0994
  798POPS   PO4 9026   2.926  11.407   6.182  0.0519  0.2880 -0.1070
  798POPS   GL1 9027   2.947  11.153   6.632  0.2073  0.0873  0.0855
  798POPS   GL2 9028   2.962  10.825   6.795  0.0816  0.1417  0.0921
  798POPS   C1A 9029   2.594  11.221   6.893 -0.1553 -0.2247 -0.2336
  798POPS   D2A 9030   2.192  11.213   6.953  0.0879 -0.0880  0.0251
  798POPS   C3A 9031   2.068  11.108   7.322  0.1057  0.0867 -0.2921
  798POPS   C4A 9032   2.134  11.039   7.754 -0.0324  0.4290 -0.2210
  798POPS   C1B 9033   2.812  10.826   7.152 -0.0035  0.1037 -0.0092
  798POPS   C2B 9034   2.530  11.187   7.403  0.0893 -0.0807 -0.0605
  798POPS   C3B 9035   2.587  11.464   7.656 -0.4251  0.1360 -0.0678
  798POPS   C4B 9036   2.762  11.372   8.066  0.0549  0.4159 -0.1925
  799POPS   CNO 9037   6.830   5.499   5.459 -0.1784 -0.0079 -0.2090
  799POPS   PO4 9038   7.189   5.352   5.702 -0.0335 -0.0590 -0.1123
  799POPS   GL1 9039   7.500   5.271   6.030  0.0023 -0.0162  0.0802
  799POPS   GL2 9040   7.603   4.983   6.104 -0.0894  0.0948 -0.0259
  799POPS   C1A 9041   7.674   5.454   6.341  0.2635  0.0059 -0.3525
  799POPS   D2A 9042   7.765   5.812   6.611 -0.0299  0.3588  0.1395
  799POPS   C3A 9043   7.858   6.184   6.374 -0.0173 -0.1624 -0.2971
  799POPS   C4A 9044   7.900   6.590   6.554 -0.0394  0.2168  0.1600
  799POPS   C1B 9045   7.444   5.060   6.478  0.0130  0.4849 -0.0535
  799POPS   C2B 9046   7.389   4.906   6.823  0.0602  0.1127  0.2950
  799POPS   C3B 9047   7.381   5.055   7.191  0.0283  0.2300 -0.2345
  799POPS   C4B 9048   7.544   4.984   7.635 -0.1521  0.0993 -0.3080
  800POPS   CNO 9049  10.805  15.741   6.204  0.2309  0.0689  0.0340
  800POPS   PO4 9050  11.179  15.562   6.172  0.0719  0.1433 -0.2705
  800POPS   GL1 9051  11.115  15.690   6.621 -0.1981  0.0548  0.2688
  800POPS   GL2 9052  10.925  15.513   6.675 -0.0855 -0.2554 -0.2353
  800POPS   C1A 9053  11.251  15.611   7.078 -0.1892 -0.0641  0.2547
  800POPS   D2A 9054  11.157  15.510   7.526  0.1234  0.1404 -0.0819
  800POPS   C3A 9055  11.381  15.634   7.835 -0.1193  0.1706  0.1857
  800POPS   C4A 9056  11.740  15.663   7.912  0.1897 -0.0435  0.0774
  800POPS   C1B 9057  11.016  15.203   6.916 -0.0019  0.2429 -0.1576
  800POPS   C2B 9058  10.895  15.076   7.320  0.0430  0.0358 -0.0805
  800POPS   C3B 9059  10.722  14.909   7.735 -0.1581  0.0798  0.1697
  800POPS   C4B 9060  10.893  14.635   8.065 -0.0674  0.2453 -0.3245
  801POPS   CNO 9061   3.127   5.673   6.916  0.2003 -0.0638 -0.4063
  801POPS   PO4 9062   2.970   5.365   6.717  0.3357  0.0634  0.2193
  801POPS   GL1 9063   3.138   5.181   7.104  0.0713 -0.0733 -0.1484
  801POPS   GL2 9064   3.399   5.033   7.037  0.0545 -0.3396 -0.0124
  801POPS   C1A 9065   3.374   5.107   7.587  0.1547 -0.0404  0.2943
  801POPS   D2A 9066   3.349   4.996   8.134  0.0376 -0.1146  0.2096
  801POPS   C3A 9067   3.646   4.869   8.359 -0.0769  0.2404  0.1412
  801POPS   C4A 9068   3.831   4.701   8.756 -0.0192  0.0085 -0.1852
  801POPS   C1B 9069   3.677   4.767   7.386 -0.1467 -0.1168  0.0545
  801POPS   C2B 9070   3.659   4.779   7.817  0.0424  0.0885 -0.1508
  801POPS   C3B 9071   3.777   5.193   7.934  0.0333  0.2944 -0.0932
  801POPS   C4B 9072   3.702   5.401   8.276  0.3012 -0.2962  0.1298
  802POPS   CNO 9073  14.619  13.090   5.830 -0.0605  0.2328 -0.4706
  802POPS   PO4 9074  14.188  12.862   5.915  0.1667  0.0576  0.0390
  802POPS   GL1 9075  14.116  12.764   6.352 -0.2115  0.3770  0.0949
  802POPS   GL2 9076  13.797  12.671   6.334  0.0330  0.0670 -0.1026
  802POPS   C1A 9077  14.354  12.860   6.707  0.0289 -0.1395 -0.2215
  802POPS   D2A 9078  14.467  12.924   7.179 -0.2070 -0.1231  0.0634
  802POPS   C3A 9079  14.801  12.558   7.390  0.0055  0.0334 -0.2700
  802POPS   C4A 9080  15.013  12.396   7.721  0.0076  0.1462  0.0490
  802POPS   C1B 9081  13.806  12.751   6.805  0.0563  0.0393 -0.1843
  802POPS   C2B 9082  13.868  12.989   7.166  0.0843 -0.0404 -0.2422
  802POPS   C3B 9083  13.834  12.969   7.627  0.1995  0.2036 -0.0436
  802POPS   C4B 9084  13.860  12.703   8.046  0.0816  0.0402 -0.0579
  803POPS   CNO 9085   0.034   5.087   6.936  0.0003 -0.0220 -0.1938
  803POPS   PO4 9086   0.397   5.391   7.050  0.0248 -0.2613  0.4222
  803POPS   GL1 9087   0.170   5.421   7.392  0.1182  0.1740 -0.2564
  803POPS   GL2 9088   0.072   5.768   7.419 -0.0684  0.2294  0.2116
  803POPS   C1A 9089   0.213   5.468   7.862  0.1324 -0.2956 -0.1184
  803POPS   D2A 9090   0.271   5.381   8.262 -0.1455  0.3147 -0.2475
  803POPS   C3A 9091   0.469   5.482   8.698 -0.0770  0.1376 -0.0769
  803POPS   C4A 9092   0.302   5.463   9.077  0.0255  0.2190 -0.1362
  803POPS   C1B 9093   0.250   6.006   7.708 -0.2573  0.1478  0.0071
  803POPS   C2B 9094   0.186   6.189   8.065 -0.0492  0.1612  0.3779
  803POPS   C3B 9095   0.084   6.529   8.371 -0.0193  0.4003 -0.4628
  803POPS   C4B 9096  -0.059   6.534   8.768 -0.0347 -0.2022 -0.1183
  804POPS   CNO 9097   4.445   6.211   5.914 -0.1959 -0.1470  0.5548
  804POPS   PO4 9098   4.385   6.207   6.377 -0.1678  0.1326  0.1378
  804POPS   GL1 9099   4.320   6.050   6.808  0.0273  0.1111  0.1234
  804POPS   GL2 9100   3.979   6.222   6.991 -0.0128  0.1677  0.0767
  804POPS   C1A 9101   4.340   6.088   7.314  0.0764 -0.1975  0.0042
  804POPS   D2A 9102   3.984   6.273   7.663  0.1329  0.0106 -0.1165
  804POPS   C3A 9103   4.003   6.611   7.954 -0.1549  0.1011  0.4401
  804POPS   C4A 9104   4.137   6.960   8.196  0.0507 -0.0356 -0.1888
  804POPS   C1B 9105   3.601   6.442   7.233 -0.0931 -0.0884  0.0980
  804POPS   C2B 9106   3.635   6.686   7.619 -0.3532 -0.1508  0.3150
  804POPS   C3B 9107   3.660   6.943   8.025 -0.2089 -0.2055 -0.2714
  804POPS   C4B 9108   3.758   7.198   8.383 -0.1097 -0.0893  0.0495
  805POPS   CNO 9109   4.659   9.431   6.653  0.2435 -0.1060 -0.1563
  805POPS   PO4 9110   4.363   9.741   6.527  0.2928  0.4134 -0.1230
  805POPS   GL1 9111   4.156   9.551   6.800 -0.1708 -0.0642 -0.1958
  805POPS   GL2 9112   4.174   9.258   6.740  0.1740 -0.0576  0.0263
  805POPS   C1A 9113   4.232   9.375   7.244 -0.2140  0.1055  0.6431
  805POPS   D2A 9114   4.445   9.089   7.437  0.0914 -0.1718 -0.1372
  805POPS   C3A 9115   4.266   9.016   7.874 -0.1658 -0.1037 -0.1185
  805POPS   C4A 9116   4.333   9.085   8.310 -0.0199  0.0144  0.1346
  805POPS   C1B 9117   3.984   8.893   7.020 -0.2390  0.3003 -0.2202
  805POPS   C2B 9118   3.932   8.840   7.453  0.1468  0.1496  0.2644
  805POPS   C3B 9119   3.725   8.987   7.952 -0.1014 -0.0613 -0.0885
  805POPS   C4B 9120   3.850   9.191   8.276  0.3633  0.1040 -0.3343
  806POPS   CNO 9121  13.685   4.943   6.954  0.2474  0.0150 -0.2714
  806POPS   PO4 9122  13.480   4.729   6.752 -0.0999  0.1326 -0.0501
  806POPS   GL1 9123  13.135   4.778   6.989 -0.0717  0.0109 -0.1152
  806POPS   GL2 9124  13.229   5.160   7.009 -0.1749 -0.1548 -0.0630
  806POPS   C1A 9125  12.922   4.717   7.345 -0.0310 -0.2369  0.1288
  806POPS   D2A 9126  12.827   4.559   7.716 -0.0142 -0.0383 -0.1871
  806POPS   C3A 9127  12.753   4.786   8.067 -0.1456 -0.0133  0.2877
  806POPS   C4A 9128  12.460   4.905   8.467  0.3705 -0.0988  0.2257
  806POPS   C1B 9129  13.352   4.980   7.386  0.1362  0.0826  0.0178
  806POPS   C2B 9130  13.371   4.716   7.819  0.1083  0.2716 -0.0155
  806POPS   C3B 9131  13.215   4.598   8.172  0.1241 -0.3283 -0.1374
  806POPS   C4B 9132  12.921   4.273   8.267  0.1570 -0.1096 -0.2880
  807POPS   CNO 9133   3.228  17.322   6.588 -0.1478  0.2950 -0.1903
  807POPS   PO4 9134   3.581  17.241   6.521 -0.0538 -0.0780  0.3075
  807POPS   GL1 9135   3.606  17.151   6.915 -0.2675  0.0916  0.3027
  807POPS   GL2 9136   3.388  17.358   7.070 -0.2396  0.2158  0.2774
  807POPS   C1A 9137   3.900  17.047   7.245  0.4245  0.0347 -0.1240
  807POPS   D2A 9138   3.858  17.124   7.664  0.3334 -0.0877 -0.0958
  807POPS   C3A 9139   3.907  17.402   7.958 -0.1547  0.0766 -0.1899
  807POPS   C4A 9140   3.856  17.653   8.353 -0.0450 -0.0282  0.0645
  807POPS   C1B 9141   3.482  17.446   7.482 -0.2032  0.2423 -0.0983
  807POPS   C2B 9142   3.415  17.484   7.849 -0.0485 -0.2935 -0.0495
  807POPS   C3B 9143   3.367  17.853   8.157 -0.1693 -0.2428  0.1824
  807POPS   C4B 9144   3.650  18.082   8.334 -0.0872 -0.1161  0.2968
  808POPS   CNO 9145   0.396   4.643   6.484  0.2562 -0.2466  0.1570
  808POPS   PO4 9146   0.145   4.640   6.739 -0.0134  0.2859  0.0512
  808POPS   GL1 9147   0.237   4.672   7.199 -0.1345  0.1338 -0.2058
  808POPS   GL2 9148   0.361   4.971   7.307  0.0162 -0.2009  0.2791
  808POPS   C1A 9149   0.074   4.481   7.522 -0.0418 -0.2473 -0.0170
  808POPS   D2A 9150  -0.205   4.290   7.797 -0.0711  0.0139 -0.0952
  808POPS   C3A 9151  -0.074   4.228   8.157 -0.0948 -0.2049  0.0716
  808POPS   C4A 9152   0.119   4.327   8.626  0.0054  0.4180 -0.0931
  808POPS   C1B 9153   0.542   5.141   7.660 -0.0586 -0.1163 -0.0184
  808POPS   C2B 9154   0.725   4.949   8.030  0.1431  0.0607 -0.2909
  808POPS   C3B 9155   0.703   5.087   8.464 -0.2329  0.1749  0.0224
  808POPS   C4B 9156   0.885   5.134   8.809 -0.1541 -0.0315  0.0222
  809YOPS   CNO 9157   2.552   3.389   7.092 -0.0725  0.0498 -0.0127
  809YOPS   PO4 9158   2.751   3.605   6.784 -0.1699  0.1404  0.0914
  809YOPS   GL1 9159   3.054   3.605   7.038  0.2674 -0.1718  0.4623
  809YOPS   GL2 9160   3.036   3.364   7.160  0.1260  0.0740  0.0113
  809YOPS   C1A 9161   3.357   3.662   7.397  0.1706 -0.0652  0.1159
  809YOPS   D2A 9162   3.364   3.685   7.871  0.0654  0.2380  0.1583
  809YOPS   C3A 9163   3.375   3.986   8.152  0.0259  0.3790 -0.0483
  809YOPS   C4A 9164   3.223   4.027   8.518 -0.2404 -0.0713 -0.0475
  809YOPS   C1B 9165   3.218   3.237   7.604  0.2995 -0.1927 -0.1657
  809YOPS   C2B 9166   3.008   3.141   8.050 -0.1012  0.0948  0.1060
  809YOPS   D3B 9167   2.682   3.295   8.317 -0.0113  0.0066 -0.1417
  809YOPS   C4B 9168   2.506   3.619   8.342  0.0213  0.1541 -0.0086
  810YOPS   CNO 9169  10.961   8.971   5.839 -0.1989 -0.1115  0.0214
  810YOPS   PO4 9170  11.303   8.883   6.104 -0.0447  0.1089 -0.0516
  810YOPS   GL1 9171  11.190   9.033   6.469 -0.0033 -0.0564  0.2416
  810YOPS   GL2 9172  11.514   8.915   6.627  0.0182  0.0743 -0.1357
  810YOPS   C1A 9173  10.883   9.027   6.754 -0.0773  0.1833  0.1243
  810YOPS   D2A 9174  10.776   8.884   7.146  0.0281  0.1177 -0.0593
  810YOPS   C3A 9175  11.014   8.848   7.525 -0.0139  0.4627  0.1300
  810YOPS   C4A 9176  10.759   8.640   7.844  0.0845 -0.0073 -0.1198
  810YOPS   C1B 9177  11.526   9.068   6.965 -0.2574 -0.1983  0.0331
  810YOPS   C2B 9178  11.507   9.035   7.417  0.2328 -0.0601  0.1589
  810YOPS   D3B 9179  11.470   9.116   7.810  0.1788  0.0889  0.1475
  810YOPS   C4B 9180  11.147   8.872   8.049  0.0861 -0.0055  0.0728
  811YOPS   CNO 9181  14.066  14.657   5.849 -0.0274  0.0247  0.1518
  811YOPS   PO4 9182  13.855  14.344   6.133 -0.0530  0.1321 -0.1742
  811YOPS   GL1 9183  13.733  14.274   6.451  0.0361  0.4295  0.0346
  811YOPS   GL2 9184  13.691  13.895   6.492 -0.1447  0.0739 -0.0760
  811YOPS   C1A 9185  14.024  14.438   6.811 -0.0952 -0.3268 -0.0086
  811YOPS   D2A 9186  14.106  14.240   7.201 -0.2588 -0.0541  0.1696
  811YOPS   C3A 9187  14.115  14.366   7.667  0.0961  0.1585  0.2597
  811YOPS   C4A 9188  14.048  14.060   7.983 -0.4393 -0.1961 -0.2114
  811YOPS   C1B 9189  13.762  13.911   6.924  0.0472 -0.2807  0.1788
  811YOPS   C2B 9190  13.840  13.786   7.259  0.0478 -0.0976  0.1806
  811YOPS   D3B 9191  13.807  13.798   7.651  0.1611 -0.2388 -0.2173
  811YOPS   C4B 9192  13.543  14.136   7.862  0.1715  0.2586  0.2326
  812YOPS   CNO 9193   0.027   6.108   6.663  0.1781 -0.2359 -0.2149
  812YOPS   PO4 9194  -0.357   5.871   7.014 -0.0364 -0.0790 -0.1385
  812YOPS   GL1 9195  -0.467   5.992   7.372  0.2269 -0.0858 -0.2530
  812YOPS   GL2 9196  -0.767   5.933   7.519  0.0971  0.1677  0.2473
  812YOPS   C1A 9197  -0.286   5.892   7.821 -0.1547  0.0697 -0.1868
  812YOPS   D2A 9198  -0.090   5.768   8.167 -0.2536 -0.0707 -0.0437
  812YOPS   C3A 9199  -0.041   5.478   8.605 -0.0960  0.1436  0.0354
  812YOPS   C4A 9200  -0.173   5.708   9.019  0.1667 -0.1733 -0.0490
  812YOPS   C1B 9201  -0.914   5.761   7.836 -0.0104  0.0795 -0.0898
  812YOPS   C2B 9202  -0.625   5.789   8.138  0.3301 -0.0963  0.1329
  812YOPS   D3B 9203  -0.475   5.697   8.522  0.0659 -0.0454 -0.4879
  812YOPS   C4B 9204  -0.673   5.926   8.908  0.1022  0.0595  0.0268
  813YOPS   CNO 9205   6.547  16.972   6.677  0.3939  0.2974  0.0730
  813YOPS   PO4 9206   6.592  17.326   6.331  0.1054 -0.1298  0.1425
  813YOPS   GL1 9207   6.529  17.555   6.646 -0.0234 -0.2035 -0.0314
  813YOPS   GL2 9208   6.710  17.876   6.596  0.0450 -0.0996 -0.0605
  813YOPS   C1A 9209   6.420  17.334   7.053  0.5223 -0.2314 -0.1841
  813YOPS   D2A 9210   6.382  17.302   7.486  0.0754 -0.1808 -0.1652
  813YOPS   C3A 9211   6.630  17.267   7.847 -0.3246 -0.1036 -0.1103
  813YOPS   C4A 9212   7.021  17.433   7.914 -0.0357  0.1697 -0.1242
  813YOPS   C1B 9213   6.773  17.748   7.045  0.2866  0.0044  0.2173
  813YOPS   C2B 9214   6.847  17.584   7.410 -0.0566  0.2870 -0.0682
  813YOPS   D3B 9215   6.721  17.841   7.798  0.1687  0.2297  0.3355
  813YOPS   C4B 9216   6.809  17.728   8.257  0.1068  0.0714 -0.4208
  814YOPS   CNO 9217  17.149  13.290   6.070 -0.0352  0.3459 -0.0083
  814YOPS   PO4 9218  16.797  13.039   5.977 -0.2353  0.0014 -0.1603
  814YOPS   GL1 9219  16.750  12.846   6.364  0.0756 -0.2946 -0.5912
  814YOPS   GL2 9220  16.952  12.480   6.467 -0.2556  0.3631 -0.0013
  814YOPS   C1A 9221  16.666  12.905   6.812 -0.0232  0.0951 -0.0812
  814YOPS   D2A 9222  16.598  12.875   7.115 -0.0563  0.2730 -0.1179
  814YOPS   C3A 9223  16.623  12.944   7.560  0.1452 -0.2499  0.2470
  814YOPS   C4A 9224  16.413  12.829   7.837  0.0944  0.2378  0.2833
  814YOPS   C1B 9225  16.937  12.527   6.944 -0.2824  0.0058 -0.1025
  814YOPS   C2B 9226  16.988  12.165   7.273 -0.0279 -0.0307 -0.1629
  814YOPS   D3B 9227  16.866  11.993   7.712  0.0458  0.2672  0.0133
  814YOPS   C4B 9228  17.158  11.726   7.982 -0.1738 -0.0093 -0.1139
  815YOPS   CNO 9229  15.936   9.324   6.183  0.1338  0.3199  0.0633
  815YOPS   PO4 9230  15.591   9.308   6.390  0.1436  0.1159 -0.0377
  815YOPS   GL1 9231  15.697   9.071   6.795  0.1067 -0.0932 -0.0795
  815YOPS   GL2 9232  15.947   8.787   6.879 -0.2208 -0.1300 -0.3463
  815YOPS   C1A 9233  15.688   9.014   7.233 -0.0468 -0.1816 -0.2130
  815YOPS   D2A 9234  15.667   9.152   7.667  0.0503 -0.0952 -0.0042
  815YOPS   C3A 9235  15.877   9.237   8.030 -0.0106 -0.1958 -0.0022
  815YOPS   C4A 9236  15.808   9.658   8.334 -0.3859 -0.1114 -0.1239
  815YOPS   C1B 9237  16.029   8.644   7.307  0.0517 -0.0730  0.2266
  815YOPS   C2B 9238  15.934   8.755   7.668 -0.3494 -0.0495 -0.5137
  815YOPS   D3B 9239  15.729   8.732   8.035  0.0629  0.0032 -0.1824
  815YOPS   C4B 9240  15.400   9.130   8.112 -0.1077  0.2218 -0.1282
  816YOPS   CNO 9241  13.385  12.834   5.701  0.1289  0.0315  0.2961
  816YOPS   PO4 9242  13.381  12.632   6.084 -0.2049  0.0130 -0.1010
  816YOPS   GL1 9243  13.377  12.443   6.523 -0.1944 -0.2446  0.0645
  816YOPS   GL2 9244  13.604  12.285   6.692 -0.1241 -0.0573 -0.0644
  816YOPS   C1A 9245  13.136  12.363   6.933  0.0412 -0.1565  0.2115
  816YOPS   D2A 9246  13.160  12.208   7.361 -0.0541  0.1424  0.1635
  816YOPS   C3A 9247  13.405  12.009   7.645  0.0594 -0.1336 -0.2246
  816YOPS   C4A 9248  13.699  12.003   7.802 -0.4125  0.0220  0.2023
  816YOPS   C1B 9249  13.637  12.345   7.177 -0.1135 -0.0422  0.1986
  816YOPS   C2B 9250  13.638  12.522   7.591  0.2477  0.0391 -0.0711
  816YOPS   D3B 9251  13.423  12.404   7.942 -0.3013  0.3641 -0.1205
  816YOPS   C4B 9252  12.991  12.202   7.924  0.1237  0.2495 -0.2574
  817YOPS   CNO 9253  14.909   7.210   6.655  0.1130  0.2724 -0.2760
  817YOPS   PO4 9254  15.341   7.135   6.827  0.5147 -0.0316 -0.1523
  817YOPS   GL1 9255  15.572   7.130   7.254  0.2672 -0.1096 -0.1143
  817YOPS   GL2 9256  15.735   7.499   7.306  0.0969 -0.0543 -0.4446
  817YOPS   C1A 9257  15.643   7.100   7.639  0.2063 -0.1495 -0.0794
  817YOPS   D2A 9258  15.579   7.164   8.114  0.1876  0.2057  0.1835
  817YOPS   C3A 9259  15.555   7.200   8.543 -0.0481 -0.0883 -0.0223
  817YOPS   C4A 9260  15.457   6.700   8.735  0.2179 -0.0203 -0.1681
  817YOPS   C1B 9261  15.696   7.608   7.718  0.0497  0.0823  0.0112
  817YOPS   C2B 9262  15.659   7.726   8.113 -0.2415 -0.1368  0.0667
  817YOPS   D3B 9263  15.627   7.737   8.549  0.0368 -0.1044  0.2568
  817YOPS   C4B 9264  15.998   7.728   8.799 -0.2052  0.1922 -0.3497
  818YOPS   CNO 9265  16.423  14.803   6.244  0.1534  0.2734  0.0745
  818YOPS   PO4 9266  16.265  15.134   6.232 -0.0701  0.2009  0.0322
  818YOPS   GL1 9267  16.370  15.317   6.622  0.2462 -0.0520  0.2391
  818YOPS   GL2 9268  16.566  15.028   6.686 -0.0109  0.2746 -0.0347
  818YOPS   C1A 9269  16.250  15.416   6.977 -0.2773 -0.0161  0.1608
  818YOPS   D2A 9270  16.177  15.444   7.362  0.0450  0.1609  0.1100
  818YOPS   C3A 9271  16.180  15.462   7.814 -0.1804 -0.0639 -0.0676
  818YOPS   C4A 9272  16.023  15.579   8.058 -0.3290 -0.0529 -0.1473
  818YOPS   C1B 9273  16.515  15.032   7.176 -0.0841 -0.1204  0.0136
  818YOPS   C2B 9274  16.440  14.936   7.635  0.0470  0.1790 -0.4270
  818YOPS   D3B 9275  16.411  15.079   8.053 -0.0324 -0.2626 -0.0671
  818YOPS   C4B 9276  16.434  14.867   8.346  0.0230  0.2182 -0.0848
  819YOPS   CNO 9277   1.313  13.700   6.272 -0.2958  0.0976 -0.1558
  819YOPS   PO4 9278   1.574  13.410   6.305  0.0628 -0.1212 -0.0305
  819YOPS   GL1 9279   1.610  13.514   6.841  0.1919 -0.0746  0.0161
  819YOPS   GL2 9280   1.570  13.903   6.747  0.0147 -0.0913 -0.0487
  819YOPS   C1A 9281   1.755  13.613   7.209  0.1560 -0.0273 -0.0225
  819YOPS   D2A 9282   1.578  13.739   7.596 -0.1505  0.0511  0.1328
  819YOPS   C3A 9283   1.364  13.911   7.907 -0.3729  0.0738 -0.1435
  819YOPS   C4A 9284   1.637  14.099   8.245 -0.1439  0.4527 -0.0994
  819YOPS   C1B 9285   1.563  14.084   7.136  0.0913 -0.0971  0.1601
  819YOPS   C2B 9286   1.395  14.216   7.540 -0.0789  0.1443 -0.0217
  819YOPS   D3B 9287   0.967  14.222   7.869  0.0456  0.2496  0.0509
  819YOPS   C4B 9288   0.691  14.422   7.640 -0.1754  0.2745 -0.3656
  820YOPS   CNO 9289  11.495  10.141   5.974 -0.1022 -0.1786  0.3167
  820YOPS   PO4 9290  11.371   9.814   6.273  0.2300 -0.1401  0.1542
  820YOPS   GL1 9291  11.469  10.059   6.589 -0.1132  0.2508  0.0066
  820YOPS   GL2 9292  11.461  10.371   6.495  0.0627  0.1897  0.1404
  820YOPS   C1A 9293  11.501  10.050   7.130 -0.1539 -0.0268 -0.0665
  820YOPS   D2A 9294  11.462  10.141   7.573  0.2533  0.1176 -0.1410
  820YOPS   C3A 9295  11.675  10.127   7.988  0.0180 -0.2291  0.0694
  820YOPS   C4A 9296  11.637  10.421   8.375 -0.1608  0.0396  0.0031
  820YOPS   C1B 9297  11.485  10.691   6.832 -0.2307  0.0751  0.4352
  820YOPS   C2B 9298  11.437  10.561   7.222  0.0501 -0.0143  0.0594
  820YOPS   D3B 9299  11.642  10.565   7.704 -0.0864 -0.1390 -0.0513
  820YOPS   C4B 9300  11.999  10.909   7.861 -0.0182 -0.0115 -0.1406
  821YOPS   CNO 9301  17.825  15.833   6.683 -0.1169 -0.1170  0.0625
  821YOPS   PO4 9302  17.518  16.035   6.616  0.0303  0.1417 -0.1011
  821YOPS   GL1 9303  17.259  15.808   6.864 -0.0130 -0.1594 -0.1083
  821YOPS   GL2 9304  17.398  15.480   6.910 -0.1341 -0.1054 -0.0756
  821YOPS   C1A 9305  16.987  15.896   7.199  0.0013 -0.1386 -0.0191
  821YOPS   D2A 9306  17.004  16.199   7.601 -0.0763 -0.1415 -0.3002
  821YOPS   C3A 9307  17.281  16.197   7.865  0.2217 -0.1144  0.1497
  821YOPS   C4A 9308  17.524  15.896   7.972 -0.0873  0.3904 -0.2883
  821YOPS   C1B 9309  17.178  15.474   7.303 -0.3829 -0.0852  0.0543
  821YOPS   C2B 9310  17.078  15.715   7.668 -0.0593  0.0427  0.2123
  821YOPS   D3B 9311  16.872  16.007   8.049  0.0818  0.1509 -0.2886
  821YOPS   C4B 9312  17.165  16.102   8.343 -0.0247  0.0981 -0.1314
  822YOPS   CNO 9313  11.765   3.118   6.125  0.0355 -0.0763 -0.1089
  822YOPS   PO4 9314  12.127   2.945   6.182  0.3336 -0.0953 -0.2652
  822YOPS   GL1 9315  11.918   3.097   6.606 -0.2277  0.0694 -0.1310
  822YOPS   GL2 9316  11.895   2.865   6.693  0.1809 -0.1080 -0.0512
  822YOPS   C1A 9317  11.963   3.283   7.018  0.1980  0.1873 -0.0883
  822YOPS   D2A 9318  12.097   3.157   7.387 -0.0439 -0.0148  0.1195
  822YOPS   C3A 9319  12.146   3.181   7.861 -0.0661 -0.0595  0.0091
  822YOPS   C4A 9320  12.393   2.857   8.089 -0.0838 -0.0227  0.0839
  822YOPS   C1B 9321  11.720   2.802   7.159 -0.3449 -0.0544 -0.1464
  822YOPS   C2B 9322  11.691   2.957   7.635 -0.1308  0.0984  0.1236
  822YOPS   D3B 9323  11.656   3.189   7.985  0.0167 -0.1982  0.0898
  822YOPS   C4B 9324  11.658   2.896   8.351  0.2097 -0.2420 -0.0142
  823YOPS   CNO 9325   3.332  10.447   6.181 -0.3438  0.0865 -0.0756
  823YOPS   PO4 9326   2.942  10.581   6.043  0.5231 -0.0487  0.0718
  823YOPS   GL1 9327   2.813  10.410   6.405  0.2579 -0.1340  0.0923
  823YOPS   GL2 9328   2.570  10.132   6.446 -0.3648 -0.0033 -0.1960
  823YOPS   C1A 9329   2.944  10.338   6.822  0.3991 -0.1089 -0.2029
  823YOPS   D2A 9330   2.886  10.293   7.205  0.1002  0.1257  0.1508
  823YOPS   C3A 9331   2.894  10.525   7.605 -0.1765 -0.1738 -0.1660
  823YOPS   C4A 9332   2.618  10.849   7.763  0.0121  0.1239  0.0599
  823YOPS   C1B 9333   2.469   9.990   6.867 -0.0451 -0.3295 -0.2606
  823YOPS   C2B 9334   2.536  10.033   7.329  0.0398 -0.1659 -0.0894
  823YOPS   D3B 9335   2.507  10.193   7.715 -0.1152 -0.0632 -0.3746
  823YOPS   C4B 9336   2.258  10.229   8.188  0.0311  0.0282 -0.0618
  824YOPS   CNO 9337   3.123   0.226   6.341 -0.0394  0.0107 -0.3961
  824YOPS   PO4 9338   3.249   0.105   6.663 -0.0659 -0.2463 -0.4111
  824YOPS   GL1 9339   3.034   0.241   7.038 -0.2367  0.2810  0.4219
  824YOPS   GL2 9340   2.618   0.301   7.103 -0.1094 -0.0045  0.0975
  824YOPS   C1A 9341   3.018   0.320   7.532  0.0656 -0.2667  0.0179
  824YOPS   D2A 9342   2.762   0.523   7.887 -0.2279  0.2371  0.1330
  824YOPS   C3A 9343   2.562   0.644   8.144 -0.0219  0.2523  0.3207
  824YOPS   C4A 9344   2.837   0.707   8.507  0.0363 -0.4076 -0.0268
  824YOPS   C1B 9345   2.539   0.090   7.372 -0.1275 -0.0806 -0.0756
  824YOPS   C2B 9346   2.486   0.141   7.708  0.0682 -0.0788  0.3781
  824YOPS   D3B 9347   2.243   0.122   8.173 -0.1166 -0.1576 -0.0771
  824YOPS   C4B 9348   2.431   0.367   8.546  0.0038 -0.0101  0.2381
  825YOPS   CNO 9349  16.868   3.258   6.294 -0.1243 -0.0142  0.2885
  825YOPS   PO4 9350  16.659   3.471   6.655  0.0176  0.0974  0.1033
  825YOPS   GL1 9351  16.544   3.312   7.055 -0.1012 -0.0398 -0.0021
  825YOPS   GL2 9352  16.278   3.056   7.041 -0.0606 -0.3413 -0.2228
  825YOPS   C1A 9353  16.516   3.405   7.473 -0.0424 -0.0580  0.2329
  825YOPS   D2A 9354  16.768   3.576   7.875  0.2914 -0.1845 -0.0812
  825YOPS   C3A 9355  16.715   3.510   8.260  0.0012  0.2843  0.0285
  825YOPS   C4A 9356  16.824   3.527   8.646  0.0632 -0.2253 -0.1034
  825YOPS   C1B 9357  16.105   3.078   7.342  0.0817 -0.2442  0.1827
  825YOPS   C2B 9358  16.110   3.298   7.721 -0.2576 -0.2610  0.5873
  825YOPS   D3B 9359  16.254   3.409   8.083 -0.1356 -0.2827 -0.0821
  825YOPS   C4B 9360  15.969   3.737   8.446  0.3258  0.0241 -0.2247
  826YOPS   CNO 9361  13.479  11.935   6.357 -0.3934  0.0376  0.0779
  826YOPS   PO4 9362  13.700  12.160   6.179 -0.0035  0.0833  0.1489
  826YOPS   GL1 9363  14.009  12.047   6.531 -0.0805 -0.1776 -0.0814
  826YOPS   GL2 9364  14.152  12.348   6.624  0.0391 -0.0259 -0.3545
  826YOPS   C1A 9365  13.980  12.032   6.979 -0.0370  0.0822 -0.0566
  826YOPS   D2A 9366  14.011  12.124   7.441  0.0424 -0.2765 -0.2479
  826YOPS   C3A 9367  14.100  12.315   7.853  0.1257 -0.0879  0.2438
  826YOPS   C4A 9368  14.461  12.489   7.861  0.0753 -0.1231  0.0470
  826YOPS   C1B 9369  14.153  12.513   7.026 -0.2491 -0.1055 -0.4062
  826YOPS   C2B 9370  14.120  12.616   7.468 -0.3148 -0.0859 -0.0537
  826YOPS   D3B 9371  14.309  12.941   7.648  0.0223 -0.2345 -0.0197
  826YOPS   C4B 9372  14.736  12.949   7.711  0.0849 -0.0010  0.1258
  827YOPS   CNO 9373  12.820   2.301   5.861 -0.1579  0.0942 -0.0334
  827YOPS   PO4 9374  12.831   1.888   6.165  0.1609  0.0740  0.1271
  827YOPS   GL1 9375  12.896   1.605   6.599  0.0637 -0.2459  0.0906
  827YOPS   GL2 9376  12.676   1.279   6.757 -0.1297 -0.2036 -0.1606
  827YOPS   C1A 9377  13.302   1.414   6.702 -0.2349  0.0732  0.3917
  827YOPS   D2A 9378  13.595   1.633   6.883  0.2617  0.1774 -0.0904
  827YOPS   C3A 9379  13.661   1.995   7.189  0.0605  0.0750 -0.5173
  827YOPS   C4A 9380  13.864   2.316   7.103 -0.1050  0.2478 -0.0337
  827YOPS   C1B 9381  12.627   1.225   7.195  0.0953 -0.3509  0.0579
  827YOPS   C2B 9382  12.580   1.430   7.634  0.1423  0.2323 -0.1037
  827YOPS   D3B 9383  12.571   1.454   8.158  0.3056 -0.2350 -0.0860
  827YOPS   C4B 9384  12.276   1.378   8.339 -0.0159  0.1756  0.1125
  828YOPS   CNO 9385   8.675  16.805   5.694 -0.1206  0.2203 -0.1743
  828YOPS   PO4 9386   9.093  16.672   5.788 -0.0743  0.0214  0.0245
  828YOPS   GL1 9387   9.141  16.659   6.266 -0.1630 -0.0885  0.0906
  828YOPS   GL2 9388   9.401  16.776   6.463 -0.0196  0.2280  0.0174
  828YOPS   C1A 9389   8.865  16.710   6.706  0.0482 -0.1372 -0.0923
  828YOPS   D2A 9390   8.803  16.760   7.041 -0.1700 -0.2708 -0.0354
  828YOPS   C3A 9391   8.747  17.003   7.374  0.0623 -0.1892  0.1064
  828YOPS   C4A 9392   8.509  16.948   7.822 -0.0923  0.1436 -0.0742
  828YOPS   C1B 9393   9.305  16.916   6.929 -0.0084 -0.1924  0.1584
  828YOPS   C2B 9394   9.246  16.979   7.352 -0.2187 -0.1876 -0.1768
  828YOPS   D3B 9395   9.362  17.238   7.700 -0.0046  0.0362  0.2982
  828YOPS   C4B 9396   8.965  17.356   7.855  0.0667  0.0031 -0.1467
  829YOPS   CNO 9397  17.087   5.368   6.550  0.3526 -0.1369 -0.1417
  829YOPS   PO4 9398  17.112   5.095   6.990  0.1697 -0.2694 -0.0459
  829YOPS   GL1 9399  17.201   5.223   7.497  0.0721 -0.1759  0.0595
  829YOPS   GL2 9400  16.936   5.337   7.464 -0.3171 -0.2634  0.3141
  829YOPS   C1A 9401  17.109   5.147   7.894 -0.1878  0.2828  0.1553
  829YOPS   D2A 9402  17.103   5.043   8.348  0.2963  0.1269 -0.0886
  829YOPS   C3A 9403  17.332   4.809   8.592 -0.2601 -0.0040 -0.0394
  829YOPS   C4A 9404  17.270   4.494   9.040  0.1431 -0.1265 -0.2345
  829YOPS   C1B 9405  16.740   5.515   7.770 -0.0563 -0.0869  0.2762
  829YOPS   C2B 9406  16.714   5.526   8.146 -0.1173 -0.2718  0.0526
  829YOPS   D3B 9407  17.056   5.520   8.380 -0.1488  0.2561 -0.4224
  829YOPS   C4B 9408  17.055   5.468   8.836 -0.0814  0.0447  0.1336
  830YOPS   CNO 9409   2.492  12.750   5.719  0.0992  0.1275  0.5189
  830YOPS   PO4 9410   2.714  12.678   6.127 -0.2015  0.0563 -0.1169
  830YOPS   GL1 9411   2.817  12.786   6.632  0.1317  0.2850  0.0356
  830YOPS   GL2 9412   2.623  12.957   6.900  0.3293 -0.0263  0.1527
  830YOPS   C1A 9413   2.913  12.531   7.077  0.1170  0.0423 -0.0157
  830YOPS   D2A 9414   2.878  12.535   7.520 -0.1188  0.0460 -0.1462
  830YOPS   C3A 9415   2.729  12.711   7.875 -0.0480  0.3010  0.0420
  830YOPS   C4A 9416   2.549  12.604   8.251 -0.3252 -0.3214 -0.4594
  830YOPS   C1B 9417   2.528  12.810   7.174  0.0649  0.2176 -0.0100
  830YOPS   C2B 9418   2.303  12.758   7.642  0.0120 -0.0722 -0.3090
  830YOPS   D3B 9419   2.130  12.854   8.055 -0.0125 -0.0881 -0.0054
  830YOPS   C4B 9420   2.343  13.076   8.368  0.0627  0.0168  0.1649
  831YOPS   CNO 9421  17.613  17.232   6.117  0.2384  0.0112 -0.1406
  831YOPS   PO4 9422  17.878  17.331   6.449  0.0383 -0.1610  0.0584
  831YOPS   GL1 9423  17.688  17.381   6.881  0.0074 -0.1027  0.0584
  831YOPS   GL2 9424  17.303  17.324   6.953 -0.0488  0.3289  0.2046
  831YOPS   C1A 9425  17.579  17.321   7.357  0.1330  0.0868 -0.0031
  831YOPS   D2A 9426  17.671  17.183   7.855  0.0171  0.0072  0.0999
  831YOPS   C3A 9427  17.786  17.047   8.234  0.1703  0.0720  0.0767
  831YOPS   C4A 9428  17.461  17.017   8.558  0.0387 -0.1721 -0.0233
  831YOPS   C1B 9429  17.108  17.222   7.324 -0.1565 -0.0948 -0.0115
  831YOPS   C2B 9430  17.147  17.153   7.805  0.2776  0.2281  0.0353
  831YOPS   D3B 9431  17.099  17.079   8.218 -0.2010  0.0682  0.0091
  831YOPS   C4B 9432  16.591  16.985   8.354 -0.0339  0.2528  0.2880
  832YOPS   CNO 9433  16.536   4.705   6.220  0.2055  0.0342  0.0825
  832YOPS   PO4 9434  16.305   4.657   6.660 -0.2582 -0.0414  0.0777
  832YOPS   GL1 9435  16.320   4.716   7.143  0.0158  0.4194 -0.1672
  832YOPS   GL2 9436  16.632   4.935   7.237 -0.1623  0.4086 -0.0084
  832YOPS   C1A 9437  16.144   4.891   7.538 -0.1755  0.0117  0.1591
  832YOPS   D2A 9438  16.138   4.822   7.990 -0.3081  0.0908 -0.0723
  832YOPS   C3A 9439  16.094   4.815   8.382  0.1296  0.4470 -0.0839
  832YOPS   C4A 9440  16.059   4.924   8.745 -0.1552 -0.1616  0.2773
  832YOPS   C1B 9441  16.630   5.020   7.662 -0.0587 -0.1788 -0.2978
  832YOPS   C2B 9442  16.630   4.971   8.150 -0.2025 -0.1418 -0.2282
  832YOPS   D3B 9443  16.647   5.012   8.533  0.3740  0.0462 -0.2221
  832YOPS   C4B 9444  16.449   5.211   8.778 -0.0079  0.3579  0.0547
  833YOPS   CNO 9445   9.614   2.826   5.904  0.0069 -0.2291 -0.0021
  833YOPS   PO4 9446   9.639   3.199   6.163  0.0674 -0.2408  0.1205
  833YOPS   GL1 9447   9.574   3.030   6.518 -0.1534 -0.1664  0.0364
  833YOPS   GL2 9448   9.518   2.728   6.393  0.2623 -0.0207  0.3697
  833YOPS   C1A 9449   9.377   2.982   7.000  0.1106  0.4703 -0.1163
  833YOPS   D2A 9450   9.400   3.039   7.417  0.0656 -0.1410 -0.0383
  833YOPS   C3A 9451   9.564   3.284   7.769  0.1728  0.4700 -0.0185
  833YOPS   C4A 9452   9.739   3.229   8.134 -0.0235  0.3015 -0.1731
  833YOPS   C1B 9453   9.663   2.625   6.893 -0.3038 -0.0672  0.2404
  833YOPS   C2B 9454   9.818   2.647   7.239  0.1442 -0.0949 -0.0268
  833YOPS   D3B 9455   9.875   2.890   7.572  0.0192 -0.2473  0.1885
  833YOPS   C4B 9456  10.010   2.833   7.982  0.1300  0.0867 -0.0459
  834YOPS   CNO 9457  12.118   9.574   5.903  0.0022  0.0845  0.0410
  834YOPS   PO4 9458  12.027   9.327   6.277 -0.0149  0.3780 -0.1618
  834YOPS   GL1 9459  11.866   9.294   6.668 -0.2761 -0.0285 -0.0822
  834YOPS   GL2 9460  12.014   9.058   6.812 -0.4034 -0.2587 -0.0874
  834YOPS   C1A 9461  11.726   9.620   6.938 -0.0958 -0.3116  0.2586
  834YOPS   D2A 9462  11.469   9.652   7.431 -0.2220 -0.1436  0.1593
  834YOPS   C3A 9463  11.258   9.741   7.842  0.3350 -0.0040 -0.3963
  834YOPS   C4A 9464  11.162   9.499   8.186  0.0452 -0.0889  0.1539
  834YOPS   C1B 9465  11.925   9.220   7.220 -0.0984 -0.1019 -0.1742
  834YOPS   C2B 9466  11.878   9.362   7.547 -0.1077 -0.0867 -0.1249
  834YOPS   D3B 9467  11.717   9.569   7.871  0.1286 -0.2536  0.0166
  834YOPS   C4B 9468  11.609   9.659   8.263 -0.0762 -0.0621  0.2346
  835YOPS   CNO 9469   4.641  10.887   6.234 -0.3749 -0.1023  0.1683
  835YOPS   PO4 9470   4.405  11.164   6.412  0.0376  0.4098  0.2139
  835YOPS   GL1 9471   4.259  10.852   6.735  0.2336 -0.0657 -0.0196
  835YOPS   GL2 9472   3.970  10.647   6.686  0.0005 -0.0062  0.2396
  835YOPS   C1A 9473   4.073  10.758   7.214  0.3694 -0.0991  0.0657
  835YOPS   D2A 9474   4.120  10.770   7.663  0.0664  0.0383  0.1893
  835YOPS   C3A 9475   4.057  10.614   8.121  0.0107  0.0301 -0.0152
  835YOPS   C4A 9476   3.779  10.634   8.473 -0.0678  0.0657 -0.3239
  835YOPS   C1B 9477   3.840  10.305   7.034  0.0146  0.3119 -0.0375
  835YOPS   C2B 9478   3.790  10.382   7.526 -0.2441 -0.0576  0.2395
  835YOPS   D3B 9479   3.647  10.316   7.919  0.1101 -0.1443 -0.1295
  835YOPS   C4B 9480   3.448   9.926   8.173  0.1270  0.2554  0.3319
  836YOPS   CNO 9481   9.535   6.321   5.906 -0.3726  0.4155 -0.1440
  836YOPS   PO4 9482  10.019   6.527   6.010 -0.1840  0.0290  0.2276
  836YOPS   GL1 9483   9.903   6.351   6.384 -0.1602  0.3379  0.4056
  836YOPS   GL2 9484   9.876   6.608   6.586  0.2401  0.0976  0.0507
  836YOPS   C1A 9485   9.672   5.959   6.709 -0.2174  0.3495  0.1363
  836YOPS   D2A 9486   9.644   5.756   7.060  0.0807  0.1216  0.5089
  836YOPS   C3A 9487   9.602   5.598   7.471  0.1185  0.0459 -0.0959
  836YOPS   C4A 9488   9.810   5.821   7.807 -0.2766  0.1886  0.2323
  836YOPS   C1B 9489   9.760   6.409   6.902  0.2840 -0.1925  0.0399
  836YOPS   C2B 9490   9.536   6.460   7.294  0.0356  0.1838  0.1339
  836YOPS   D3B 9491   9.565   6.452   7.716 -0.2904 -0.2849  0.0337
  836YOPS   C4B 9492   9.757   6.752   7.962  0.0943  0.1001 -0.1315
  837YOPS   CNO 9493   9.095   1.269   6.045 -0.0806  0.0963  0.2834
  837YOPS   PO4 9494   9.415   1.049   5.929 -0.0436  0.3002 -0.0377
  837YOPS   GL1 9495   9.222   0.882   6.360 -0.0703 -0.2333 -0.1855
  837YOPS   GL2 9496   9.303   0.462   6.407  0.2996  0.3132  0.0996
  837YOPS   C1A 9497   9.088   0.833   6.774 -0.2128  0.3360  0.2635
  837YOPS   D2A 9498   9.332   0.732   7.176  0.0014 -0.1894 -0.2079
  837YOPS   C3A 9499   9.339   0.802   7.546 -0.0017  0.1626 -0.3118
  837YOPS   C4A 9500   9.702   0.959   7.789  0.0744 -0.0249  0.0764
  837YOPS   C1B 9501   9.474   0.445   6.838 -0.0947  0.0302  0.3352
  837YOPS   C2B 9502   9.814   0.578   7.003  0.0163  0.1180 -0.1101
  837YOPS   D3B 9503   9.962   0.611   7.410  0.1212 -0.1446 -0.0294
  837YOPS   C4B 9504   9.758   0.483   7.843  0.1307 -0.3151  0.3378
  838YOPS   CNO 9505   1.317   5.372   7.019  0.0768 -0.0514  0.0503
  838YOPS   PO4 9506   1.587   5.506   7.198  0.0156 -0.2896  0.4107
  838YOPS   GL1 9507   1.385   5.381   7.523  0.1137 -0.0055  0.0648
  838YOPS   GL2 9508   1.287   5.018   7.515 -0.0945  0.1048  0.1558
  838YOPS   C1A 9509   1.519   5.324   7.876 -0.2861  0.0039  0.1302
  838YOPS   D2A 9510   1.766   5.359   8.110 -0.1277 -0.1920 -0.0532
  838YOPS   C3A 9511   1.776   5.183   8.484 -0.1544 -0.1683 -0.0966
  838YOPS   C4A 9512   1.576   4.946   8.798  0.0016 -0.0972  0.2252
  838YOPS   C1B 9513   1.004   5.250   7.783  0.0230 -0.2237  0.0303
  838YOPS   C2B 9514   0.914   5.406   8.128 -0.0705  0.3233 -0.0590
  838YOPS   D3B 9515   0.975   5.601   8.521  0.2650 -0.1125 -0.1191
  838YOPS   C4B 9516   0.840   5.908   8.698  0.0641 -0.2366 -0.1358
  839POPE   NH3 9517   8.214   2.785   5.942 -0.1801 -0.1206  0.0882
  839POPE   PO4 9518   7.863   2.702   5.803 -0.1710  0.1492 -0.0926
  839POPE   GL1 9519   7.808   2.767   6.213  0.2299 -0.4620  0.1055
  839POPE   GL2 9520   7.728   2.512   6.433  0.0466 -0.1695 -0.0860
  839POPE   C1A 9521   7.965   2.893   6.738 -0.0784 -0.1185 -0.1254
  839POPE   D2A 9522   7.939   3.252   6.882  0.0683 -0.1371 -0.2054
  839POPE   C3A 9523   7.695   3.206   7.205 -0.2129  0.0230  0.0775
  839POPE   C4A 9524   7.379   3.367   7.499 -0.1306 -0.1957 -0.2783
  839POPE   C1B 9525   7.827   2.450   6.803 -0.0687  0.0301 -0.0999
  839POPE   C2B 9526   7.787   2.318   7.251  0.1165 -0.1449  0.0672
  839POPE   C3B 9527   7.674   2.457   7.629  0.0737 -0.1340  0.0198
  839POPE   C4B 9528   7.707   2.442   8.065  0.2170  0.3089  0.2510
  840POPE   NH3 9529   0.515  13.131   5.988 -0.2565 -0.0366  0.0292
  840POPE   PO4 9530   0.167  12.841   5.945 -0.2125 -0.0092 -0.0302
  840POPE   GL1 9531   0.138  12.781   6.384  0.0634  0.1070  0.1925
  840POPE   GL2 9532  -0.219  12.964   6.540 -0.2032 -0.0425  0.2964
  840POPE   C1A 9533   0.110  12.659   6.771 -0.0290  0.2691 -0.1031
  840POPE   D2A 9534  -0.240  12.734   7.108 -0.2336 -0.1566 -0.2716
  840POPE   C3A 9535  -0.068  12.715   7.553  0.0527  0.1625 -0.1198
  840POPE   C4A 9536   0.003  12.867   7.980 -0.0681 -0.3025 -0.0692
  840POPE   C1B 9537   0.006  13.124   6.908  0.1411  0.2056  0.2143
  840POPE   C2B 9538   0.216  13.050   7.205  0.2105  0.0941  0.0636
  840POPE   C3B 9539   0.409  12.925   7.614 -0.1121  0.1420  0.0575
  840POPE   C4B 9540   0.738  13.082   7.915  0.1233  0.1493 -0.2387
  841POPE   NH3 9541   5.243  13.100   6.080  0.0838 -0.2357  0.3508
  841POPE   PO4 9542   5.673  13.230   6.126 -0.1406 -0.1430 -0.1522
  841POPE   GL1 9543   5.581  13.241   6.573  0.0192  0.2348 -0.1149
  841POPE   GL2 9544   5.673  13.603   6.658  0.1329 -0.0722  0.0020
  841POPE   C1A 9545   5.673  13.281   7.024  0.2779 -0.0054  0.0213
  841POPE   D2A 9546   5.397  13.310   7.374  0.1476  0.1959 -0.1409
  841POPE   C3A 9547   5.570  13.037   7.684  0.4080 -0.0375  0.1154
  841POPE   C4A 9548   5.840  12.685   7.896 -0.2483 -0.2239 -0.2566
  841POPE   C1B 9549   5.795  13.760   7.028 -0.1489 -0.1043  0.1136
  841POPE   C2B 9550   5.734  13.692   7.470  0.0496  0.0381  0.1407
  841POPE   C3B 9551   5.723  13.490   7.807 -0.1433 -0.2681  0.1254
  841POPE   C4B 9552   5.592  13.179   8.163  0.0437 -0.1808 -0.2035
  842POPE   NH3 9553   3.881   4.512   6.243  0.1964  0.1300  0.0149
  842POPE   PO4 9554   3.715   4.224   6.469  0.0906  0.2100 -0.0259
  842POPE   GL1 9555   3.541   4.012   6.825 -0.0959  0.3651 -0.1712
  842POPE   GL2 9556   3.199   4.049   6.846 -0.3481 -0.0656 -0.4162
  842POPE   C1A 9557   3.654   3.717   6.968  0.1612  0.0141 -0.1407
  842POPE   D2A 9558   4.117   3.499   7.018  0.3321  0.3401  0.0188
  842POPE   C3A 9559   4.278   3.480   7.439  0.0021  0.0293 -0.1781
  842POPE   C4A 9560   4.156   3.467   7.842  0.1302 -0.0871  0.2493
  842POPE   C1B 9561   3.146   4.175   7.373  0.2450  0.0341  0.0217
  842POPE   C2B 9562   3.451   4.298   7.762  0.2889  0.4089 -0.2242
  842POPE   C3B 9563   3.743   4.335   8.146  0.0168  0.0084  0.0104
  842POPE   C4B 9564   4.055   4.638   8.300  0.0728  0.0766  0.2940
  843POPE   NH3 9565   8.605  15.312   6.148  0.2165 -0.0211  0.1703
  843POPE   PO4 9566   8.981  15.121   6.019 -0.3940  0.0155  0.3799
  843POPE   GL1 9567   8.972  14.702   6.294  0.1999  0.1359  0.0017
  843POPE   GL2 9568   9.185  14.481   6.265  0.0671 -0.3688  0.0509
  843POPE   C1A 9569   8.756  14.454   6.589 -0.1064  0.0320  0.2187
  843POPE   D2A 9570   8.570  14.397   7.045 -0.1319 -0.1321  0.0535
  843POPE   C3A 9571   8.697  14.098   7.187  0.1055  0.0834  0.2331
  843POPE   C4A 9572   9.102  13.978   7.261  0.0799  0.3381 -0.0277
  843POPE   C1B 9573   9.382  14.212   6.359 -0.1259  0.1263  0.3340
  843POPE   C2B 9574   9.589  14.259   6.699  0.3531  0.0869  0.4191
  843POPE   C3B 9575   9.554  14.273   7.205 -0.2066  0.0148 -0.0145
  843POPE   C4B 9576   9.662  14.332   7.613 -0.3019  0.0871 -0.0345
  844POPE   NH3 9577   8.057   9.116   6.348 -0.0367  0.0806  0.0401
  844POPE   PO4 9578   8.203   9.463   6.122 -0.1272  0.1225  0.1414
  844POPE   GL1 9579   8.363   9.572   6.493  0.3759  0.0482  0.0081
  844POPE   GL2 9580   8.558   9.386   6.702 -0.1848  0.0318 -0.0452
  844POPE   C1A 9581   8.242   9.789   6.689  0.0806 -0.0291 -0.0479
  844POPE   D2A 9582   8.016   9.808   7.124 -0.2395 -0.0579  0.1571
  844POPE   C3A 9583   8.210   9.847   7.493  0.1550  0.3464  0.3454
  844POPE   C4A 9584   8.128   9.685   7.915 -0.2246  0.1914  0.2150
  844POPE   C1B 9585   8.658   9.362   7.038 -0.1045 -0.2191  0.0877
  844POPE   C2B 9586   8.532   9.471   7.457  0.2145 -0.3237 -0.1615
  844POPE   C3B 9587   8.579   9.376   7.810  0.0973  0.0921 -0.0010
  844POPE   C4B 9588   8.510   9.202   8.151  0.1025  0.0282 -0.0040
  845POPE   NH3 9589   4.125   1.164   6.668 -0.0778  0.0709  0.1452
  845POPE   PO4 9590   3.742   0.966   6.614  0.1945 -0.0313  0.1619
  845POPE   GL1 9591   3.870   0.895   7.050  0.0817  0.1011 -0.3426
  845POPE   GL2 9592   4.081   1.194   7.186 -0.1841  0.0636 -0.2385
  845POPE   C1A 9593   3.798   0.775   7.450  0.1018 -0.1153 -0.2926
  845POPE   D2A 9594   3.538   0.448   7.731  0.0362 -0.0468 -0.1647
  845POPE   C3A 9595   3.321   0.423   8.001  0.1390 -0.2419 -0.1163
  845POPE   C4A 9596   3.187   0.326   8.416  0.0262 -0.1120  0.0483
  845POPE   C1B 9597   4.099   1.244   7.628 -0.1027 -0.1221 -0.0242
  845POPE   C2B 9598   4.005   1.240   8.101  0.1651  0.1220  0.0054
  845POPE   C3B 9599   3.819   1.147   8.340  0.2983  0.2929 -0.1639
  845POPE   C4B 9600   3.697   0.661   8.339  0.0307  0.2047  0.2626
  846POPE   NH3 9601   5.319   7.703   6.418  0.0842  0.1195  0.0354
  846POPE   PO4 9602   4.918   7.590   6.463 -0.1268  0.0685 -0.1563
  846POPE   GL1 9603   4.803   7.697   6.897 -0.0545  0.3772  0.0076
  846POPE   GL2 9604   4.532   7.465   6.924 -0.0900  0.1828  0.0173
  846POPE   C1A 9605   4.788   7.834   7.242  0.2584  0.2618 -0.1703
  846POPE   D2A 9606   4.968   7.780   7.578  0.1165  0.0113 -0.0997
  846POPE   C3A 9607   4.934   7.644   7.996 -0.1393  0.1861 -0.0890
  846POPE   C4A 9608   5.160   7.460   8.362  0.0454 -0.0468  0.1905
  846POPE   C1B 9609   4.233   7.437   7.299  0.1251 -0.3210  0.0438
  846POPE   C2B 9610   4.011   7.537   7.707  0.0215 -0.0650  0.0792
  846POPE   C3B 9611   3.864   7.617   8.079 -0.0215 -0.0696 -0.2593
  846POPE   C4B 9612   3.677   7.734   8.403  0.0673 -0.1637 -0.1896
  847POPE   NH3 9613   8.936   5.235   5.877  0.2235 -0.1670  0.3670
  847POPE   PO4 9614   9.375   5.435   5.871  0.0148  0.2220 -0.3390
  847POPE   GL1 9615   9.277   5.330   6.265  0.1457 -0.2169  0.2113
  847POPE   GL2 9616   9.222   5.625   6.435  0.1529 -0.3385  0.0440
  847POPE   C1A 9617   9.538   5.379   6.714 -0.3383  0.0955 -0.2623
  847POPE   D2A 9618   9.371   5.294   7.159 -0.0847  0.3847  0.3023
  847POPE   C3A 9619   9.372   5.084   7.521 -0.3108 -0.2911  0.2099
  847POPE   C4A 9620   9.349   4.696   7.742 -0.3282  0.0444  0.0467
  847POPE   C1B 9621   9.018   5.283   6.790 -0.1268 -0.1044 -0.1622
  847POPE   C2B 9622   8.727   5.221   7.114 -0.2235  0.2638 -0.0905
  847POPE   C3B 9623   8.609   5.167   7.524 -0.0305 -0.2328  0.0050
  847POPE   C4B 9624   8.480   4.831   7.782  0.0224  0.1517  0.0570
  848POPE   NH3 9625   3.281   7.795   6.174  0.1642 -0.0865 -0.0937
  848POPE   PO4 9626   3.150   8.297   6.116  0.1163 -0.2459 -0.4817
  848POPE   GL1 9627   3.173   8.182   6.485  0.1354  0.2615 -0.1604
  848POPE   GL2 9628   3.018   7.891   6.602  0.2139  0.0173  0.0247
  848POPE   C1A 9629   3.287   8.144   6.935 -0.1094 -0.1265 -0.3923
  848POPE   D2A 9630   3.404   8.230   7.373  0.1779 -0.2119 -0.0569
  848POPE   C3A 9631   3.491   8.534   7.742  0.0746  0.2175  0.0721
  848POPE   C4A 9632   3.577   8.469   8.228  0.0213  0.5563  0.1685
  848POPE   C1B 9633   2.906   7.832   6.933  0.0891  0.0257  0.1375
  848POPE   C2B 9634   3.001   7.897   7.310 -0.1690 -0.0650  0.2561
  848POPE   C3B 9635   3.016   8.090   7.723  0.0815 -0.0950 -0.2032
  848POPE   C4B 9636   3.334   7.801   8.077 -0.2370  0.0617  0.0237
  849POPE   NH3 9637   9.559   1.534   6.107 -0.0627 -0.1065  0.0367
  849POPE   PO4 9638   9.216   1.691   6.273 -0.0941 -0.2237 -0.1236
  849POPE   GL1 9639   9.444   1.704   6.667  0.0859  0.0232  0.0502
  849POPE   GL2 9640   9.399   1.350   6.665 -0.2432 -0.0451 -0.1662
  849POPE   C1A 9641   9.592   1.794   7.126  0.1497  0.0728  0.1779
  849POPE   D2A 9642   9.388   1.836   7.482  0.1391  0.4449  0.0535
  849POPE   C3A 9643   9.542   1.919   7.871 -0.2337 -0.1365  0.0548
  849POPE   C4A 9644   9.600   1.946   8.281  0.0508 -0.6750  0.0880
  849POPE   C1B 9645   9.251   1.248   7.100  0.1351  0.0854 -0.2118
  849POPE   C2B 9646   9.106   1.197   7.540 -0.1156 -0.3336 -0.1685
  849POPE   C3B 9647   9.132   1.585   7.869 -0.2505  0.2037  0.0334
  849POPE   C4B 9648   8.978   1.891   8.200  0.1507 -0.0672  0.0428
  850POPE   NH3 9649   5.733   1.833   6.252  0.0257 -0.1129 -0.0051
  850POPE   PO4 9650   6.109   1.741   6.317 -0.3837  0.0539  0.2401
  850POPE   GL1 9651   6.422   1.947   6.518  0.0810  0.0931 -0.2711
  850POPE   GL2 9652   6.567   2.329   6.374 -0.0611  0.2168 -0.0996
  850POPE   C1A 9653   6.402   2.091   6.904  0.0288 -0.2772 -0.0256
  850POPE   D2A 9654   6.715   2.240   7.216  0.1971  0.1372 -0.0383
  850POPE   C3A 9655   7.008   2.747   7.161  0.0754 -0.1490 -0.1743
  850POPE   C4A 9656   6.977   3.106   7.361 -0.0081  0.0101  0.0275
  850POPE   C1B 9657   6.854   2.183   6.692  0.1510  0.1385  0.2484
  850POPE   C2B 9658   7.171   2.246   7.062 -0.0298 -0.0913 -0.1718
  850POPE   C3B 9659   7.076   2.363   7.530  0.0680 -0.0759 -0.0144
  850POPE   C4B 9660   7.172   2.550   7.904  0.2253  0.1146  0.1784
  851POPE   NH3 9661   3.213   6.081   6.527  0.2851 -0.1410  0.2382
  851POPE   PO4 9662   3.577   5.903   6.789 -0.0126 -0.0898  0.3052
  851POPE   GL1 9663   3.591   5.815   7.064 -0.0389 -0.2970  0.0911
  851POPE   GL2 9664   3.598   5.506   7.159 -0.0896 -0.0697 -0.0929
  851POPE   C1A 9665   3.743   5.855   7.561  0.2820 -0.1231 -0.1266
  851POPE   D2A 9666   3.828   5.823   8.001 -0.1752 -0.1740 -0.0741
  851POPE   C3A 9667   4.005   6.170   8.218 -0.1722 -0.1932 -0.2463
  851POPE   C4A 9668   4.283   6.514   8.429 -0.1201 -0.1289  0.1303
  851POPE   C1B 9669   3.848   5.370   7.478  0.3184 -0.2154  0.0127
  851POPE   C2B 9670   4.060   5.042   7.576  0.1066  0.0087 -0.0237
  851POPE   C3B 9671   4.215   4.886   7.819  0.0470 -0.2331 -0.1069
  851POPE   C4B 9672   4.471   4.941   8.197  0.0095  0.3139  0.0848
  852POPE   NH3 9673  14.013   8.156   6.421  0.1327 -0.1427  0.1104
  852POPE   PO4 9674  14.476   8.118   6.554 -0.0040 -0.1112  0.2773
  852POPE   GL1 9675  14.827   8.148   6.828 -0.0879 -0.0555  0.1063
  852POPE   GL2 9676  15.143   8.039   6.829 -0.1346 -0.1065  0.2540
  852POPE   C1A 9677  14.778   8.112   7.281 -0.0182  0.4771 -0.1306
  852POPE   D2A 9678  14.782   8.093   7.739 -0.1117 -0.0532  0.2043
  852POPE   C3A 9679  14.837   8.565   7.862 -0.0752 -0.0023  0.0509
  852POPE   C4A 9680  15.196   8.761   7.926 -0.0509  0.2888 -0.0511
  852POPE   C1B 9681  15.289   8.205   7.185 -0.3772  0.1679  0.0718
  852POPE   C2B 9682  15.690   8.136   7.478  0.0200  0.1150 -0.3208
  852POPE   C3B 9683  15.760   8.230   7.954 -0.1688  0.1969  0.0555
  852POPE   C4B 9684  15.828   8.303   8.360 -0.1701  0.0479 -0.0516
  853POPE   NH3 9685   7.045   1.022   5.907  0.0223  0.0264 -0.1533
  853POPE   PO4 9686   6.640   1.011   6.027  0.1781  0.1434  0.0614
  853POPE   GL1 9687   6.522   1.039   6.504  0.0464  0.0266  0.2396
  853POPE   GL2 9688   6.426   1.410   6.626 -0.2235  0.0281 -0.0722
  853POPE   C1A 9689   6.856   1.107   6.823 -0.0293  0.2151 -0.1487
  853POPE   D2A 9690   6.980   1.244   7.196  0.2438  0.2085  0.1021
  853POPE   C3A 9691   7.264   1.437   7.224 -0.0187 -0.4369 -0.1499
  853POPE   C4A 9692   7.388   1.524   7.692  0.1370  0.0050 -0.0549
  853POPE   C1B 9693   6.515   1.328   7.097  0.2199  0.2330 -0.1157
  853POPE   C2B 9694   6.638   1.360   7.537  0.1198 -0.0598  0.0196
  853POPE   C3B 9695   6.892   1.432   7.813  0.3514  0.1415  0.2232
  853POPE   C4B 9696   7.099   1.647   8.149 -0.2552  0.1597 -0.0127
  854POPE   NH3 9697  15.800   8.454   6.088 -0.1013 -0.2303 -0.1023
  854POPE   PO4 9698  15.832   8.346   6.452  0.1645  0.1293 -0.0355
  854POPE   GL1 9699  15.680   8.361   6.775 -0.0877 -0.3841 -0.2552
  854POPE   GL2 9700  15.932   8.216   7.046 -0.2222  0.0147  0.0727
  854POPE   C1A 9701  15.507   8.595   7.070 -0.0257 -0.1081 -0.1867
  854POPE   D2A 9702  15.441   8.708   7.496  0.1852  0.1609 -0.2188
  854POPE   C3A 9703  15.154   9.035   7.487 -0.1014 -0.0321  0.0017
  854POPE   C4A 9704  14.992   9.236   7.813  0.3902 -0.0206 -0.1692
  854POPE   C1B 9705  16.206   8.141   7.406  0.2983 -0.0785  0.0118
  854POPE   C2B 9706  16.179   8.332   7.729  0.2330 -0.1985 -0.1738
  854POPE   C3B 9707  16.217   8.494   8.111 -0.5454 -0.0870 -0.4187
  854POPE   C4B 9708  15.992   8.762   8.472  0.1795 -0.2477  0.0498
  855POPE   NH3 9709  16.044  13.288   5.669 -0.2464  0.1140  0.2362
  855POPE   PO4 9710  16.332  13.658   5.720  0.0229 -0.4078 -0.2703
  855POPE   GL1 9711  16.331  13.824   6.212  0.2387  0.1153  0.0919
  855POPE   GL2 9712  16.619  13.906   6.417  0.1003  0.1330  0.0415
  855POPE   C1A 9713  16.199  13.596   6.523 -0.3941  0.0572 -0.2341
  855POPE   D2A 9714  16.214  13.053   6.548 -0.2025 -0.1501 -0.1352
  855POPE   C3A 9715  16.063  13.046   6.953  0.2194 -0.0558 -0.1320
  855POPE   C4A 9716  16.149  13.033   7.346  0.2607 -0.3980  0.3402
  855POPE   C1B 9717  16.589  14.027   6.811 -0.0032  0.2993 -0.3535
  855POPE   C2B 9718  16.735  14.103   7.302  0.2191 -0.0204  0.1194
  855POPE   C3B 9719  16.560  14.037   7.725  0.0239 -0.0513 -0.0957
  855POPE   C4B 9720  16.640  13.897   8.172  0.1839  0.0574  0.0037
  856POPE   NH3 9721   0.643  15.724   6.675  0.1698 -0.2593  0.0880
  856POPE   PO4 9722   0.963  15.353   6.520 -0.0507 -0.0262 -0.1391
  856POPE   GL1 9723   0.789  15.301   6.851  0.0199  0.1787  0.0711
  856POPE   GL2 9724   0.481  15.188   6.762  0.0893  0.0403  0.1268
  856POPE   C1A 9725   1.007  15.058   7.237  0.1728  0.0624 -0.2624
  856POPE   D2A 9726   1.275  15.208   7.585  0.1665 -0.2977  0.0907
  856POPE   C3A 9727   1.235  15.193   8.019 -0.1877 -0.0477  0.0960
  856POPE   C4A 9728   1.091  15.229   8.375 -0.1897  0.0429  0.1975
  856POPE   C1B 9729   0.503  15.131   7.215  0.0530  0.0003  0.1764
  856POPE   C2B 9730   0.610  14.901   7.567  0.1459  0.1998  0.0767
  856POPE   C3B 9731   0.476  14.660   7.984 -0.1315  0.0044 -0.1842
  856POPE   C4B 9732   0.227  14.332   8.210 -0.2527 -0.0288  0.1775
  857POPE   NH3 9733  14.458   7.463   6.449  0.1579 -0.1234  0.1334
  857POPE   PO4 9734  14.085   7.699   6.545 -0.1314  0.0140 -0.0644
  857POPE   GL1 9735  14.301   7.536   6.909 -0.2698  0.1906  0.5229
  857POPE   GL2 9736  14.592   7.715   6.966 -0.5007 -0.0701  0.5632
  857POPE   C1A 9737  14.332   7.288   7.290 -0.0620 -0.2642 -0.0836
  857POPE   D2A 9738  14.455   7.036   7.590  0.1383 -0.1887  0.0232
  857POPE   C3A 9739  14.442   7.215   8.051 -0.2203  0.0993 -0.0656
  857POPE   C4A 9740  14.648   7.279   8.377 -0.0365  0.2549  0.0701
  857POPE   C1B 9741  14.350   7.850   7.373 -0.2195  0.2095 -0.0595
  857POPE   C2B 9742  14.331   7.904   7.734 -0.1922  0.1398 -0.0601
  857POPE   C3B 9743  14.177   7.837   8.107 -0.1042 -0.0501  0.1197
  857POPE   C4B 9744  14.276   7.549   8.449  0.5165 -0.2536 -0.0312
  858POPE   NH3 9745   0.846  16.677   6.719  0.1047 -0.0741  0.1664
  858POPE   PO4 9746   1.199  16.615   6.901  0.3295  0.1914 -0.1916
  858POPE   GL1 9747   1.292  16.536   7.311  0.0767  0.0653 -0.1536
  858POPE   GL2 9748   1.182  16.165   7.214  0.2303 -0.1314  0.2868
  858POPE   C1A 9749   1.264  16.505   7.665 -0.3852  0.0925 -0.2608
  858POPE   D2A 9750   1.277  16.559   8.044  0.0240 -0.2676  0.4586
  858POPE   C3A 9751   1.077  16.247   8.431 -0.3555  0.0768  0.2837
  858POPE   C4A 9752   0.952  16.156   8.742  0.1951  0.0510  0.0563
  858POPE   C1B 9753   1.127  16.059   7.520 -0.1958 -0.1158 -0.0870
  858POPE   C2B 9754   1.026  16.059   7.943  0.1667  0.0956 -0.4508
  858POPE   C3B 9755   0.922  15.707   8.249 -0.0801 -0.0398 -0.0988
  858POPE   C4B 9756   1.149  15.669   8.708  0.1501  0.0864 -0.0873
  859POPE   NH3 9757  15.397   0.722   6.684 -0.3873 -0.4310 -0.0355
  859POPE   PO4 9758  15.722   0.858   6.822 -0.0254  0.0099  0.0789
  859POPE   GL1 9759  15.504   0.793   7.198 -0.1249  0.2237 -0.1078
  859POPE   GL2 9760  15.572   0.991   7.348  0.2020  0.1691 -0.0048
  859POPE   C1A 9761  15.393   0.508   7.594  0.2379  0.1796  0.1618
  859POPE   D2A 9762  15.457   0.316   8.009 -0.0849  0.2067  0.0176
  859POPE   C3A 9763  15.736   0.183   8.337 -0.1397 -0.1967 -0.2205
  859POPE   C4A 9764  15.846  -0.023   8.672 -0.1851 -0.1850 -0.1766
  859POPE   C1B 9765  15.394   1.004   7.737  0.0920  0.0658 -0.1821
  859POPE   C2B 9766  15.442   0.773   8.141 -0.0715 -0.3470  0.2642
  859POPE   C3B 9767  15.398   0.748   8.610 -0.0176  0.0655  0.0869
  859POPE   C4B 9768  15.065   1.011   8.750  0.2473  0.0165 -0.0344
  860POPE   NH3 9769  14.472   6.493   6.837  0.2906  0.1715 -0.2273
  860POPE   PO4 9770  14.626   6.057   6.832  0.2746  0.1164  0.2457
  860POPE   GL1 9771  14.657   5.840   7.265  0.3208 -0.1290 -0.2108
  860POPE   GL2 9772  14.579   5.489   7.207 -0.2223 -0.3672 -0.1495
  860POPE   C1A 9773  14.506   5.638   7.712  0.0487  0.0052 -0.0222
  860POPE   D2A 9774  14.417   5.529   8.102 -0.0990 -0.0752 -0.0274
  860POPE   C3A 9775  14.675   5.797   8.527  0.3941  0.1020 -0.2110
  860POPE   C4A 9776  14.617   6.152   8.639 -0.0255  0.0516  0.1895
  860POPE   C1B 9777  14.920   5.413   7.426 -0.0282 -0.0840  0.0764
  860POPE   C2B 9778  15.211   5.692   7.646 -0.0871  0.1383  0.0402
  860POPE   C3B 9779  15.346   5.811   8.049  0.1743  0.3608  0.2188
  860POPE   C4B 9780  15.165   5.858   8.452 -0.0887 -0.3409  0.1004
  861POPE   NH3 9781  10.315  10.640   6.162 -0.0707  0.0397 -0.1899
  861POPE   PO4 9782  10.003  10.844   6.337  0.0206 -0.1235  0.1249
  861POPE   GL1 9783  10.234  10.780   6.679 -0.0759 -0.1103  0.2443
  861POPE   GL2 9784  10.020  10.818   6.867  0.1470  0.2766 -0.0823
  861POPE   C1A 9785  10.504  10.929   7.078  0.1521 -0.2217 -0.2328
  861POPE   D2A 9786  10.395  10.822   7.554 -0.0809 -0.1743 -0.1599
  861POPE   C3A 9787  10.139  10.857   7.909 -0.2147  0.1284  0.3124
  861POPE   C4A 9788   9.725  10.903   8.044  0.0404  0.0455 -0.0235
  861POPE   C1B 9789  10.031  10.640   7.240 -0.1247  0.0053  0.2910
  861POPE   C2B 9790   9.906  10.457   7.622  0.1053 -0.1639  0.1708
  861POPE   C3B 9791   9.850  10.360   8.009  0.1917  0.0815  0.2988
  861POPE   C4B 9792   9.722  10.559   8.373 -0.0644 -0.0662 -0.1202
  862POPE   NH3 9793  14.588   3.922   6.477 -0.1041 -0.3537  0.0635
  862POPE   PO4 9794  14.738   4.280   6.564 -0.3518 -0.1815  0.0009
  862POPE   GL1 9795  14.635   4.052   6.966  0.0924  0.4404 -0.1392
  862POPE   GL2 9796  14.472   4.256   7.119 -0.1913  0.1189  0.1646
  862POPE   C1A 9797  14.778   3.963   7.373  0.0118  0.2498 -0.2007
  862POPE   D2A 9798  14.737   3.943   7.836 -0.0516  0.2752 -0.2571
  862POPE   C3A 9799  14.850   3.683   8.213  0.0663 -0.1647 -0.2634
  862POPE   C4A 9800  14.905   3.327   8.622 -0.2068  0.2514  0.0085
  862POPE   C1B 9801  14.581   4.489   7.549  0.0457 -0.0456 -0.0704
  862POPE   C2B 9802  14.679   4.613   8.033 -0.3126  0.1309  0.4138
  862POPE   C3B 9803  14.580   4.611   8.498  0.1016  0.3606 -0.1620
  862POPE   C4B 9804  14.866   4.427   8.875 -0.1094 -0.1829  0.0642
  863POPE   NH3 9805  12.261  17.509   6.407  0.1985  0.2895 -0.1224
  863POPE   PO4 9806  12.066  17.209   6.408  0.2305 -0.0631  0.0261
  863POPE   GL1 9807  11.883  17.020   6.838  0.3133 -0.1040  0.0702
  863POPE   GL2 9808  11.561  17.060   6.709  0.1453 -0.2789 -0.0488
  863POPE   C1A 9809  11.878  16.829   7.197  0.1649 -0.0167 -0.0179
  863POPE   D2A 9810  11.857  16.905   7.586 -0.1353  0.2705 -0.0247
  863POPE   C3A 9811  11.807  16.685   7.945  0.0484  0.2294  0.0306
  863POPE   C4A 9812  11.829  16.828   8.445  0.1769  0.0482 -0.2833
  863POPE   C1B 9813  11.394  17.040   7.148 -0.0635 -0.0177 -0.1852
  863POPE   C2B 9814  11.387  17.254   7.503  0.0794 -0.0437  0.0166
  863POPE   C3B 9815  11.130  17.592   7.697  0.3969 -0.2999  0.0256
  863POPE   C4B 9816  10.921  17.740   8.082 -0.1557  0.0484  0.0213
  864POPE   NH3 9817   5.899  16.465   6.477  0.0042  0.4894 -0.0390
  864POPE   PO4 9818   6.164  16.041   6.309  0.0254 -0.0722  0.1578
  864POPE   GL1 9819   6.142  16.068   6.716  0.0667  0.0137 -0.0398
  864POPE   GL2 9820   6.392  15.881   6.711  0.1678 -0.1991 -0.1914
  864POPE   C1A 9821   6.017  15.969   7.165 -0.1634  0.1572  0.1224
  864POPE   D2A 9822   6.127  16.120   7.621  0.0193 -0.1208  0.0183
  864POPE   C3A 9823   5.780  16.141   7.792  0.0431  0.1915 -0.2213
  864POPE   C4A 9824   5.652  16.288   8.157 -0.0662  0.0953  0.2597
  864POPE   C1B 9825   6.566  15.966   7.083 -0.1519  0.1641 -0.1935
  864POPE   C2B 9826   6.537  15.890   7.540  0.2176  0.0037  0.1527
  864POPE   C3B 9827   6.410  15.878   7.966 -0.0344 -0.1359  0.2713
  864POPE   C4B 9828   6.519  15.769   8.420 -0.0763 -0.1448 -0.0630
  865POPE   NH3 9829   4.977   4.396   6.127  0.0335  0.4277 -0.0433
  865POPE   PO4 9830   4.839   4.094   6.423  0.0444  0.0789 -0.2213
  865POPE   GL1 9831   5.115   4.320   6.725 -0.3409  0.0401 -0.2027
  865POPE   GL2 9832   5.501   4.354   6.709 -0.0351 -0.1006  0.2062
  865POPE   C1A 9833   5.021   4.504   7.112 -0.2144 -0.3006  0.2593
  865POPE   D2A 9834   5.137   4.606   7.528  0.0410  0.0384 -0.0666
  865POPE   C3A 9835   5.350   4.408   7.799  0.1153  0.0131 -0.2299
  865POPE   C4A 9836   5.590   4.492   8.169 -0.2005 -0.1316  0.2081
  865POPE   C1B 9837   5.470   4.325   7.176  0.2963 -0.2552 -0.0946
  865POPE   C2B 9838   5.731   4.306   7.509  0.0701 -0.0642 -0.2067
  865POPE   C3B 9839   5.781   4.071   7.775 -0.1606 -0.1372 -0.0995
  865POPE   C4B 9840   5.977   4.060   8.204 -0.0419 -0.3378  0.0585
  866POPE   NH3 9841  17.228  16.126   6.232  0.0729 -0.3356 -0.0707
  866POPE   PO4 9842  16.853  16.226   6.143  0.3507  0.2212 -0.1980
  866POPE   GL1 9843  16.718  16.280   6.516  0.0130  0.3800  0.0724
  866POPE   GL2 9844  17.008  16.316   6.618  0.1472 -0.1702  0.0732
  866POPE   C1A 9845  16.640  16.049   6.868  0.3273 -0.1398 -0.1694
  866POPE   D2A 9846  16.498  15.829   7.207  0.0335  0.1113 -0.1460
  866POPE   C3A 9847  16.569  15.929   7.573 -0.0427  0.1495  0.0605
  866POPE   C4A 9848  16.337  15.942   7.955  0.0814  0.3726  0.1058
  866POPE   C1B 9849  16.867  16.363   7.154  0.0339 -0.1638  0.0958
  866POPE   C2B 9850  16.656  16.610   7.467  0.0036 -0.3200 -0.0299
  866POPE   C3B 9851  16.483  16.387   7.866  0.0983 -0.2983  0.0364
  866POPE   C4B 9852  16.444  16.351   8.203 -0.0312 -0.1467 -0.2492
  867POPE   NH3 9853  17.162   0.771   6.771  0.2748 -0.2510  0.0527
  867POPE   PO4 9854  17.336   0.439   6.681 -0.0008 -0.1218  0.1643
  867POPE   GL1 9855  17.294   0.375   7.084 -0.2742  0.0002 -0.1233
  867POPE   GL2 9856  17.020   0.406   7.115 -0.0124 -0.0302 -0.3947
  867POPE   C1A 9857  17.221   0.246   7.528  0.0024 -0.2321 -0.0952
  867POPE   D2A 9858  17.230   0.208   7.949  0.1999 -0.1055 -0.1262
  867POPE   C3A 9859  17.143  -0.022   8.268 -0.0837  0.0064 -0.0622
  867POPE   C4A 9860  17.176  -0.355   8.604  0.1371  0.3360 -0.1598
  867POPE   C1B 9861  16.971   0.797   7.387  0.1380  0.1589  0.1465
  867POPE   C2B 9862  16.923   0.648   7.746  0.0785  0.0159 -0.0637
  867POPE   C3B 9863  16.798   0.405   8.123  0.2926  0.0031 -0.1816
  867POPE   C4B 9864  16.772   0.193   8.554  0.2356  0.1285 -0.1504
  868POPE   NH3 9865   2.151  14.736   6.526  0.0380 -0.1798  0.2897
  868POPE   PO4 9866   2.362  15.116   6.620  0.2333 -0.1354 -0.0753
  868POPE   GL1 9867   2.466  15.352   7.044 -0.0580  0.0340 -0.1277
  868POPE   GL2 9868   2.554  15.095   7.120  0.2261 -0.0519  0.2752
  868POPE   C1A 9869   2.211  15.329   7.392  0.0939  0.0613  0.1381
  868POPE   D2A 9870   2.240  15.202   7.828  0.3124 -0.2683  0.1011
  868POPE   C3A 9871   2.049  14.938   8.054  0.1652  0.4007  0.0889
  868POPE   C4A 9872   1.855  14.506   8.098 -0.1328  0.3120  0.0392
  868POPE   C1B 9873   2.620  15.110   7.562 -0.0304 -0.0937  0.1170
  868POPE   C2B 9874   2.625  14.961   7.985 -0.1107 -0.0655  0.1821
  868POPE   C3B 9875   2.745  14.929   8.431  0.0263 -0.1098  0.2051
  868POPE   C4B 9876   3.006  15.096   8.754  0.2681 -0.1903 -0.1191
  869YOPE   NH3 9877   5.436  17.631   6.653  0.1213 -0.1687  0.1594
  869YOPE   PO4 9878   5.373  18.073   6.569 -0.0134 -0.2347  0.1199
  869YOPE   GL1 9879   5.264  18.030   7.022 -0.0581  0.2327 -0.0655
  869YOPE   GL2 9880   5.133  17.748   7.075  0.1270  0.0438 -0.1943
  869YOPE   C1A 9881   5.146  18.178   7.351 -0.1598 -0.0748 -0.1493
  869YOPE   D2A 9882   4.848  18.441   7.494  0.1970  0.1034  0.0685
  869YOPE   C3A 9883   4.611  18.537   7.913  0.0448 -0.0658 -0.3052
  869YOPE   C4A 9884   4.730  18.485   8.315 -0.2903  0.0109 -0.0218
  869YOPE   C1B 9885   5.152  17.704   7.583  0.2192 -0.0158 -0.0261
  869YOPE   C2B 9886   5.166  17.734   8.036  0.1250 -0.1407 -0.0368
  869YOPE   D3B 9887   5.191  17.456   8.457 -0.0386 -0.2599 -0.1287
  869YOPE   C4B 9888   5.214  17.064   8.588  0.0383 -0.1173 -0.2512
  870YOPE   NH3 9889   4.982  14.633   6.174  0.0305  0.1564 -0.2199
  870YOPE   PO4 9890   5.312  14.373   6.346  0.1101 -0.0095 -0.1455
  870YOPE   GL1 9891   5.331  14.551   6.777 -0.3208  0.1009 -0.0964
  870YOPE   GL2 9892   5.056  14.747   6.753  0.2467  0.0392  0.1654
  870YOPE   C1A 9893   5.351  14.630   7.223  0.3120 -0.0132 -0.0714
  870YOPE   D2A 9894   5.358  14.737   7.610 -0.2556 -0.0122 -0.0108
  870YOPE   C3A 9895   5.163  14.951   7.944 -0.2032 -0.0999 -0.1605
  870YOPE   C4A 9896   5.060  15.388   7.949  0.0596  0.3208  0.1132
  870YOPE   C1B 9897   4.955  14.911   7.124 -0.5172 -0.0790 -0.1258
  870YOPE   C2B 9898   4.987  15.061   7.487 -0.2270  0.1563 -0.0797
  870YOPE   D3B 9899   5.103  15.490   7.520  0.0596  0.0572  0.2106
  870YOPE   C4B 9900   5.229  15.558   7.169 -0.1478  0.0515  0.1075
  871YOPE   NH3 9901  14.456  15.410   6.266  0.1638 -0.1929 -0.3567
  871YOPE   PO4 9902  14.280  15.049   6.127  0.2559  0.2112  0.4850
  871YOPE   GL1 9903  14.587  14.942   6.500 -0.0476 -0.0601 -0.0785
  871YOPE   GL2 9904  14.722  15.129   6.668 -0.0578  0.2252  0.0166
  871YOPE   C1A 9905  14.457  14.736   6.871  0.1436 -0.1405  0.2298
  871YOPE   D2A 9906  14.405  14.746   7.249 -0.3145 -0.0206 -0.1592
  871YOPE   C3A 9907  14.506  14.653   7.724 -0.1501 -0.1170 -0.2807
  871YOPE   C4A 9908  14.460  14.370   8.093 -0.0397  0.0651 -0.0326
  871YOPE   C1B 9909  14.819  14.958   7.133  0.0095 -0.0625 -0.1192
  871YOPE   C2B 9910  14.808  15.050   7.549 -0.1911 -0.0394  0.0169
  871YOPE   D3B 9911  14.693  15.077   7.964  0.3230 -0.0972 -0.0223
  871YOPE   C4B 9912  14.532  14.934   8.364  0.3832  0.0702  0.1516
  872YOPE   NH3 9913  12.830   1.230   6.271  0.0109  0.0126 -0.1355
  872YOPE   PO4 9914  12.999   0.832   6.261 -0.1632  0.1133  0.1875
  872YOPE   GL1 9915  13.201   0.924   6.579  0.3036  0.0360 -0.0656
  872YOPE   GL2 9916  13.401   0.630   6.575  0.2079  0.0742  0.1490
  872YOPE   C1A 9917  13.066   1.047   6.977 -0.0894  0.1504  0.2036
  872YOPE   D2A 9918  12.985   1.106   7.436 -0.1387 -0.0855 -0.0615
  872YOPE   C3A 9919  13.098   1.486   7.712  0.0495  0.2665  0.1268
  872YOPE   C4A 9920  13.374   1.796   7.961  0.0350  0.0347 -0.1887
  872YOPE   C1B 9921  13.238   0.427   6.968  0.0772 -0.1791 -0.1950
  872YOPE   C2B 9922  13.039   0.544   7.442 -0.2869 -0.1774 -0.2961
  872YOPE   D3B 9923  13.042   0.784   7.798  0.0996 -0.1014 -0.1311
  872YOPE   C4B 9924  12.890   1.073   7.952  0.3844 -0.1463 -0.0346
  873YOPE   NH3 9925  13.736  13.069   6.069 -0.0272 -0.2607  0.0839
  873YOPE   PO4 9926  13.655  13.539   6.144  0.1685  0.0039 -0.0021
  873YOPE   GL1 9927  13.716  13.348   6.540  0.2377  0.1595  0.2186
  873YOPE   GL2 9928  14.002  13.199   6.637 -0.2915  0.0199  0.2953
  873YOPE   C1A 9929  13.681  13.408   6.998 -0.0843  0.2954  0.4009
  873YOPE   D2A 9930  13.577  13.370   7.444 -0.2118 -0.2403  0.1493
  873YOPE   C3A 9931  13.475  13.516   7.827 -0.0824  0.0143 -0.3182
  873YOPE   C4A 9932  13.292  13.783   8.100  0.2084  0.0019 -0.0500
  873YOPE   C1B 9933  14.210  13.309   7.023  0.2809 -0.0949 -0.1971
  873YOPE   C2B 9934  14.092  13.419   7.484 -0.1420 -0.0573 -0.3303
  873YOPE   D3B 9935  13.975  13.450   7.989 -0.0740  0.0251 -0.1923
  873YOPE   C4B 9936  13.811  13.649   8.263 -0.1540 -0.0649  0.1215
  874YOPE   NH3 9937  15.478   8.015   6.456  0.2866  0.0246 -0.4037
  874YOPE   PO4 9938  15.624   7.766   6.849  0.0165 -0.4560  0.0823
  874YOPE   GL1 9939  15.311   7.683   7.199  0.0859  0.1606  0.0637
  874YOPE   GL2 9940  15.144   7.533   7.056  0.2481 -0.0609 -0.4616
  874YOPE   C1A 9941  15.248   7.809   7.561  0.1330 -0.1179  0.0345
  874YOPE   D2A 9942  15.183   7.865   8.008  0.0894 -0.1166 -0.2016
  874YOPE   C3A 9943  15.191   8.246   8.188 -0.0405 -0.0324 -0.2503
  874YOPE   C4A 9944  15.371   8.559   8.378 -0.0923 -0.2219  0.0269
  874YOPE   C1B 9945  14.777   7.622   7.410  0.0979  0.0673 -0.0403
  874YOPE   C2B 9946  14.711   7.570   7.880 -0.2502 -0.0437  0.3809
  874YOPE   D3B 9947  14.668   7.894   8.192  0.0944 -0.0144 -0.0184
  874YOPE   C4B 9948  14.380   8.031   8.539 -0.0763  0.0255 -0.3588
  875YOPE   NH3 9949   4.844  11.486   6.392  0.1289  0.1670  0.1360
  875YOPE   PO4 9950   5.050  11.088   6.614  0.1790 -0.1120  0.1910
  875YOPE   GL1 9951   4.909  11.186   6.946 -0.0584  0.2308 -0.0101
  875YOPE   GL2 9952   4.596  11.232   6.892 -0.1601 -0.0699 -0.1324
  875YOPE   C1A 9953   4.842  11.358   7.323 -0.2282 -0.0035  0.1119
  875YOPE   D2A 9954   4.833  11.354   7.715  0.0961 -0.0812  0.5477
  875YOPE   C3A 9955   4.992  11.621   7.977 -0.0030 -0.1004 -0.0169
  875YOPE   C4A 9956   5.123  11.986   8.121  0.0323 -0.0288 -0.1147
  875YOPE   C1B 9957   4.290  11.206   7.100  0.0128  0.3241  0.2857
  875YOPE   C2B 9958   4.361  11.256   7.557  0.4402  0.2360  0.3331
  875YOPE   D3B 9959   4.407  11.079   7.970 -0.1069  0.3275  0.0064
  875YOPE   C4B 9960   4.118  11.016   8.391 -0.0833 -0.2451  0.0655
  876YOPE   NH3 9961   9.204   3.056   6.089  0.1802  0.1335  0.0273
  876YOPE   PO4 9962   8.817   2.871   6.090  0.1334 -0.1684  0.1065
  876YOPE   GL1 9963   8.994   2.740   6.439  0.1702  0.4024  0.0296
  876YOPE   GL2 9964   8.820   2.417   6.439  0.2924 -0.1816  0.0465
  876YOPE   C1A 9965   9.056   2.709   6.807  0.1811 -0.2203 -0.1373
  876YOPE   D2A 9966   8.901   2.753   7.164  0.1806 -0.1774 -0.0282
  876YOPE   C3A 9967   8.596   2.444   7.379  0.1059 -0.1858  0.1037
  876YOPE   C4A 9968   8.634   2.300   7.801 -0.0307  0.0071  0.2393
  876YOPE   C1B 9969   8.853   2.240   6.966  0.2163 -0.5141  0.0412
  876YOPE   C2B 9970   8.984   2.100   7.367  0.0554 -0.1227 -0.0666
  876YOPE   D3B 9971   9.112   2.197   7.747  0.3173  0.0391  0.2053
  876YOPE   C4B 9972   9.250   2.344   8.128  0.0220  0.0931 -0.1014
  877YOPE   NH3 9973  14.136   0.800   6.419  0.0553  0.0161  0.2964
  877YOPE   PO4 9974  13.814   0.638   6.321  0.3823  0.0519  0.0002
  877YOPE   GL1 9975  13.841   0.465   6.660 -0.0911 -0.1577 -0.0939
  877YOPE   GL2 9976  14.120   0.486   6.893  0.3161  0.0757 -0.0528
  877YOPE   C1A 9977  13.632   0.106   6.850 -0.1075 -0.1645  0.0324
  877YOPE   D2A 9978  13.477  -0.041   7.164  0.0118 -0.1040 -0.1722
  877YOPE   C3A 9979  13.629  -0.064   7.550 -0.1683  0.0754  0.2909
  877YOPE   C4A 9980  13.679   0.136   7.926 -0.3602 -0.2587  0.0263
  877YOPE   C1B 9981  13.886   0.372   7.245 -0.1003 -0.0256 -0.0681
  877YOPE   C2B 9982  13.517   0.470   7.572 -0.1079 -0.0580 -0.0995
  877YOPE   D3B 9983  13.546   0.693   7.960  0.2032  0.1375  0.0537
  877YOPE   C4B 9984  13.651   0.720   8.345 -0.0333  0.0752  0.2455
  878YOPE   NH3 9985   7.578   7.495   6.229 -0.0597  0.0309 -0.1484
  878YOPE   PO4 9986   7.269   7.835   6.202  0.0315  0.0296 -0.2159
  878YOPE   GL1 9987   7.094   7.673   6.533 -0.2970 -0.0915  0.0670
  878YOPE   GL2 9988   7.220   7.363   6.595  0.1019  0.1192 -0.0358
  878YOPE   C1A 9989   7.097   7.675   6.971  0.1395  0.0543  0.1177
  878YOPE   D2A 9990   7.189   7.507   7.302  0.0489 -0.1017 -0.0850
  878YOPE   C3A 9991   7.110   7.751   7.597  0.0261  0.1627 -0.1471
  878YOPE   C4A 9992   7.193   7.817   8.017 -0.0879  0.2093 -0.0034
  878YOPE   C1B 9993   7.414   7.139   6.940 -0.1228  0.2253  0.1174
  878YOPE   C2B 9994   7.435   7.115   7.519 -0.0360  0.2631  0.3453
  878YOPE   D3B 9995   7.608   7.079   7.932 -0.0428 -0.2139 -0.1071
  878YOPE   C4B 9996   7.781   6.871   8.280 -0.1430 -0.3656 -0.1026
  879YOPE   NH3 9997  15.205  15.013   5.765 -0.0133  0.1295 -0.0000
  879YOPE   PO4 9998  15.456  14.867   6.085  0.0682 -0.0059  0.1914
  879YOPE   GL1 9999  15.620  14.580   6.413  0.2321 -0.2137 -0.0689
  879YOPE   GL210000  15.828  14.440   6.478  0.1719  0.0653  0.3158
  879YOPE   C1A10001  15.526  14.596   6.900  0.0289  0.0553  0.1406
  879YOPE   D2A10002  15.515  14.495   7.318  0.2349  0.2863 -0.2288
  879YOPE   C3A10003  15.595  14.409   7.716 -0.1003 -0.0929 -0.0048
  879YOPE   C4A10004  15.590  14.388   8.124  0.1601 -0.0229  0.2126
  879YOPE   C1B10005  16.085  14.115   6.658  0.1895 -0.0721  0.0155
  879YOPE   C2B10006  16.225  13.900   7.119 -0.3137  0.0581  0.0350
  879YOPE   D3B10007  16.211  13.861   7.496  0.0517 -0.2122  0.2355
  879YOPE   C4B10008  16.218  13.749   7.943  0.2025  0.2146  0.0639
  880YOPE   NH310009   6.464   6.981   5.966  0.0350  0.2216  0.0753
  880YOPE   PO410010   6.559   7.410   5.865 -0.2903 -0.0195  0.1944
  880YOPE   GL110011   6.590   7.355   6.322 -0.2108  0.1565  0.2264
  880YOPE   GL210012   6.405   7.352   6.556  0.0677  0.1696  0.2112
  880YOPE   C1A10013   6.652   6.962   6.673 -0.0064  0.1868  0.0309
  880YOPE   D2A10014   6.584   6.678   6.800 -0.0545 -0.0960 -0.0129
  880YOPE   C3A10015   6.679   6.649   7.292 -0.3296  0.1366 -0.0755
  880YOPE   C4A10016   6.633   6.452   7.636  0.2029  0.1611 -0.1052
  880YOPE   C1B10017   6.608   7.404   6.905 -0.0869 -0.0597 -0.1975
  880YOPE   C2B10018   6.645   7.382   7.416 -0.1332 -0.1448 -0.1573
  880YOPE   D3B10019   6.618   7.353   7.837  0.1653  0.1748  0.0287
  880YOPE   C4B10020   6.396   7.228   8.126  0.0845 -0.0706  0.2768
  881YOPE   NH310021  12.386   3.172   6.566  0.0979  0.1088  0.0491
  881YOPE   PO410022  12.848   3.009   6.529 -0.1139  0.1716 -0.0392
  881YOPE   GL110023  12.850   2.644   6.695  0.1565  0.1058  0.3626
  881YOPE   GL210024  12.956   2.718   7.080 -0.1571 -0.3399 -0.3928
  881YOPE   C1A10025  12.582   2.405   6.948 -0.1133  0.1859  0.0993
  881YOPE   D2A10026  12.487   2.112   7.225 -0.2747  0.0823 -0.0181
  881YOPE   C3A10027  12.572   1.943   7.652 -0.0671 -0.2458  0.0976
  881YOPE   C4A10028  12.842   1.842   7.938 -0.1000  0.2390  0.0329
  881YOPE   C1B10029  12.845   2.739   7.383 -0.0286  0.2815 -0.1277
  881YOPE   C2B10030  12.740   2.395   7.652  0.0902  0.0903 -0.0689
  881YOPE   D3B10031  12.628   2.394   8.052  0.1941  0.2907  0.0782
  881YOPE   C4B10032  12.799   2.401   8.358  0.0353  0.0137 -0.1214
  882YOPE   NH310033  14.803  14.164   6.071 -0.4218  0.1500  0.1180
  882YOPE   PO410034  15.079  14.568   6.004  0.1399  0.0481  0.1841
  882YOPE   GL110035  14.957  14.562   6.455 -0.0717 -0.2144 -0.0093
  882YOPE   GL210036  14.651  14.473   6.521  0.1525  0.1414  0.2268
  882YOPE   C1A10037  15.004  14.573   6.863 -0.0644  0.0419  0.1787
  882YOPE   D2A10038  14.960  14.530   7.296 -0.0470  0.0303 -0.2920
  882YOPE   C3A10039  15.108  14.565   7.748 -0.2437 -0.2053  0.1869
  882YOPE   C4A10040  15.014  14.781   8.149  0.0038  0.0969 -0.0560
  882YOPE   C1B10041  14.547  14.243   6.882  0.0113 -0.1858 -0.0469
  882YOPE   C2B10042  14.552  14.280   7.339 -0.0449  0.2265  0.0811
  882YOPE   D3B10043  14.815  14.163   7.720  0.0015 -0.0849  0.1929
  882YOPE   C4B10044  14.949  14.271   8.116 -0.0286  0.0534 -0.0679
  883YOPE   NH310045  13.600   6.814   6.605  0.1787 -0.0457 -0.3485
  883YOPE   PO410046  13.390   7.266   6.518  0.0736 -0.0514 -0.3554
  883YOPE   GL110047  13.511   7.441   7.047  0.2117 -0.0182  0.3279
  883YOPE   GL210048  13.701   7.688   6.955 -0.0176  0.1836  0.3124
  883YOPE   C1A10049  13.452   7.394   7.567 -0.2582  0.4020  0.2288
  883YOPE   D2A10050  13.502   7.142   7.954 -0.1346  0.1358  0.0939
  883YOPE   C3A10051  13.434   7.097   8.287  0.2236 -0.0553 -0.4582
  883YOPE   C4A10052  13.523   6.892   8.696  0.1343  0.2332 -0.0014
  883YOPE   C1B10053  13.945   7.627   7.269  0.1942 -0.0748 -0.0304
  883YOPE   C2B10054  13.802   7.671   7.746  0.2225 -0.0670 -0.0642
  883YOPE   D3B10055  13.830   7.509   8.187 -0.1179 -0.1808  0.1087
  883YOPE   C4B10056  13.857   7.245   8.556  0.0695  0.1419 -0.0276
  884YOPE   NH310057  13.892   8.774   6.179  0.1960 -0.1760 -0.1592
  884YOPE   PO410058  13.849   8.612   6.521 -0.0450  0.4154 -0.0177
  884YOPE   GL110059  13.601   8.669   6.798  0.2284  0.0195 -0.1466
  884YOPE   GL210060  13.265   8.460   6.895 -0.0351 -0.3311  0.0064
  884YOPE   C1A10061  13.749   8.671   7.191 -0.0815 -0.1914  0.2446
  884YOPE   D2A10062  14.077   8.754   7.359 -0.1138 -0.2409  0.0360
  884YOPE   C3A10063  14.115   8.756   7.782  0.0421  0.2515 -0.0294
  884YOPE   C4A10064  13.888   8.699   8.129  0.1089 -0.1149  0.2450
  884YOPE   C1B10065  13.298   8.409   7.252  0.1698  0.2512 -0.3096
  884YOPE   C2B10066  13.331   8.392   7.596  0.0205  0.0652  0.0415
  884YOPE   D3B10067  13.408   8.461   7.981 -0.2050 -0.0131 -0.0977
  884YOPE   C4B10068  13.479   8.461   8.442 -0.2258 -0.1404 -0.0608
  885YOPE   NH310069   0.750   8.210   6.552  0.2318 -0.3423  0.1094
  885YOPE   PO410070   0.363   8.272   6.593 -0.0350 -0.0538 -0.0423
  885YOPE   GL110071   0.181   8.365   6.943 -0.1698  0.1109  0.1290
  885YOPE   GL210072   0.178   8.046   7.102  0.2604 -0.3671 -0.0651
  885YOPE   C1A10073   0.141   8.534   7.344 -0.3755  0.4263  0.2169
  885YOPE   D2A10074  -0.030   8.483   7.718  0.3099 -0.1892  0.1587
  885YOPE   C3A10075   0.112   8.577   8.055 -0.1424 -0.2541  0.2393
  885YOPE   C4A10076   0.285   8.543   8.453 -0.0990 -0.1924 -0.2150
  885YOPE   C1B10077   0.289   7.860   7.490  0.2090  0.2009 -0.0379
  885YOPE   C2B10078   0.294   7.982   7.980  0.1156 -0.1063 -0.1780
  885YOPE   D3B10079   0.298   8.030   8.434 -0.3832  0.0918  0.0005
  885YOPE   C4B10080   0.550   8.185   8.798 -0.2260 -0.0683 -0.1986
  886YOPE   NH310081  17.459  10.965   6.023  0.2217  0.0680  0.1583
  886YOPE   PO410082  17.112  11.154   6.214  0.4559 -0.4956 -0.0284
  886YOPE   GL110083  16.988  11.054   6.583 -0.2561  0.0991  0.0899
  886YOPE   GL210084  16.684  10.856   6.431 -0.0669  0.2132  0.2248
  886YOPE   C1A10085  17.052  11.074   7.030 -0.0842  0.0286 -0.0544
  886YOPE   D2A10086  17.143  11.209   7.473 -0.1989 -0.1205 -0.0159
  886YOPE   C3A10087  16.940  11.091   7.848 -0.1656 -0.1566  0.0683
  886YOPE   C4A10088  16.835  11.330   8.240  0.1200 -0.1568  0.0611
  886YOPE   C1B10089  16.562  11.041   6.797 -0.2242  0.1801 -0.2664
  886YOPE   C2B10090  16.641  11.053   7.324  0.0108 -0.0591 -0.1167
  886YOPE   D3B10091  16.581  10.750   7.746 -0.0242 -0.2433  0.2341
  886YOPE   C4B10092  16.701  10.396   7.947  0.1153  0.1344 -0.0554
  887YOPE   NH310093  14.092   6.196   6.749  0.2199 -0.1752  0.1177
  887YOPE   PO410094  13.754   6.310   6.658  0.0926  0.2957 -0.0184
  887YOPE   GL110095  13.519   6.450   6.978  0.1307  0.1300  0.1866
  887YOPE   GL210096  13.357   6.203   7.218 -0.2711  0.1645  0.2917
  887YOPE   C1A10097  13.191   6.642   7.177 -0.1855 -0.0018 -0.2514
  887YOPE   D2A10098  13.154   6.903   7.448 -0.2909  0.2181  0.3096
  887YOPE   C3A10099  13.064   6.992   7.868  0.0587  0.4230 -0.0709
  887YOPE   C4A10100  12.954   7.334   8.158  0.2416 -0.0938  0.1810
  887YOPE   C1B10101  13.366   6.005   7.586 -0.1467 -0.0398 -0.2531
  887YOPE   C2B10102  13.309   6.091   7.883 -0.2543  0.0931 -0.0594
  887YOPE   D3B10103  13.316   6.335   8.137  0.2147  0.0708 -0.0925
  887YOPE   C4B10104  13.334   6.455   8.514  0.0415 -0.2734  0.0971
  888YOPE   NH310105   0.011   1.028   6.666  0.3715 -0.1103  0.0993
  888YOPE   PO410106   0.295   0.852   6.800  0.0566  0.1201 -0.0643
  888YOPE   GL110107   0.105   0.943   7.203  0.1225 -0.3189 -0.1506
  888YOPE   GL210108   0.173   1.292   7.172 -0.2012 -0.1009  0.0197
  888YOPE   C1A10109   0.078   0.835   7.515  0.1108  0.0381  0.2426
  888YOPE   D2A10110   0.138   0.952   7.944 -0.0493 -0.0712  0.1066
  888YOPE   C3A10111   0.494   0.848   8.270  0.0017 -0.1699 -0.0167
  888YOPE   C4A10112   0.659   0.869   8.699 -0.1448 -0.2747 -0.3044
  888YOPE   C1B10113   0.050   1.452   7.541  0.1244  0.0060  0.1159
  888YOPE   C2B10114  -0.044   1.405   7.983 -0.0355 -0.2054 -0.1255
  888YOPE   D3B10115  -0.273   1.389   8.417 -0.1607 -0.1014  0.2750
  888YOPE   C4B10116  -0.819   1.311   8.298 -0.0071  0.1227  0.1612
  889YOPE   NH310117   0.181   3.402   6.580  0.0945  0.1646 -0.1911
  889YOPE   PO410118  -0.248   3.430   6.595  0.1101  0.2284  0.0360
  889YOPE   GL110119  -0.076   3.340   7.022  0.0529  0.0601  0.0266
  889YOPE   GL210120   0.240   3.096   7.121 -0.2512 -0.1520  0.1029
  889YOPE   C1A10121  -0.180   3.219   7.419 -0.3947 -0.0098  0.2558
  889YOPE   D2A10122  -0.139   2.989   7.772 -0.1324  0.0340 -0.1921
  889YOPE   C3A10123  -0.172   2.708   8.124  0.0110 -0.0236  0.0392
  889YOPE   C4A10124  -0.129   2.845   8.538 -0.0093 -0.1440  0.1884
  889YOPE   C1B10125   0.253   2.911   7.481 -0.4980 -0.1328  0.3565
  889YOPE   C2B10126   0.290   2.856   7.867  0.0424 -0.1950 -0.5356
  889YOPE   D3B10127   0.352   2.820   8.318  0.2361 -0.0786 -0.0797
  889YOPE   C4B10128   0.591   2.871   8.637 -0.0030 -0.0199 -0.0125
  890YOPE   NH310129   0.117   8.712   6.524 -0.0121 -0.0902 -0.1542
  890YOPE   PO410130  -0.022   9.152   6.557  0.0856 -0.0198  0.0612
  890YOPE   GL110131   0.014   8.869   6.969 -0.0393 -0.0365 -0.1452
  890YOPE   GL210132   0.426   8.818   6.934 -0.1461  0.3002  0.0733
  890YOPE   C1A10133  -0.183   9.006   7.351 -0.2112 -0.3605  0.2539
  890YOPE   D2A10134  -0.375   9.401   7.474 -0.2061 -0.4161  0.2328
  890YOPE   C3A10135  -0.058   9.536   7.830 -0.0216  0.2617 -0.1992
  890YOPE   C4A10136   0.269   9.537   8.132 -0.1298  0.2274 -0.3817
  890YOPE   C1B10137   0.584   8.718   7.340  0.1151 -0.1578  0.2206
  890YOPE   C2B10138   0.502   8.752   7.689  0.1386 -0.2438 -0.2401
  890YOPE   D3B10139   0.362   9.026   8.056  0.1290  0.1201 -0.2197
  890YOPE   C4B10140   0.179   9.164   8.455 -0.1121 -0.0562  0.4581
  891YOPE   NH310141  17.972  12.453   6.023 -0.3512  0.0151  0.2429
  891YOPE   PO410142  18.291  12.085   5.771 -0.0766  0.2927 -0.1147
  891YOPE   GL110143  18.429  12.015   6.157 -0.1106 -0.1508 -0.0654
  891YOPE   GL210144  18.418  12.342   6.307  0.0596  0.0392 -0.2152
  891YOPE   C1A10145  18.331  11.838   6.562  0.1442 -0.3456  0.0416
  891YOPE   D2A10146  18.211  11.567   6.776  0.0882  0.0840  0.0219
  891YOPE   C3A10147  18.052  11.559   7.195 -0.0653 -0.2924  0.0736
  891YOPE   C4A10148  18.018  11.631   7.642  0.0040 -0.0717  0.3374
  891YOPE   C1B10149  18.540  12.226   6.786 -0.0624 -0.1426 -0.1365
  891YOPE   C2B10150  18.501  11.896   7.092  0.0345  0.2665 -0.1174
  891YOPE   D3B10151  18.759  11.741   7.445  0.0549 -0.1305 -0.0141
  891YOPE   C4B10152  19.037  11.230   7.512 -0.0092  0.3004 -0.1729
  892YOPE   NH310153  16.164  10.164   6.296 -0.1883  0.0225  0.1797
  892YOPE   PO410154  16.462  10.451   6.119 -0.0456 -0.1651  0.1419
  892YOPE   GL110155  16.414  10.502   6.607 -0.1149 -0.1104  0.1811
  892YOPE   GL210156  16.183  10.661   6.704 -0.0520 -0.0829  0.0540
  892YOPE   C1A10157  16.352  10.580   7.157 -0.1330 -0.1807  0.0764
  892YOPE   D2A10158  16.566  10.340   7.432  0.1970  0.0429  0.0877
  892YOPE   C3A10159  16.449  10.053   7.674  0.3027  0.0320  0.1080
  892YOPE   C4A10160  16.657   9.879   8.027 -0.0072 -0.0058  0.2241
  892YOPE   C1B10161  16.160  11.013   7.094 -0.0268 -0.1551  0.1639
  892YOPE   C2B10162  16.164  11.018   7.502 -0.0923 -0.2833 -0.0213
  892YOPE   D3B10163  15.989  10.960   7.901 -0.1182 -0.4782 -0.0395
  892YOPE   C4B10164  16.025  10.861   8.247 -0.1020 -0.2949 -0.0569
  893YOPE   NH310165   7.015  12.038   5.989 -0.1634 -0.1029 -0.0751
  893YOPE   PO410166   7.436  11.859   5.907 -0.2554 -0.1943 -0.0479
  893YOPE   GL110167   7.277  11.812   6.373  0.0785  0.2044 -0.0273
  893YOPE   GL210168   7.274  11.419   6.506 -0.0284  0.0796  0.0422
  893YOPE   C1A10169   7.324  11.834   6.766 -0.1548 -0.0470  0.2608
  893YOPE   D2A10170   7.219  11.796   7.196  0.1554  0.0308 -0.2752
  893YOPE   C3A10171   6.936  11.866   7.547  0.1082  0.3451  0.0883
  893YOPE   C4A10172   7.023  12.154   7.787  0.1880  0.1032 -0.0264
  893YOPE   C1B10173   7.464  11.432   7.040  0.0572  0.1043 -0.0950
  893YOPE   C2B10174   7.555  11.544   7.402 -0.1195 -0.0098 -0.0475
  893YOPE   D3B10175   7.891  11.666   7.603  0.0143  0.0031 -0.3493
  893YOPE   C4B10176   8.260  11.922   7.761 -0.0040  0.0851  0.1164
  894YOPE   NH310177  16.762   8.752   6.283 -0.3459  0.0291 -0.0360
  894YOPE   PO410178  16.443   8.696   6.556  0.0168 -0.2520  0.0146
  894YOPE   GL110179  16.445   8.700   6.978 -0.0955 -0.1880 -0.1727
  894YOPE   GL210180  16.701   8.960   7.058 -0.2263  0.3404  0.3671
  894YOPE   C1A10181  16.594   8.484   7.335 -0.2112  0.1396 -0.0455
  894YOPE   D2A10182  16.687   8.159   7.573  0.0626 -0.2754  0.1557
  894YOPE   C3A10183  16.566   8.121   8.000  0.0960 -0.0946  0.0690
  894YOPE   C4A10184  16.680   8.330   8.383  0.0661  0.2389  0.1671
  894YOPE   C1B10185  16.804   9.068   7.428  0.0729 -0.4187 -0.0400
  894YOPE   C2B10186  16.799   9.150   7.803  0.0549 -0.3045  0.1848
  894YOPE   D3B10187  16.604   9.358   8.205 -0.0716 -0.2135 -0.0274
  894YOPE   C4B10188  16.209   9.414   8.397  0.1211 -0.1576 -0.2789
  895YOPE   NH310189  10.155   5.587   6.266  0.0066 -0.1368 -0.2827
  895YOPE   PO410190  10.530   5.299   6.130  0.1683  0.0422 -0.0165
  895YOPE   GL110191  10.502   5.289   6.556  0.0012 -0.0603 -0.1033
  895YOPE   GL210192  10.537   5.566   6.757 -0.0008 -0.1298 -0.0502
  895YOPE   C1A10193  10.846   5.041   6.842 -0.0761 -0.1948  0.2484
  895YOPE   D2A10194  10.991   4.835   7.107 -0.2795  0.3165 -0.2191
  895YOPE   C3A10195  10.800   4.825   7.391 -0.1966  0.4505 -0.0096
  895YOPE   C4A10196  10.779   4.623   7.779  0.1310  0.4313  0.0687
  895YOPE   C1B10197  10.419   5.347   7.129 -0.0220 -0.0164 -0.0616
  895YOPE   C2B10198  10.450   5.186   7.518 -0.0300 -0.2998  0.1081
  895YOPE   D3B10199  10.231   5.238   7.828  0.1786  0.1986  0.0734
  895YOPE   C4B10200  10.081   5.536   8.134 -0.1856  0.3959 -0.0151
  896YOPE   NH310201   7.479   2.511   5.993  0.3841  0.1206 -0.0994
  896YOPE   PO410202   7.883   2.220   5.930  0.1076  0.2059  0.1880
  896YOPE   GL110203   8.147   2.380   6.212  0.0955 -0.2489 -0.0178
  896YOPE   GL210204   8.362   2.159   6.272  0.0155 -0.2194 -0.0588
  896YOPE   C1A10205   8.291   2.456   6.627  0.1676 -0.3509  0.0799
  896YOPE   D2A10206   8.243   2.469   7.078  0.0530 -0.0774  0.2235
  896YOPE   C3A10207   7.899   2.770   7.338 -0.0848 -0.0949  0.1853
  896YOPE   C4A10208   8.013   2.753   7.797 -0.0399 -0.1225  0.1461
  896YOPE   C1B10209   8.495   1.950   6.703  0.1334  0.3178 -0.1171
  896YOPE   C2B10210   8.532   1.911   7.094 -0.0748  0.4530  0.2517
  896YOPE   D3B10211   8.292   2.044   7.377  0.0863 -0.1099  0.2033
  896YOPE   C4B10212   8.126   2.355   7.598 -0.1424 -0.2883 -0.1020
  897YOPE   NH310213   1.029   2.568   6.827 -0.1556  0.0592 -0.0267
  897YOPE   PO410214   1.125   2.146   6.733 -0.2094  0.1095  0.0064
  897YOPE   GL110215   1.104   2.162   7.188  0.3497 -0.0076 -0.0729
  897YOPE   GL210216   1.378   2.097   7.419  0.0961 -0.3080  0.1936
  897YOPE   C1A10217   0.936   1.926   7.676  0.0031  0.1221 -0.0408
  897YOPE   D2A10218   0.868   1.621   7.978  0.0982 -0.0828 -0.1494
  897YOPE   C3A10219   1.028   1.771   8.385  0.0393  0.0966 -0.1484
  897YOPE   C4A10220   0.903   2.021   8.756 -0.1703  0.1944 -0.0850
  897YOPE   C1B10221   1.386   1.752   7.705 -0.0301  0.4090  0.0249
  897YOPE   C2B10222   1.308   1.446   8.042  0.0052 -0.1399  0.1658
  897YOPE   D3B10223   1.393   1.016   8.108 -0.2002 -0.0467  0.0337
  897YOPE   C4B10224   1.620   0.852   8.422 -0.1281 -0.1111 -0.1783
  898YOPE   NH310225  11.180  16.957   6.026 -0.2886  0.0699 -0.1883
  898YOPE   PO410226  10.958  17.360   6.119  0.0980 -0.2073 -0.0744
  898YOPE   GL110227  11.106  17.484   6.527  0.1044  0.0697  0.0411
  898YOPE   GL210228  10.959  17.823   6.607  0.2711  0.4514 -0.2573
  898YOPE   C1A10229  11.038  17.244   6.907  0.3707 -0.1732  0.3866
  898YOPE   D2A10230  10.916  17.433   7.282 -0.0681 -0.1474  0.0332
  898YOPE   C3A10231  10.740  17.387   7.762  0.0414 -0.0804 -0.3090
  898YOPE   C4A10232  10.871  17.305   8.239  0.2207  0.2203  0.4218
  898YOPE   C1B10233  11.007  18.066   6.642 -0.4161 -0.0908 -0.1106
  898YOPE   C2B10234  10.968  18.359   7.060  0.0575  0.0556 -0.0891
  898YOPE   D3B10235  10.972  18.408   7.511  0.4588  0.0612  0.3367
  898YOPE   C4B10236  10.876  18.590   7.880  0.0647  0.0972 -0.3514
  899YOPE   NH310237   0.898   6.671   7.133  0.0984  0.0143 -0.0669
  899YOPE   PO410238   0.482   6.446   7.034  0.1737  0.0395  0.0714
  899YOPE   GL110239   0.399   6.587   7.360 -0.1447 -0.0359  0.0430
  899YOPE   GL210240   0.529   6.843   7.430  0.0193 -0.0742 -0.1158
  899YOPE   C1A10241   0.517   6.495   7.789  0.0219  0.1419  0.0478
  899YOPE   D2A10242   0.607   6.565   8.190 -0.5203 -0.2817 -0.0251
  899YOPE   C3A10243   0.767   6.771   8.488  0.0091 -0.0511  0.0093
  899YOPE   C4A10244   0.859   6.966   8.903 -0.2189  0.0901  0.2051
  899YOPE   C1B10245   0.837   6.939   7.736  0.0954 -0.2984 -0.2390
  899YOPE   C2B10246   0.701   7.106   8.082 -0.0445 -0.1640  0.0174
  899YOPE   D3B10247   0.645   7.377   8.448  0.2270  0.2681 -0.0758
  899YOPE   C4B10248   0.733   7.597   8.800  0.0242 -0.0860 -0.0681
  900YOPE   NH310249   1.339   0.907   6.555  0.1012  0.0479  0.1876
  900YOPE   PO410250   1.365   0.481   6.524  0.0955  0.0049 -0.0970
  900YOPE   GL110251   1.550   0.532   6.911  0.1315 -0.2037  0.1254
  900YOPE   GL210252   1.656   0.803   7.001  0.2573  0.2219  0.3234
  900YOPE   C1A10253   1.598   0.465   7.332  0.2659  0.0840  0.0929
  900YOPE   D2A10254   1.553   0.168   7.650 -0.0415 -0.1429 -0.0352
  900YOPE   C3A10255   1.785   0.242   8.124  0.2503 -0.1403  0.2045
  900YOPE   C4A10256   1.968   0.088   8.530 -0.1139 -0.3655 -0.1661
  900YOPE   C1B10257   1.606   0.909   7.522 -0.2502  0.3081  0.1928
  900YOPE   C2B10258   1.575   0.683   7.833 -0.0310 -0.0260  0.1632
  900YOPE   D3B10259   1.329   0.489   8.102 -0.2903 -0.0735 -0.1697
  900YOPE   C4B10260   1.348   0.049   8.247 -0.0807 -0.0982  0.0599
  901YOPE   NH310261  12.211  11.800   6.210  0.0482 -0.0257 -0.0165
  901YOPE   PO410262  12.000  11.588   5.799  0.0910  0.1055  0.0525
  901YOPE   GL110263  11.930  11.388   6.268 -0.1237 -0.2071 -0.2806
  901YOPE   GL210264  12.261  11.378   6.540  0.1900 -0.0330 -0.1113
  901YOPE   C1A10265  11.752  11.216   6.726 -0.1523  0.3446  0.0153
  901YOPE   D2A10266  11.406  11.128   6.980 -0.1630 -0.1339 -0.2195
  901YOPE   C3A10267  11.139  11.537   6.965 -0.0958  0.0086 -0.1022
  901YOPE   C4A10268  11.075  12.022   6.912 -0.0335 -0.0021 -0.1199
  901YOPE   C1B10269  12.179  11.289   6.966  0.1248 -0.3077  0.0422
  901YOPE   C2B10270  12.037  11.336   7.475  0.0425  0.1130  0.1219
  901YOPE   D3B10271  11.731  11.421   7.777 -0.0073 -0.1010  0.1224
  901YOPE   C4B10272  11.457  11.772   7.846  0.0270 -0.1488  0.1211
  902YOPE   NH310273   0.746   0.873   6.703  0.0229 -0.2374  0.2424
  902YOPE   PO410274   0.687   0.508   6.459  0.1692 -0.0143 -0.3178
  902YOPE   GL110275   0.594   0.428   6.942 -0.2125 -0.3823  0.2276
  902YOPE   GL210276   0.687   0.164   7.045 -0.1121 -0.1781  0.1008
  902YOPE   C1A10277   0.510   0.615   7.335  0.0206  0.1685  0.0875
  902YOPE   D2A10278   0.494   0.614   7.785  0.0832  0.0966  0.1638
  902YOPE   C3A10279   0.146   0.495   8.189 -0.1567  0.2301  0.1044
  902YOPE   C4A10280  -0.078   0.276   8.481  0.0547  0.0049 -0.1078
  902YOPE   C1B10281   0.505   0.143   7.544  0.1001 -0.3333  0.3149
  902YOPE   C2B10282   0.520   0.097   7.867  0.0077  0.1320  0.0432
  902YOPE   D3B10283   0.425   0.078   8.298  0.0677 -0.2624 -0.1440
  902YOPE   C4B10284   0.557   0.371   8.623 -0.0833 -0.1663 -0.0925
  903YOPE   NH310285   9.170   5.978   5.977 -0.1338  0.0286  0.1048
  903YOPE   PO410286   8.882   5.702   6.004 -0.1665  0.3831  0.3085
  903YOPE   GL110287   8.752   5.919   6.369 -0.1168 -0.3032  0.1879
  903YOPE   GL210288   8.957   6.039   6.563  0.0405 -0.0439  0.0698
  903YOPE   C1A10289   8.254   5.954   6.604  0.0818 -0.1292 -0.0585
  903YOPE   D2A10290   8.035   6.168   6.866 -0.2377  0.1374 -0.2475
  903YOPE   C3A10291   8.289   6.205   7.229 -0.1420 -0.2389  0.0525
  903YOPE   C4A10292   8.360   6.185   7.595  0.0242  0.2233 -0.3892
  903YOPE   C1B10293   9.146   5.811   6.938  0.1241  0.2217 -0.0429
  903YOPE   C2B10294   9.028   5.587   7.337  0.1534 -0.2895  0.1355
  903YOPE   D3B10295   8.741   5.784   7.634  0.0056 -0.1483  0.1689
  903YOPE   C4B10296   8.451   5.736   7.935  0.1852 -0.0027 -0.2183
  904YOPE   NH310297  10.474  14.991   5.576  0.1766  0.0010 -0.0605
  904YOPE   PO410298  10.298  15.147   5.992 -0.2333 -0.1248  0.0410
  904YOPE   GL110299  10.191  15.367   6.395  0.0977 -0.1660 -0.2435
  904YOPE   GL210300  10.493  15.388   6.419  0.0293 -0.1499 -0.0230
  904YOPE   C1A10301  10.021  15.337   6.808 -0.0614 -0.0493  0.1648
  904YOPE   D2A10302   9.928  15.162   7.191 -0.0557 -0.0422 -0.0137
  904YOPE   C3A10303   9.882  15.493   7.526  0.3457 -0.0115  0.1814
  904YOPE   C4A10304   9.841  15.317   7.970  0.1899  0.0513  0.0134
  904YOPE   C1B10305  10.509  15.284   6.841  0.1369  0.2217  0.2803
  904YOPE   C2B10306  10.414  14.971   7.128  0.0698 -0.3369 -0.0605
  904YOPE   D3B10307  10.312  14.728   7.386 -0.1908  0.0651 -0.0335
  904YOPE   C4B10308  10.245  14.560   7.774 -0.1748 -0.1648 -0.0190
  905YOPE   NH310309   1.204   7.505   6.710  0.2756 -0.1158  0.1899
  905YOPE   PO410310   0.927   7.761   6.582 -0.3354 -0.1225 -0.0866
  905YOPE   GL110311   1.056   7.906   6.955  0.0570 -0.0059 -0.2023
  905YOPE   GL210312   1.128   7.708   7.322  0.0923 -0.1784  0.1280
  905YOPE   C1A10313   1.331   8.172   7.276 -0.0194  0.3373 -0.0646
  905YOPE   D2A10314   1.364   8.324   7.628  0.3501  0.1080 -0.2232
  905YOPE   C3A10315   1.700   8.406   7.917 -0.0341 -0.1404 -0.3057
  905YOPE   C4A10316   1.752   8.144   8.275 -0.2322 -0.1552  0.1222
  905YOPE   C1B10317   1.219   7.822   7.726 -0.1512  0.0660 -0.1293
  905YOPE   C2B10318   1.289   8.011   8.102  0.2845 -0.0438 -0.1930
  905YOPE   D3B10319   1.256   8.415   8.169 -0.1730 -0.0305  0.0879
  905YOPE   C4B10320   1.193   8.714   8.384 -0.1767  0.0423 -0.1309
  906YOPE   NH310321  15.393  12.817   6.040  0.0223  0.0337  0.0544
  906YOPE   PO410322  15.015  12.828   6.104 -0.3553 -0.1535  0.0799
  906YOPE   GL110323  15.021  12.971   6.453  0.1305 -0.0182  0.0826
  906YOPE   GL210324  15.382  13.010   6.589  0.0811 -0.1052  0.0687
  906YOPE   C1A10325  14.807  13.101   6.810 -0.0022  0.1582  0.0288
  906YOPE   D2A10326  14.967  12.983   7.152 -0.0530 -0.0166  0.0662
  906YOPE   C3A10327  15.125  13.173   7.560  0.2183 -0.0959  0.0620
  906YOPE   C4A10328  15.144  13.017   7.979 -0.0470 -0.0273  0.2342
  906YOPE   C1B10329  15.543  13.003   7.046 -0.1050 -0.1524  0.2267
  906YOPE   C2B10330  15.656  13.062   7.442  0.0988 -0.2171  0.0943
  906YOPE   D3B10331  15.922  12.990   7.791 -0.0686  0.2066  0.2865
  906YOPE   C4B10332  16.120  13.205   8.176 -0.3035  0.0492  0.3083
  907YOPE   NH310333  12.508   3.764   6.350  0.0612 -0.1588  0.0671
  907YOPE   PO410334  12.157   3.489   6.328  0.3575 -0.2842 -0.2894
  907YOPE   GL110335  12.193   3.625   6.719  0.2992 -0.1644  0.0412
  907YOPE   GL210336  12.355   3.999   6.766  0.2565  0.1671 -0.0867
  907YOPE   C1A10337  11.982   3.854   7.025  0.0598 -0.1910 -0.2214
  907YOPE   D2A10338  12.139   4.102   7.395  0.0376  0.0486 -0.3309
  907YOPE   C3A10339  12.183   3.906   7.744  0.2027 -0.2643 -0.0394
  907YOPE   C4A10340  11.995   4.164   8.153 -0.0332  0.0929 -0.0740
  907YOPE   C1B10341  12.649   4.006   7.135  0.1233  0.1369  0.0093
  907YOPE   C2B10342  12.734   3.973   7.537  0.0289 -0.2957 -0.0198
  907YOPE   D3B10343  12.629   3.907   7.987 -0.4079 -0.3116 -0.0212
  907YOPE   C4B10344  12.284   3.687   8.175 -0.1880 -0.2278 -0.2257
  908YOPE   NH310345  15.031  13.317   5.917 -0.0577 -0.1892 -0.2148
  908YOPE   PO410346  15.549  13.258   5.821  0.0772 -0.0055 -0.2925
  908YOPE   GL110347  15.465  13.352   6.240 -0.1087 -0.2261 -0.1087
  908YOPE   GL210348  15.505  13.680   6.400 -0.0678  0.4228  0.1366
  908YOPE   C1A10349  15.671  13.356   6.755  0.0807  0.0726  0.0379
  908YOPE   D2A10350  15.898  13.625   6.980 -0.2118  0.0118 -0.0144
  908YOPE   C3A10351  15.904  13.506   7.297  0.0324  0.0173  0.0619
  908YOPE   C4A10352  15.993  13.427   7.625 -0.0559 -0.1352  0.1187
  908YOPE   C1B10353  15.620  14.001   6.573  0.0572  0.0462 -0.0418
  908YOPE   C2B10354  15.667  14.125   7.079 -0.6402  0.1374  0.2006
  908YOPE   D3B10355  15.733  14.008   7.408 -0.0808  0.2586  0.0319
  908YOPE   C4B10356  15.803  13.862   7.778 -0.1108  0.1880  0.0890
  909YOPE   NH310357  10.357  15.723   5.996 -0.1965 -0.0209  0.0816
  909YOPE   PO410358  10.319  16.109   6.100  0.0689 -0.0993 -0.1708
  909YOPE   GL110359  10.276  15.927   6.462 -0.2141 -0.2259  0.1996
  909YOPE   GL210360  10.124  16.156   6.696 -0.0278  0.3525 -0.0621
  909YOPE   C1A10361  10.463  15.785   6.772  0.0447 -0.0800  0.0994
  909YOPE   D2A10362  10.752  15.763   7.128 -0.1870  0.0907 -0.0557
  909YOPE   C3A10363  10.649  15.505   7.334  0.0411 -0.0946  0.0264
  909YOPE   C4A10364  10.374  15.290   7.515 -0.0186 -0.0662 -0.0439
  909YOPE   C1B10365  10.017  16.205   7.030 -0.2169  0.0697 -0.0142
  909YOPE   C2B10366  10.080  16.342   7.391  0.4490  0.1053 -0.0003
  909YOPE   D3B10367  10.237  16.692   7.721  0.1592 -0.1972 -0.0712
  909YOPE   C4B10368  10.284  17.096   7.780  0.2296  0.2275  0.0775
  910YOPE   NH310369  14.163   3.336   6.520  0.3479  0.1368 -0.0190
  910YOPE   PO410370  14.088   3.768   6.392 -0.0609  0.2419  0.0035
  910YOPE   GL110371  14.158   3.791   6.777 -0.1502  0.3306 -0.5293
  910YOPE   GL210372  13.885   3.717   6.881  0.1463 -0.0514 -0.0215
  910YOPE   C1A10373  14.232   3.863   7.200 -0.0863  0.0566  0.0553
  910YOPE   D2A10374  14.309   4.099   7.628 -0.3207  0.1135  0.1512
  910YOPE   C3A10375  14.260   4.352   7.992  0.0487 -0.1519  0.0726
  910YOPE   C4A10376  14.108   4.294   8.474  0.1212 -0.2322 -0.0677
  910YOPE   C1B10377  13.637   3.514   7.199 -0.2150 -0.1308 -0.3486
  910YOPE   C2B10378  13.754   3.324   7.632  0.0849  0.2116 -0.1724
  910YOPE   D3B10379  13.711   3.375   8.045 -0.1554  0.0180 -0.0928
  910YOPE   C4B10380  13.677   3.301   8.499  0.0254 -0.0569  0.2855
  911YOPE   NH310381   4.889   7.027   6.354 -0.1406 -0.0432 -0.0077
  911YOPE   PO410382   4.876   6.517   6.297 -0.1407 -0.1031  0.2000
  911YOPE   GL110383   4.769   6.290   6.652  0.0175  0.1165  0.2238
  911YOPE   GL210384   4.796   5.898   6.635 -0.1086 -0.1646  0.0881
  911YOPE   C1A10385   4.730   6.175   7.033  0.1308 -0.2038 -0.1817
  911YOPE   D2A10386   5.025   6.292   7.345  0.0478 -0.0505 -0.2342
  911YOPE   C3A10387   5.032   6.088   7.684 -0.2532 -0.2574 -0.0498
  911YOPE   C4A10388   5.010   5.896   8.071  0.2037 -0.1745  0.2081
  911YOPE   C1B10389   5.080   5.845   7.032 -0.1588 -0.1767  0.4430
  911YOPE   C2B10390   5.382   5.809   7.406 -0.1879 -0.0955 -0.3081
  911YOPE   D3B10391   5.483   5.807   7.898 -0.3674 -0.0022  0.2979
  911YOPE   C4B10392   5.431   5.795   8.313 -0.2539 -0.2801  0.1004
  912YOPE   NH310393   8.853   6.771   6.166  0.1101 -0.0053 -0.0233
  912YOPE   PO410394   9.087   6.456   6.175 -0.1317  0.1939  0.1621
  912YOPE   GL110395   9.136   6.599   6.589  0.0702 -0.0607 -0.0819
  912YOPE   GL210396   8.914   6.780   6.812  0.1604 -0.0033 -0.1068
  912YOPE   C1A10397   9.254   6.308   6.926  0.0241  0.0596 -0.2750
  912YOPE   D2A10398   9.329   6.042   7.308 -0.0923  0.0029 -0.3169
  912YOPE   C3A10399   9.834   6.096   7.408 -0.1659  0.1053 -0.0344
  912YOPE   C4A10400  10.222   6.114   7.680 -0.1092 -0.0296  0.0461
  912YOPE   C1B10401   8.964   6.831   7.227 -0.2895  0.1522 -0.0136
  912YOPE   C2B10402   8.897   7.007   7.558 -0.0209 -0.1822 -0.1037
  912YOPE   D3B10403   9.040   7.110   7.937  0.0148 -0.0305 -0.2815
  912YOPE   C4B10404   9.179   7.300   8.421  0.2371 -0.0123  0.0500
  913YOPE   NH310405   6.973  12.531   6.058 -0.1001 -0.2733 -0.0110
  913YOPE   PO410406   7.221  12.716   6.373 -0.1548 -0.2612  0.0376
  913YOPE   GL110407   7.280  12.873   6.642  0.2951 -0.3397 -0.3543
  913YOPE   GL210408   6.995  13.032   6.737 -0.3423  0.0373 -0.1663
  913YOPE   C1A10409   7.350  12.871   7.069  0.1130  0.1496 -0.0524
  913YOPE   D2A10410   7.470  12.707   7.444  0.1469  0.0901 -0.0517
  913YOPE   C3A10411   7.322  12.523   7.800  0.1009 -0.2690  0.2644
  913YOPE   C4A10412   7.370  12.203   8.141  0.2924 -0.2030  0.1406
  913YOPE   C1B10413   6.857  12.863   7.163 -0.0973 -0.1011 -0.1756
  913YOPE   C2B10414   7.049  12.973   7.470  0.2503 -0.2874  0.2613
  913YOPE   D3B10415   7.314  13.054   7.826  0.0397  0.0096 -0.0654
  913YOPE   C4B10416   7.629  12.838   8.089  0.1190  0.3725 -0.0033
  914YOPE   NH310417   8.900   7.519   6.237 -0.0112  0.0123  0.4642
  914YOPE   PO410418   9.184   7.176   6.126 -0.3536 -0.0416 -0.2673
  914YOPE   GL110419   9.259   7.093   6.564 -0.3099 -0.0440  0.0706
  914YOPE   GL210420   9.493   6.921   6.606 -0.3316 -0.2027  0.0168
  914YOPE   C1A10421   9.035   7.231   6.928 -0.1116 -0.1942 -0.0544
  914YOPE   D2A10422   9.235   7.267   7.377 -0.0316 -0.0090 -0.0786
  914YOPE   C3A10423   9.370   6.879   7.623 -0.2151 -0.4011  0.0730
  914YOPE   C4A10424   9.210   6.663   7.945 -0.0778 -0.0820 -0.0133
  914YOPE   C1B10425   9.434   6.930   7.033  0.0113  0.1304  0.1641
  914YOPE   C2B10426   9.745   7.070   7.275 -0.1121 -0.1185 -0.1237
  914YOPE   D3B10427   9.775   7.222   7.630  0.0776 -0.0308  0.1114
  914YOPE   C4B10428   9.942   7.215   7.978  0.1573 -0.1037  0.1189
  915YOPE   NH310429   6.265  14.795   6.343 -0.1183  0.2531  0.1055
  915YOPE   PO410430   5.854  15.125   6.366  0.3374  0.0088  0.0052
  915YOPE   GL110431   5.757  15.019   6.789 -0.3218  0.0951  0.0601
  915YOPE   GL210432   5.803  14.744   6.896  0.2075 -0.0030 -0.0253
  915YOPE   C1A10433   5.924  15.178   7.087 -0.0582 -0.0334 -0.3200
  915YOPE   D2A10434   5.782  15.496   7.301  0.1452  0.1069 -0.1239
  915YOPE   C3A10435   5.904  15.641   7.737 -0.0853  0.3472 -0.2569
  915YOPE   C4A10436   6.122  15.566   8.132  0.3723 -0.1360  0.0474
  915YOPE   C1B10437   5.790  14.704   7.293 -0.0679  0.2352  0.3436
  915YOPE   C2B10438   5.964  15.060   7.644  0.1665  0.1033 -0.0143
  915YOPE   D3B10439   6.122  15.081   7.993  0.0809  0.0695  0.1766
  915YOPE   C4B10440   6.459  14.877   8.185 -0.1201  0.2792  0.1069
  916YOPE   NH310441  15.408  17.482   6.425  0.1478 -0.1716  0.2330
  916YOPE   PO410442  15.737  17.602   6.141 -0.0698  0.0973 -0.0943
  916YOPE   GL110443  15.795  17.736   6.564 -0.0072 -0.1903 -0.2461
  916YOPE   GL210444  15.748  18.002   6.740 -0.3589  0.1655 -0.3616
  916YOPE   C1A10445  15.837  17.400   6.949  0.0271  0.2320 -0.2902
  916YOPE   D2A10446  15.550  17.164   7.155 -0.0984  0.3529 -0.2253
  916YOPE   C3A10447  15.458  17.062   7.571  0.0498  0.3659 -0.1436
  916YOPE   C4A10448  15.371  17.113   8.045 -0.1567 -0.0387 -0.1226
  916YOPE   C1B10449  15.734  17.874   7.179  0.4125 -0.0034 -0.0740
  916YOPE   C2B10450  15.597  17.577   7.511  0.2167  0.2154 -0.1249
  916YOPE   D3B10451  15.293  17.546   7.758  0.1758 -0.2441  0.0993
  916YOPE   C4B10452  14.925  17.405   8.015  0.0561 -0.5876 -0.2153
  917YOPE   NH310453   1.587  15.403   6.431  0.0850  0.0160  0.1072
  917YOPE   PO410454   1.874  15.171   6.381 -0.1008  0.0304 -0.1196
  917YOPE   GL110455   1.814  14.982   6.815 -0.0469 -0.4361  0.2269
  917YOPE   GL210456   1.863  14.675   6.916  0.2333  0.3114 -0.1213
  917YOPE   C1A10457   1.562  14.904   7.231  0.0274  0.0143 -0.0752
  917YOPE   D2A10458   1.605  14.834   7.698 -0.0631 -0.0911 -0.0012
  917YOPE   C3A10459   1.387  14.490   7.960 -0.2261  0.1514 -0.5841
  917YOPE   C4A10460   1.205  14.232   8.340  0.0228 -0.1371 -0.3993
  917YOPE   C1B10461   2.102  14.851   7.251  0.0920 -0.0631 -0.0991
  917YOPE   C2B10462   2.252  14.732   7.587 -0.0731 -0.2463 -0.0620
  917YOPE   D3B10463   2.356  14.567   8.071  0.1650 -0.1287 -0.1075
  917YOPE   C4B10464   2.303  14.588   8.568 -0.0762  0.0305  0.2301
  918YOPE   NH310465   8.803   3.443   6.038  0.0318  0.0819  0.0375
  918YOPE   PO410466   8.486   3.270   5.971  0.2045  0.2438 -0.3521
  918YOPE   GL110467   8.314   3.223   6.320  0.1826 -0.0661  0.3733
  918YOPE   GL210468   8.421   2.919   6.352  0.1399 -0.1930  0.1165
  918YOPE   C1A10469   8.414   3.421   6.771  0.0612  0.2427 -0.0059
  918YOPE   D2A10470   8.333   3.504   7.185 -0.0381  0.1853 -0.5049
  918YOPE   C3A10471   8.124   3.262   7.465 -0.2292  0.3103 -0.1343
  918YOPE   C4A10472   7.835   3.278   7.669 -0.5925  0.1947  0.2719
  918YOPE   C1B10473   8.565   2.879   6.724  0.2374 -0.0693  0.3073
  918YOPE   C2B10474   8.342   2.938   7.077  0.1359  0.0123  0.1910
  918YOPE   D3B10475   8.394   2.891   7.470 -0.1533  0.0558 -0.1405
  918YOPE   C4B10476   8.531   2.827   7.875  0.1917 -0.0546 -0.2805
  919YOPE   NH310477   7.318  10.397   6.335  0.1010 -0.1506  0.3031
  919YOPE   PO410478   7.491  10.017   6.320 -0.3214 -0.3806  0.0440
  919YOPE   GL110479   7.476   9.934   6.688 -0.0360 -0.2220 -0.3322
  919YOPE   GL210480   7.696  10.104   6.783  0.1222  0.3036  0.0327
  919YOPE   C1A10481   7.473  10.008   7.245 -0.1615  0.3475 -0.0813
  919YOPE   D2A10482   7.799  10.170   7.431  0.3171 -0.0392 -0.2888
  919YOPE   C3A10483   7.920  10.134   7.749 -0.0246 -0.2308  0.2340
  919YOPE   C4A10484   8.128  10.090   8.132 -0.1346  0.1171  0.1896
  919YOPE   C1B10485   7.827  10.494   7.011  0.0242 -0.0616  0.2893
  919YOPE   C2B10486   7.883  10.663   7.335  0.2932 -0.1445  0.2683
  919YOPE   D3B10487   7.849  10.678   7.673  0.1945  0.3551 -0.0126
  919YOPE   C4B10488   7.947  10.538   8.048 -0.1223  0.3205  0.1105
  920YOPE   NH310489  17.391  17.043   6.530 -0.1786 -0.1507  0.2237
  920YOPE   PO410490  16.896  17.260   6.416  0.0416  0.1715  0.0876
  920YOPE   GL110491  16.922  17.086   6.794  0.3117 -0.0425  0.2877
  920YOPE   GL210492  17.160  16.826   6.882 -0.2760  0.0164 -0.2451
  920YOPE   C1A10493  16.735  17.009   7.152 -0.1779  0.0882  0.0574
  920YOPE   D2A10494  16.704  17.074   7.557  0.2527 -0.1470  0.1041
  920YOPE   C3A10495  16.771  16.834   7.940  0.2368  0.0624  0.3390
  920YOPE   C4A10496  16.958  16.497   8.110 -0.1528  0.2226 -0.0788
  920YOPE   C1B10497  17.148  16.721   7.416 -0.0385 -0.1329 -0.3252
  920YOPE   C2B10498  17.343  16.664   7.846 -0.0096 -0.3997  0.3265
  920YOPE   D3B10499  17.513  16.591   8.250 -0.3686  0.0649 -0.0218
  920YOPE   C4B10500  17.872  16.697   8.571  0.0276  0.4623  0.0859
  921YOPE   NH310501   8.847  15.753   6.067  0.0978 -0.0416  0.2608
  921YOPE   PO410502   8.451  15.756   6.237 -0.1376  0.1108 -0.0162
  921YOPE   GL110503   8.649  15.672   6.604  0.1329  0.2856 -0.1738
  921YOPE   GL210504   8.687  15.337   6.634  0.0645  0.1518 -0.1704
  921YOPE   C1A10505   8.604  15.656   7.088  0.0449 -0.3578 -0.1652
  921YOPE   D2A10506   8.882  15.517   7.451  0.1673 -0.2128  0.0941
  921YOPE   C3A10507   8.660  15.198   7.755 -0.1779 -0.3364  0.3852
  921YOPE   C4A10508   8.380  14.902   7.718  0.0352  0.0637 -0.1636
  921YOPE   C1B10509   8.979  15.242   7.009  0.1845 -0.4200 -0.2849
  921YOPE   C2B10510   9.051  15.053   7.392  0.3011 -0.0711  0.0618
  921YOPE   D3B10511   8.995  14.785   7.751  0.0004 -0.2912  0.0716
  921YOPE   C4B10512   8.851  14.674   8.078  0.0187  0.1787  0.3424
  922YOPE   NH310513  10.657   5.744   6.339 -0.0935 -0.1756  0.0217
  922YOPE   PO410514  10.374   6.015   6.405 -0.0088 -0.2403  0.0291
  922YOPE   GL110515  10.141   5.868   6.696  0.2249  0.0599  0.1593
  922YOPE   GL210516  10.000   5.472   6.747  0.2536  0.3054  0.2389
  922YOPE   C1A10517  10.200   5.860   7.074 -0.0390 -0.3148 -0.1616
  922YOPE   D2A10518  10.237   5.616   7.471  0.5216 -0.1404 -0.1953
  922YOPE   C3A10519  10.560   5.612   7.895 -0.0540 -0.0598  0.1026
  922YOPE   C4A10520  10.995   5.507   8.103  0.0969 -0.1373 -0.4124
  922YOPE   C1B10521   9.886   5.218   7.088 -0.2512 -0.0460 -0.4304
  922YOPE   C2B10522   9.869   5.197   7.488  0.1083 -0.0382 -0.3014
  922YOPE   D3B10523   9.684   5.173   7.898  0.0331 -0.2212  0.1140
  922YOPE   C4B10524   9.485   4.914   8.157  0.0792 -0.0249 -0.1041
  923YOPE   NH310525  14.895  12.153   5.934  0.1435  0.2409 -0.2134
  923YOPE   PO410526  15.319  12.313   5.948 -0.2408  0.2383 -0.1878
  923YOPE   GL110527  15.642  12.282   6.218 -0.1653  0.0899 -0.0297
  923YOPE   GL210528  15.682  12.531   6.490 -0.0373  0.1481  0.1857
  923YOPE   C1A10529  15.870  12.097   6.655  0.1276 -0.0820 -0.1306
  923YOPE   D2A10530  16.074  11.977   6.925 -0.0860  0.0352  0.0283
  923YOPE   C3A10531  16.037  12.124   7.383 -0.0924 -0.2726 -0.1286
  923YOPE   C4A10532  16.318  12.030   7.675  0.0953  0.0675 -0.0512
  923YOPE   C1B10533  15.757  12.569   6.951  0.0175 -0.4429  0.2299
  923YOPE   C2B10534  15.866  12.601   7.366 -0.0502 -0.0200  0.0311
  923YOPE   D3B10535  16.049  12.472   7.732  0.2239  0.1216  0.1750
  923YOPE   C4B10536  16.191  12.492   8.094  0.0029 -0.1964  0.0344
  924YOPE   NH310537   0.213  10.410   6.116  0.2017 -0.0304  0.1046
  924YOPE   PO410538   0.315  10.817   5.968  0.1335  0.0397  0.1421
  924YOPE   GL110539   0.470  10.762   6.412  0.0741  0.0473  0.0988
  924YOPE   GL210540   0.297  10.506   6.572  0.1066 -0.0223 -0.0145
  924YOPE   C1A10541   0.698  10.796   6.762 -0.0650 -0.2554  0.4358
  924YOPE   D2A10542   0.651  10.915   7.149  0.0001 -0.2864  0.0479
  924YOPE   C3A10543   0.436  10.815   7.479  0.1642  0.1188 -0.1122
  924YOPE   C4A10544   0.540  11.016   7.885 -0.1260  0.2783  0.0154
  924YOPE   C1B10545   0.326  10.493   7.034 -0.0143  0.1553  0.0474
  924YOPE   C2B10546   0.342  10.351   7.512 -0.0517 -0.1637  0.3562
  924YOPE   D3B10547   0.420  10.467   7.837  0.1997  0.2197 -0.2490
  924YOPE   C4B10548   0.472  10.430   8.298 -0.0745 -0.0381 -0.1135
  925YOPE   NH310549  11.039   7.745   6.104  0.1121 -0.0288  0.0234
  925YOPE   PO410550  11.353   8.001   5.961 -0.0913 -0.2725 -0.2965
  925YOPE   GL110551  11.266   8.143   6.314  0.1507 -0.0046 -0.3203
  925YOPE   GL210552  11.325   8.532   6.465  0.4229  0.2071 -0.0488
  925YOPE   C1A10553  10.910   8.149   6.662  0.0960  0.1371  0.0107
  925YOPE   D2A10554  10.497   8.098   6.927  0.2622 -0.2611  0.1395
  925YOPE   C3A10555  10.550   7.930   7.339  0.1286 -0.2733 -0.0578
  925YOPE   C4A10556  10.523   8.192   7.753  0.2234 -0.3243 -0.0494
  925YOPE   C1B10557  11.194   8.586   6.879  0.0235  0.2606  0.0266
  925YOPE   C2B10558  11.368   8.600   7.316  0.0939  0.4206 -0.2868
  925YOPE   D3B10559  11.442   8.650   7.728 -0.0650 -0.3380  0.3621
  925YOPE   C4B10560  11.701   8.588   8.016  0.2161 -0.0127  0.1698
  926YOPE   NH310561   1.352  12.967   6.166 -0.4014 -0.0969 -0.1367
  926YOPE   PO410562   1.008  13.288   6.376 -0.0864 -0.0692 -0.1742
  926YOPE   GL110563   1.055  13.078   6.641 -0.0127 -0.1080 -0.4100
  926YOPE   GL210564   1.374  13.118   6.767  0.1612  0.0181  0.2348
  926YOPE   C1A10565   0.952  13.099   7.026 -0.0581 -0.0157  0.2249
  926YOPE   D2A10566   0.794  13.047   7.386  0.2670  0.2240 -0.1044
  926YOPE   C3A10567   0.862  12.660   7.673 -0.0513  0.2879  0.0408
  926YOPE   C4A10568   0.693  12.520   8.084 -0.1028  0.0663 -0.0962
  926YOPE   C1B10569   1.422  13.179   7.127  0.1034  0.0062  0.0009
  926YOPE   C2B10570   1.428  13.269   7.497  0.1992 -0.0519  0.2115
  926YOPE   D3B10571   1.262  12.961   7.725  0.2379  0.1034  0.0981
  926YOPE   C4B10572   1.129  12.774   8.169  0.3169 -0.0841  0.1809
  927YOPE   NH310573   1.576   4.224   6.831 -0.1503  0.0479  0.0247
  927YOPE   PO410574   2.022   4.313   6.953 -0.2563  0.0435  0.0428
  927YOPE   GL110575   2.176   4.085   7.256 -0.1561  0.2368  0.0750
  927YOPE   GL210576   2.266   3.816   7.164 -0.0307  0.0975  0.0053
  927YOPE   C1A10577   2.230   3.961   7.665  0.0616  0.0332  0.0678
  927YOPE   D2A10578   2.292   3.872   7.977 -0.2584 -0.0810 -0.1294
  927YOPE   C3A10579   2.243   4.056   8.373  0.0138 -0.0319 -0.2091
  927YOPE   C4A10580   2.180   3.967   8.861  0.0165 -0.3009  0.1375
  927YOPE   C1B10581   2.270   3.481   7.518  0.1650 -0.3142  0.0409
  927YOPE   C2B10582   2.029   3.234   7.746 -0.0607 -0.0788 -0.0698
  927YOPE   D3B10583   1.782   3.034   8.095  0.1352  0.2605  0.0209
  927YOPE   C4B10584   1.584   3.000   8.552 -0.0512  0.0841  0.1394
  928YOPE   NH310585  11.070  14.122   6.316  0.1376 -0.0734 -0.1264
  928YOPE   PO410586  10.774  14.233   6.032  0.0697  0.0623 -0.0765
  928YOPE   GL110587  10.822  14.518   6.454  0.2340  0.1058  0.2827
  928YOPE   GL210588  11.130  14.679   6.474  0.0237  0.0436 -0.0626
  928YOPE   C1A10589  10.935  14.288   6.877 -0.0158  0.1447 -0.0472
  928YOPE   D2A10590  10.660  14.101   7.048  0.1125  0.1105  0.1481
  928YOPE   C3A10591  10.532  14.141   7.523 -0.1099  0.0220 -0.0596
  928YOPE   C4A10592  10.545  14.192   7.934 -0.1601 -0.1690  0.0086
  928YOPE   C1B10593  11.206  14.737   6.929 -0.0237 -0.2732  0.0545
  928YOPE   C2B10594  11.272  14.683   7.294  0.1956  0.0919 -0.1376
  928YOPE   D3B10595  11.334  14.674   7.665  0.1263 -0.0138  0.1210
  928YOPE   C4B10596  11.544  14.732   8.051  0.1688 -0.3006  0.1003
  929YOPE   NH310597   9.408   8.475   6.459 -0.1007  0.2143  0.2008
  929YOPE   PO410598   9.047   8.473   6.164 -0.2002  0.0630 -0.3789
  929YOPE   GL110599   8.930   8.577   6.630 -0.3360  0.2333  0.2564
  929YOPE   GL210600   8.884   8.941   6.721 -0.0535  0.1584  0.0678
  929YOPE   C1A10601   8.967   8.535   7.034 -0.0168 -0.0226 -0.1528
  929YOPE   D2A10602   9.003   8.654   7.475  0.2480  0.0395  0.1165
  929YOPE   C3A10603   9.398   8.749   7.787 -0.2324  0.2221  0.1026
  929YOPE   C4A10604   9.753   9.023   7.773  0.0323 -0.0522  0.1878
  929YOPE   C1B10605   9.075   9.000   7.087 -0.2014 -0.2559  0.2844
  929YOPE   C2B10606   8.888   9.135   7.440  0.1096 -0.2425  0.1272
  929YOPE   D3B10607   8.915   8.968   7.900 -0.2670  0.1810 -0.1684
  929YOPE   C4B10608   9.075   8.948   8.300 -0.2116  0.1799 -0.0751
  930YOPE   NH310609   8.526  16.221   6.021 -0.2233 -0.0863 -0.0147
  930YOPE   PO410610   8.235  16.552   5.797  0.0067 -0.0154  0.0735
  930YOPE   GL110611   8.132  16.559   6.157 -0.0866  0.0222 -0.2374
  930YOPE   GL210612   8.161  16.254   6.334 -0.0460  0.0380 -0.0670
  930YOPE   C1A10613   7.811  16.650   6.532 -0.0473 -0.0571 -0.1575
  930YOPE   D2A10614   7.964  16.818   6.837  0.3864  0.0687  0.3721
  930YOPE   C3A10615   7.844  16.681   7.246  0.2907  0.0958 -0.2678
  930YOPE   C4A10616   7.981  16.770   7.711 -0.1965  0.0999 -0.1469
  930YOPE   C1B10617   8.030  16.293   6.817 -0.1361  0.1188  0.0933
  930YOPE   C2B10618   8.084  16.253   7.234  0.2620  0.2999  0.1724
  930YOPE   D3B10619   8.234  16.228   7.686  0.3894  0.1028  0.0307
  930YOPE   C4B10620   8.263  16.468   7.997  0.0284  0.2130  0.1869
  931YOPE   NH310621   5.169   2.457   6.542  0.0716  0.1242 -0.0721
  931YOPE   PO410622   5.356   1.972   6.564 -0.0935 -0.2383  0.2158
  931YOPE   GL110623   5.508   2.225   6.932 -0.3809  0.1254  0.2270
  931YOPE   GL210624   5.660   2.526   7.019  0.1794 -0.0827 -0.0510
  931YOPE   C1A10625   5.640   2.240   7.391 -0.0773  0.0455 -0.0619
  931YOPE   D2A10626   5.827   2.258   7.819  0.3385  0.0905 -0.1770
  931YOPE   C3A10627   6.161   2.522   8.048  0.0094  0.0420  0.2208
  931YOPE   C4A10628   6.577   2.821   8.173 -0.0887  0.2691 -0.1707
  931YOPE   C1B10629   5.550   2.732   7.420  0.2984  0.1230 -0.0247
  931YOPE   C2B10630   5.543   2.647   7.780 -0.0634  0.0911  0.0689
  931YOPE   D3B10631   5.721   2.715   8.178  0.1677 -0.3500 -0.1046
  931YOPE   C4B10632   6.110   2.834   8.438  0.1354 -0.0073  0.0658
  932YOPE   NH310633   3.205  12.659   6.263 -0.1864 -0.0162 -0.2962
  932YOPE   PO410634   2.999  12.285   6.152 -0.4313 -0.0065 -0.1134
  932YOPE   GL110635   2.615  12.170   6.393 -0.0692 -0.0890 -0.2872
  932YOPE   GL210636   2.707  11.868   6.552  0.4471  0.1812 -0.0835
  932YOPE   C1A10637   2.545  12.339   6.820 -0.1859  0.4032 -0.0984
  932YOPE   D2A10638   2.622  12.003   7.123 -0.3082  0.1014 -0.2006
  932YOPE   C3A10639   2.774  12.040   7.483 -0.1001 -0.0796  0.2322
  932YOPE   C4A10640   2.636  12.178   7.880 -0.1452  0.1480  0.0639
  932YOPE   C1B10641   2.819  11.628   6.886  0.0219  0.0525  0.0911
  932YOPE   C2B10642   2.873  11.557   7.277 -0.0986 -0.1195  0.2540
  932YOPE   D3B10643   3.037  11.701   7.776  0.0228 -0.2577 -0.2323
  932YOPE   C4B10644   2.872  11.880   8.259 -0.1632  0.1329  0.1106
  933YOPE   NH310645   2.039  11.386   5.894  0.0359  0.0956  0.0116
  933YOPE   PO410646   2.496  11.271   6.026  0.3140 -0.1433 -0.0286
  933YOPE   GL110647   2.483  11.366   6.438 -0.0782  0.1493 -0.0587
  933YOPE   GL210648   2.101  11.373   6.426 -0.1751  0.0724 -0.0680
  933YOPE   C1A10649   2.343  11.669   6.763  0.2849 -0.0703  0.3225
  933YOPE   D2A10650   2.309  11.612   7.248 -0.0297  0.0168 -0.0256
  933YOPE   C3A10651   2.029  11.533   7.552  0.0458  0.2103  0.0272
  933YOPE   C4A10652   1.692  11.240   7.795 -0.1534  0.4878 -0.0470
  933YOPE   C1B10653   1.969  10.899   6.596  0.0074 -0.1930 -0.0749
  933YOPE   C2B10654   1.776  10.871   6.954 -0.1112 -0.2948 -0.0457
  933YOPE   D3B10655   1.783  10.719   7.436  0.0936  0.2313 -0.2008
  933YOPE   C4B10656   1.685  10.723   7.917 -0.0642 -0.1199  0.1119
  934YOPE   NH310657  10.224   1.999   5.711  0.4011  0.1359  0.3366
  934YOPE   PO410658   9.827   1.826   5.762  0.1566 -0.0724 -0.2167
  934YOPE   GL110659   9.977   1.872   6.200 -0.2173 -0.0192 -0.1304
  934YOPE   GL210660   9.634   2.000   6.342  0.0134 -0.3283  0.3749
  934YOPE   C1A10661   9.989   1.712   6.561  0.0821  0.2015 -0.0063
  934YOPE   D2A10662   9.906   1.367   6.862  0.0382 -0.3359  0.1333
  934YOPE   C3A10663   9.991   1.512   7.293 -0.0492  0.3323 -0.1043
  934YOPE   C4A10664  10.006   1.852   7.685 -0.1971 -0.0925  0.0661
  934YOPE   C1B10665   9.737   2.104   6.738 -0.0273  0.2078 -0.0582
  934YOPE   C2B10666   9.929   2.157   7.120  0.2016 -0.2987 -0.2657
  934YOPE   D3B10667   9.661   2.227   7.505 -0.0119  0.0147 -0.0317
  934YOPE   C4B10668   9.563   2.546   7.762 -0.0230  0.0884 -0.2653
  935YOPE   NH310669  15.237   1.560   6.593  0.3085 -0.1007  0.0481
  935YOPE   PO410670  14.953   1.896   6.677 -0.2153  0.0297  0.0643
  935YOPE   GL110671  15.124   1.704   7.065 -0.0655 -0.0284 -0.1164
  935YOPE   GL210672  15.430   1.601   7.179 -0.2231  0.0126 -0.1239
  935YOPE   C1A10673  15.050   1.316   7.375 -0.0731  0.0645  0.0170
  935YOPE   D2A10674  14.990   1.252   7.851  0.0600 -0.1184  0.1435
  935YOPE   C3A10675  14.946   0.926   8.138  0.1035 -0.1140  0.2044
  935YOPE   C4A10676  14.761   0.741   8.489 -0.0166  0.1105 -0.2217
  935YOPE   C1B10677  15.460   1.472   7.600 -0.1317  0.3428  0.0282
  935YOPE   C2B10678  15.546   1.374   8.045 -0.1478  0.1285  0.1873
  935YOPE   D3B10679  15.336   1.228   8.268  0.1138 -0.0234  0.0166
  935YOPE   C4B10680  14.931   1.335   8.438 -0.1713  0.0013  0.0029
  936YOPE   NH310681  17.528   8.862   6.548 -0.0068 -0.0644  0.2804
  936YOPE   PO410682  17.118   8.762   6.591  0.1789 -0.3015  0.2385
  936YOPE   GL110683  17.144   9.067   6.876  0.1598  0.2321  0.1085
  936YOPE   GL210684  17.077   9.386   6.969  0.1503  0.1852 -0.0960
  936YOPE   C1A10685  17.415   9.114   7.243 -0.2052  0.0170 -0.1780
  936YOPE   D2A10686  17.297   9.214   7.676 -0.0431 -0.1060 -0.0155
  936YOPE   C3A10687  17.175   9.032   8.055 -0.1006 -0.2276  0.1024
  936YOPE   C4A10688  17.113   8.631   8.198  0.0080  0.1671  0.3843
  936YOPE   C1B10689  17.081   9.516   7.395  0.0394  0.0077 -0.0091
  936YOPE   C2B10690  17.053   9.633   7.912 -0.3208 -0.2149 -0.1360
  936YOPE   D3B10691  17.269   9.670   8.343 -0.1753 -0.1835  0.0287
  936YOPE   C4B10692  17.573   9.529   8.744  0.1343  0.0857 -0.0620
  937YOPE   NH310693   5.742   8.657   6.295  0.2754 -0.1572  0.0268
  937YOPE   PO410694   5.879   8.988   6.332 -0.0118  0.0279  0.0376
  937YOPE   GL110695   5.669   8.918   6.755 -0.2905  0.2438 -0.0277
  937YOPE   GL210696   5.477   8.703   6.718  0.2257  0.1933 -0.0878
  937YOPE   C1A10697   5.398   9.161   7.069 -0.1548  0.1662 -0.1792
  937YOPE   D2A10698   5.140   9.215   7.327  0.1175 -0.0645  0.2309
  937YOPE   C3A10699   4.725   9.403   7.181  0.1987  0.3074 -0.2953
  937YOPE   C4A10700   4.592   9.779   7.121 -0.2223  0.0020 -0.0536
  937YOPE   C1B10701   5.317   8.630   7.173  0.0021 -0.0478  0.0980
  937YOPE   C2B10702   5.316   8.315   7.572 -0.0396  0.1232 -0.1842
  937YOPE   D3B10703   5.372   7.895   7.855  0.1141  0.0999 -0.0114
  937YOPE   C4B10704   5.530   7.712   8.265 -0.1840 -0.0788  0.0489
  938YOPE   NH310705   1.811  12.253   6.004 -0.2059 -0.0988 -0.0159
  938YOPE   PO410706   1.651  12.631   6.007  0.0407  0.4861 -0.1383
  938YOPE   GL110707   1.770  12.626   6.411 -0.0130  0.0167  0.1390
  938YOPE   GL210708   1.722  12.792   6.536 -0.0506  0.0665  0.1613
  938YOPE   C1A10709   2.160  12.695   6.753 -0.1336 -0.1436 -0.0526
  938YOPE   D2A10710   2.073  12.503   7.141 -0.1336  0.1823 -0.1042
  938YOPE   C3A10711   2.382  12.331   7.448  0.0522  0.2582  0.0962
  938YOPE   C4A10712   2.297  11.895   7.684  0.0465 -0.4420 -0.0473
  938YOPE   C1B10713   1.666  12.791   6.944 -0.1134  0.0698 -0.0176
  938YOPE   C2B10714   1.555  12.706   7.310  0.1204 -0.2312  0.0694
  938YOPE   D3B10715   1.812  12.536   7.562 -0.1543 -0.1328 -0.3012
  938YOPE   C4B10716   2.090  12.342   7.853  0.1838  0.0290 -0.0967
  939POPC   NC310717   6.502   1.919   5.976  0.0908 -0.1555  0.2095
  939POPC   PO410718   6.816   2.283   5.909  0.0618  0.0491  0.0491
  939POPC   GL110719   6.992   2.534   6.208  0.2149  0.0715  0.0863
  939POPC   GL210720   7.179   2.419   6.396 -0.0012  0.0356 -0.0732
  939POPC   C1A10721   6.865   2.736   6.670 -0.2076  0.1103 -0.2339
  939POPC   D2A10722   6.628   2.575   6.877 -0.2474 -0.1920  0.0489
  939POPC   C3A10723   6.497   2.806   7.363  0.1065 -0.0420 -0.1669
  939POPC   C4A10724   6.675   2.595   7.720  0.0292 -0.2686 -0.0034
  939POPC   C1B10725   7.353   2.631   6.680 -0.0144  0.0032 -0.0431
  939POPC   C2B10726   7.480   2.822   7.055  0.0032  0.3485 -0.1558
  939POPC   C3B10727   7.364   2.807   7.501  0.1214 -0.0264  0.1221
  939POPC   C4B10728   7.551   2.954   7.809  0.4335 -0.1845  0.2202
  940POPC   NC310729  17.121  11.634   5.968 -0.1913  0.2761  0.1062
  940POPC   PO410730  17.036  12.017   6.103  0.3440  0.0998 -0.1405
  940POPC   GL110731  16.945  11.902   6.498 -0.2986 -0.0743 -0.0082
  940POPC   GL210732  17.236  11.656   6.492  0.0671  0.1564 -0.0484
  940POPC   C1A10733  17.174  12.011   6.873  0.1232  0.0170 -0.2161
  940POPC   D2A10734  17.430  12.326   7.038  0.3602  0.2624  0.2724
  940POPC   C3A10735  17.533  12.397   7.498 -0.0470  0.2609 -0.2229
  940POPC   C4A10736  17.531  12.063   7.788  0.1854 -0.1220  0.0842
  940POPC   C1B10737  17.191  11.517   6.905 -0.2142  0.0888  0.0719
  940POPC   C2B10738  16.709  11.485   6.983 -0.1007  0.0676 -0.0791
  940POPC   C3B10739  16.289  11.540   7.235 -0.3359  0.1782 -0.1283
  940POPC   C4B10740  16.120  11.610   7.651 -0.2506  0.1261 -0.2808
  941POPC   NC310741   4.025   2.052   6.445 -0.3604  0.1632 -0.1740
  941POPC   PO410742   4.136   1.659   6.601  0.0367  0.2792 -0.0655
  941POPC   GL110743   3.943   1.595   6.916 -0.1076  0.5272  0.0328
  941POPC   GL210744   3.670   1.421   6.801 -0.1302  0.1045  0.2844
  941POPC   C1A10745   3.870   1.555   7.372 -0.0234  0.2212  0.1771
  941POPC   D2A10746   3.793   1.774   7.713 -0.0673 -0.1394  0.0254
  941POPC   C3A10747   3.685   1.608   8.097  0.0907 -0.1159  0.1157
  941POPC   C4A10748   3.346   1.555   8.305 -0.2451  0.2776 -0.3875
  941POPC   C1B10749   3.590   1.202   7.183 -0.1354 -0.0562 -0.3549
  941POPC   C2B10750   3.609   1.219   7.621  0.2344 -0.0032 -0.1108
  941POPC   C3B10751   3.556   0.927   7.910 -0.2849 -0.2303  0.0621
  941POPC   C4B10752   3.284   0.959   8.209 -0.0896 -0.1462 -0.0738
  942POPC   NC310753   5.577   1.034   6.201 -0.3928 -0.0291 -0.1819
  942POPC   PO410754   5.403   1.349   6.408 -0.0735 -0.2248  0.1053
  942POPC   GL110755   5.657   1.374   6.740 -0.2196  0.0889  0.1777
  942POPC   GL210756   5.851   1.596   6.744 -0.1543 -0.1651 -0.2255
  942POPC   C1A10757   5.905   1.251   7.114 -0.0805 -0.0378  0.1163
  942POPC   D2A10758   6.125   1.222   7.409  0.1366 -0.1110 -0.0023
  942POPC   C3A10759   6.045   1.299   7.817 -0.0326  0.0399  0.1450
  942POPC   C4A10760   6.144   1.444   8.190  0.3122  0.0530 -0.2976
  942POPC   C1B10761   6.165   1.658   6.957 -0.1061  0.0503 -0.1587
  942POPC   C2B10762   6.346   1.715   7.324  0.0291  0.0176  0.1172
  942POPC   C3B10763   6.374   1.655   7.767  0.1358  0.0571 -0.0444
  942POPC   C4B10764   6.582   1.716   8.255  0.0283  0.1940 -0.0058
  943POPC   NC310765  16.648   6.401   6.475 -0.1323 -0.3491 -0.0530
  943POPC   PO410766  16.928   6.573   6.870 -0.0485 -0.0307  0.1334
  943POPC   GL110767  16.789   6.558   7.248 -0.0322 -0.1317  0.0327
  943POPC   GL210768  16.513   6.798   7.375 -0.0837  0.1994 -0.3340
  943POPC   C1A10769  16.962   6.722   7.651 -0.0325 -0.1245 -0.0036
  943POPC   D2A10770  16.980   6.771   8.161  0.0883  0.0526 -0.1578
  943POPC   C3A10771  16.841   7.040   8.530 -0.1200  0.0049  0.0132
  943POPC   C4A10772  16.688   7.006   8.904  0.0010  0.0129  0.1296
  943POPC   C1B10773  16.460   6.585   7.729  0.0285 -0.3598 -0.0324
  943POPC   C2B10774  16.319   6.479   8.113 -0.0252  0.1256  0.2165
  943POPC   C3B10775  16.162   6.301   8.406  0.0963 -0.5023 -0.0660
  943POPC   C4B10776  15.830   6.351   8.743  0.5241  0.0464 -0.3559
  944POPC   NC310777  11.186   7.160   5.429  0.0701  0.0871 -0.1522
  944POPC   PO410778  11.185   7.031   5.806  0.1844 -0.0916 -0.2174
  944POPC   GL110779  11.122   7.187   6.267  0.0731  0.1141  0.0622
  944POPC   GL210780  10.817   6.895   6.416 -0.0257 -0.0927  0.0600
  944POPC   C1A10781  11.102   7.412   6.750 -0.1352  0.0700  0.0053
  944POPC   D2A10782  11.167   7.703   6.813  0.0718 -0.0659 -0.0729
  944POPC   C3A10783  10.957   7.817   7.097 -0.1378 -0.2334  0.1455
  944POPC   C4A10784  10.994   7.776   7.535 -0.1260  0.0788  0.0501
  944POPC   C1B10785  10.746   6.923   6.907 -0.0659  0.2587 -0.0370
  944POPC   C2B10786  10.773   6.630   7.262  0.0919 -0.0358 -0.1490
  944POPC   C3B10787  10.555   6.458   7.595 -0.1121 -0.3043  0.0771
  944POPC   C4B10788  10.504   6.438   8.042 -0.0926 -0.1059  0.0058
  945POPC   NC310789  15.630   5.352   6.339 -0.1564 -0.1082 -0.0222
  945POPC   PO410790  15.570   4.966   6.616 -0.1059  0.2577  0.0940
  945POPC   GL110791  15.290   4.956   6.917 -0.1523 -0.2136  0.2985
  945POPC   GL210792  14.964   5.130   6.918 -0.1811  0.0322  0.0900
  945POPC   C1A10793  15.095   4.924   7.342 -0.1522  0.0562  0.0250
  945POPC   D2A10794  14.869   4.892   7.665 -0.1622  0.1725 -0.0325
  945POPC   C3A10795  14.753   5.217   7.910 -0.0133 -0.0313 -0.3436
  945POPC   C4A10796  14.700   5.143   8.333 -0.3434 -0.0281 -0.1834
  945POPC   C1B10797  15.329   5.327   7.222  0.2908  0.0971  0.1863
  945POPC   C2B10798  15.264   5.190   7.712 -0.1767  0.1430  0.2238
  945POPC   C3B10799  15.117   4.892   8.077 -0.0440 -0.2402  0.1921
  945POPC   C4B10800  15.140   4.587   8.391  0.0707 -0.0200 -0.1412
  946POPC   NC310801  11.795   0.177   6.154  0.1046  0.3232 -0.1041
  946POPC   PO410802  12.216  -0.142   6.104 -0.3136  0.2610 -0.2737
  946POPC   GL110803  12.316  -0.086   6.524 -0.0383 -0.1443  0.4259
  946POPC   GL210804  12.021   0.069   6.605  0.3591  0.0092 -0.0583
  946POPC   C1A10805  12.358  -0.228   6.960  0.2230  0.1169  0.3179
  946POPC   D2A10806  12.304  -0.292   7.411  0.2682  0.1687  0.3151
  946POPC   C3A10807  12.418  -0.121   7.808  0.2616  0.0205  0.0673
  946POPC   C4A10808  12.783  -0.064   8.003  0.0956  0.1145 -0.1250
  946POPC   C1B10809  11.893   0.291   6.848  0.0620  0.1639  0.1035
  946POPC   C2B10810  11.730   0.328   7.277  0.1201  0.0690 -0.0727
  946POPC   C3B10811  11.421   0.139   7.504 -0.0527 -0.2022  0.0327
  946POPC   C4B10812  11.172   0.080   7.874  0.0337  0.0546 -0.1433
  947POPC   NC310813  16.508  15.819   5.930 -0.1847 -0.0928 -0.0415
  947POPC   PO410814  16.266  15.529   5.892 -0.2458 -0.1525 -0.2684
  947POPC   GL110815  16.144  15.678   6.286  0.1870 -0.2140 -0.2383
  947POPC   GL210816  16.408  15.812   6.467  0.0447 -0.1267  0.1898
  947POPC   C1A10817  15.799  15.683   6.584 -0.1690 -0.0487 -0.1530
  947POPC   D2A10818  15.381  15.619   6.655 -0.0811  0.0373  0.2436
  947POPC   C3A10819  15.267  15.958   6.777 -0.0175 -0.3866  0.1413
  947POPC   C4A10820  15.234  16.320   6.962 -0.1122 -0.0629  0.0975
  947POPC   C1B10821  16.196  15.915   6.818 -0.0867 -0.0004 -0.0613
  947POPC   C2B10822  15.857  15.809   7.094 -0.0821  0.1646  0.0637
  947POPC   C3B10823  15.399  15.743   7.188 -0.3447  0.1390 -0.0688
  947POPC   C4B10824  15.025  15.918   7.306 -0.4567  0.1263 -0.0637
  948POPC   NC310825   1.570   2.080   6.916 -0.0389 -0.2033 -0.0695
  948POPC   PO410826   2.054   2.065   6.932  0.0812 -0.0529 -0.0723
  948POPC   GL110827   1.923   2.067   7.317 -0.4186  0.1684  0.0133
  948POPC   GL210828   1.977   2.391   7.327  0.0799 -0.2152  0.1269
  948POPC   C1A10829   1.892   1.798   7.626  0.0993  0.3929  0.0535
  948POPC   D2A10830   1.865   1.806   8.004  0.3160 -0.1934  0.0414
  948POPC   C3A10831   1.544   1.834   8.281  0.2037  0.2075  0.2923
  948POPC   C4A10832   1.392   1.821   8.687 -0.0981  0.3815 -0.1106
  948POPC   C1B10833   2.212   2.144   7.755 -0.2279  0.2796  0.0074
  948POPC   C2B10834   2.520   2.002   8.036  0.2814 -0.0274  0.2621
  948POPC   C3B10835   2.446   1.915   8.429 -0.1324 -0.1379 -0.1781
  948POPC   C4B10836   2.539   1.836   8.808 -0.0024  0.0038 -0.0979
  949POPC   NC310837   4.901   0.668   6.376 -0.2327 -0.0164 -0.1816
  949POPC   PO410838   4.546   0.958   6.421  0.2540  0.3007  0.0259
  949POPC   GL110839   4.708   0.745   6.854 -0.1747  0.0926  0.2190
  949POPC   GL210840   4.506   0.954   6.978 -0.1988 -0.0234  0.0434
  949POPC   C1A10841   4.991   0.726   7.164 -0.3136 -0.0847 -0.3249
  949POPC   D2A10842   5.318   0.616   7.237 -0.1744 -0.0461  0.2199
  949POPC   C3A10843   5.495   0.511   7.635 -0.1450  0.1983  0.3524
  949POPC   C4A10844   5.400   0.109   7.778  0.0285 -0.1229  0.1769
  949POPC   C1B10845   4.720   1.158   7.223 -0.1627  0.1160 -0.0659
  949POPC   C2B10846   4.994   1.110   7.461 -0.3282 -0.0110  0.2195
  949POPC   C3B10847   5.055   0.754   7.664 -0.0156  0.3569 -0.3312
  949POPC   C4B10848   5.110   0.555   7.983 -0.0855  0.1933  0.3225
  950POPC   NC310849   3.642  13.580   6.304  0.2168  0.0790  0.0746
  950POPC   PO410850   3.326  13.231   6.405 -0.1306 -0.0816  0.1082
  950POPC   GL110851   3.361  13.424   6.809  0.0377  0.3279 -0.1866
  950POPC   GL210852   3.118  13.224   6.937  0.1155 -0.1665  0.1017
  950POPC   C1A10853   3.210  13.681   7.198 -0.0521 -0.0049  0.2977
  950POPC   D2A10854   2.984  13.518   7.505  0.2710 -0.1501 -0.1161
  950POPC   C3A10855   2.688  13.716   7.619  0.0423 -0.2471 -0.1473
  950POPC   C4A10856   2.456  13.796   7.850  0.2450 -0.0229 -0.0646
  950POPC   C1B10857   3.022  12.983   7.252 -0.3521  0.1607  0.0183
  950POPC   C2B10858   3.030  13.022   7.649 -0.0547  0.0114  0.1643
  950POPC   C3B10859   3.292  12.922   8.040  0.1756 -0.2608  0.0154
  950POPC   C4B10860   3.344  12.748   8.435 -0.0501 -0.1546 -0.2859
  951POPC   NC310861  17.465   3.434   7.003 -0.4133  0.0196  0.0124
  951POPC   PO410862  17.536   3.879   6.905  0.1030 -0.5496  0.1656
  951POPC   GL110863  17.301   3.799   7.320  0.1165  0.0043  0.1454
  951POPC   GL210864  17.065   4.025   7.352 -0.0109 -0.0853 -0.1829
  951POPC   C1A10865  17.243   3.612   7.711  0.3017 -0.1264  0.2187
  951POPC   D2A10866  17.228   3.504   8.112 -0.2186  0.2340 -0.1371
  951POPC   C3A10867  17.312   3.757   8.483  0.1377 -0.2393 -0.1268
  951POPC   C4A10868  17.398   3.856   8.949 -0.0844  0.0121 -0.1920
  951POPC   C1B10869  16.783   4.029   7.604 -0.0837 -0.1610 -0.1531
  951POPC   C2B10870  16.932   4.052   8.020  0.0544  0.0266 -0.1128
  951POPC   C3B10871  16.872   3.997   8.431  0.2074  0.0183 -0.0234
  951POPC   C4B10872  16.741   4.134   8.858 -0.1826  0.0249  0.0140
  952POPC   NC310873  15.518  13.750   5.822  0.0077  0.1043 -0.1309
  952POPC   PO410874  15.152  13.735   6.084 -0.1273  0.0185 -0.2020
  952POPC   GL110875  15.098  13.968   6.494 -0.1220  0.0687 -0.4051
  952POPC   GL210876  14.825  13.955   6.583  0.0644 -0.2532  0.1045
  952POPC   C1A10877  15.255  14.155   6.826  0.4334  0.1853  0.1856
  952POPC   D2A10878  15.224  14.114   7.346  0.1728 -0.2414  0.1226
  952POPC   C3A10879  15.278  14.011   7.745  0.1644  0.3223 -0.1776
  952POPC   C4A10880  15.295  13.876   8.218 -0.2668  0.0774 -0.0804
  952POPC   C1B10881  14.882  13.936   7.075 -0.0471 -0.3513  0.0459
  952POPC   C2B10882  14.955  13.752   7.500  0.1252 -0.2343 -0.0997
  952POPC   C3B10883  14.984  13.611   7.920 -0.1771  0.2882 -0.1293
  952POPC   C4B10884  14.832  13.429   8.308 -0.0500 -0.1266 -0.0263
  953POPC   NC310885  13.052   7.603   6.353  0.0042 -0.0944 -0.1673
  953POPC   PO410886  12.631   7.672   6.456 -0.0921 -0.1855  0.0344
  953POPC   GL110887  12.569   7.974   6.858  0.0544 -0.1098  0.0416
  953POPC   GL210888  12.601   7.828   7.036 -0.2089 -0.0219 -0.2354
  953POPC   C1A10889  12.568   8.292   7.178  0.0580  0.0831  0.3790
  953POPC   D2A10890  12.340   8.568   7.441 -0.0166 -0.3585 -0.0207
  953POPC   C3A10891  12.174   8.558   7.923  0.3062 -0.0713 -0.1003
  953POPC   C4A10892  12.057   8.654   8.364  0.1994  0.0568 -0.0537
  953POPC   C1B10893  12.346   7.880   7.442  0.0080  0.0427  0.0857
  953POPC   C2B10894  12.268   7.677   7.818 -0.1114 -0.0038 -0.0017
  953POPC   C3B10895  12.439   7.552   8.292 -0.4484  0.0711 -0.0019
  953POPC   C4B10896  12.148   7.547   8.606  0.2010  0.1509 -0.3389
  954POPC   NC310897   8.127   5.778   5.638 -0.2565  0.3395  0.0974
  954POPC   PO410898   8.492   5.515   5.746  0.0316 -0.0083 -0.1031
  954POPC   GL110899   8.508   5.398   6.196  0.0309 -0.2451 -0.0640
  954POPC   GL210900   8.705   5.421   6.370  0.0051  0.4237  0.1393
  954POPC   C1A10901   8.155   5.453   6.536 -0.0527 -0.2567  0.0613
  954POPC   D2A10902   7.734   5.325   6.782  0.0748  0.3372 -0.0409
  954POPC   C3A10903   7.840   5.371   7.273  0.0349  0.3037  0.0311
  954POPC   C4A10904   8.095   5.157   7.593  0.0816  0.0870 -0.0937
  954POPC   C1B10905   8.601   5.581   6.772  0.0950 -0.1392 -0.0472
  954POPC   C2B10906   8.542   5.711   7.199 -0.1481 -0.0474  0.0081
  954POPC   C3B10907   8.325   5.546   7.386 -0.1484  0.0227 -0.1375
  954POPC   C4B10908   7.900   5.543   7.768  0.3931 -0.2423  0.2607
  955POPC   NC310909  18.007  13.695   5.893  0.2007 -0.0399  0.1474
  955POPC   PO410910  18.111  14.086   6.046  0.0884 -0.4282  0.0296
  955POPC   GL110911  17.951  13.814   6.396 -0.0135  0.1078  0.3537
  955POPC   GL210912  18.255  13.591   6.609 -0.0211  0.0856 -0.1588
  955POPC   C1A10913  17.897  13.740   6.820 -0.0539 -0.1293  0.2007
  955POPC   D2A10914  17.664  13.813   7.145  0.0976  0.1673 -0.1776
  955POPC   C3A10915  17.509  13.657   7.547  0.0380 -0.0526 -0.3527
  955POPC   C4A10916  17.509  13.875   8.020 -0.0995 -0.1882  0.0237
  955POPC   C1B10917  18.201  13.527   7.193  0.1825 -0.0017 -0.0783
  955POPC   C2B10918  17.923  13.369   7.509  0.3245 -0.0283 -0.2518
  955POPC   C3B10919  17.783  13.432   7.952 -0.3109  0.2927 -0.0221
  955POPC   C4B10920  17.515  13.466   8.305  0.3140  0.1191  0.2512
  956POPC   NC310921  11.543  12.406   5.787 -0.0048 -0.2085  0.0601
  956POPC   PO410922  11.200  12.143   5.996  0.0007 -0.0440 -0.2465
  956POPC   GL110923  11.364  12.080   6.364  0.2435 -0.0381 -0.3338
  956POPC   GL210924  11.032  12.127   6.451 -0.3124 -0.1193  0.0419
  956POPC   C1A10925  11.560  12.075   6.747 -0.2932  0.0108 -0.0078
  956POPC   D2A10926  11.455  12.192   7.193  0.1758 -0.1441 -0.0837
  956POPC   C3A10927  11.181  11.905   7.392 -0.0034  0.2031 -0.2053
  956POPC   C4A10928  11.008  11.982   7.726  0.0453  0.0396  0.1713
  956POPC   C1B10929  11.169  12.474   6.728 -0.2241  0.2957 -0.0742
  956POPC   C2B10930  11.247  12.622   7.046  0.0529 -0.1729 -0.2913
  956POPC   C3B10931  11.313  12.610   7.394  0.2296  0.0254  0.0090
  956POPC   C4B10932  11.459  12.808   7.756  0.0874 -0.0564  0.0672
  957POPC   NC310933  12.673  15.797   5.978 -0.0407  0.0144 -0.3693
  957POPC   PO410934  12.635  16.189   6.094  0.3612 -0.1311 -0.0160
  957POPC   GL110935  12.565  16.438   6.453  0.0833  0.1473  0.4697
  957POPC   GL210936  12.364  16.693   6.588  0.1262  0.1957 -0.2935
  957POPC   C1A10937  12.682  16.469   6.911 -0.1204 -0.0421  0.0776
  957POPC   D2A10938  13.040  16.305   7.093  0.0508  0.0362 -0.0569
  957POPC   C3A10939  12.873  16.312   7.508 -0.1732  0.0841 -0.2046
  957POPC   C4A10940  12.693  16.572   7.803  0.0504  0.0959  0.1326
  957POPC   C1B10941  12.180  16.526   6.942  0.1583 -0.1832  0.1849
  957POPC   C2B10942  11.954  16.256   7.168  0.1363 -0.0305 -0.0577
  957POPC   C3B10943  11.714  16.123   7.682 -0.1078  0.0766 -0.0033
  957POPC   C4B10944  11.763  16.109   8.128 -0.2139 -0.0522 -0.1678
  958POPC   NC310945  16.879   1.991   6.516 -0.1130  0.0784  0.1563
  958POPC   PO410946  16.503   2.024   6.919 -0.0443 -0.0816 -0.3591
  958POPC   GL110947  16.288   2.066   7.224 -0.1130  0.1113 -0.0053
  958POPC   GL210948  15.979   1.894   7.207 -0.3522 -0.2324 -0.1820
  958POPC   C1A10949  16.213   2.141   7.556  0.0336 -0.1444 -0.0887
  958POPC   D2A10950  16.241   2.149   8.022  0.1042  0.0139 -0.2434
  958POPC   C3A10951  15.930   2.242   8.369  0.0683  0.0059 -0.0715
  958POPC   C4A10952  15.639   2.027   8.512 -0.0192  0.0842  0.3411
  958POPC   C1B10953  15.858   1.783   7.639 -0.1165  0.4214  0.0474
  958POPC   C2B10954  15.789   1.815   8.089  0.2245 -0.0758  0.1734
  958POPC   C3B10955  15.826   1.561   8.452 -0.0045  0.0767 -0.1144
  958POPC   C4B10956  15.730   1.124   8.551  0.1041 -0.2777 -0.3352
  959POPC   NC310957   0.243  14.574   6.174 -0.2655  0.1688  0.3215
  959POPC   PO410958   0.216  15.042   6.324 -0.1369  0.0446  0.2819
  959POPC   GL110959  -0.082  14.826   6.618 -0.1555 -0.0058 -0.0490
  959POPC   GL210960  -0.454  14.765   6.679 -0.1380  0.1081  0.3361
  959POPC   C1A10961  -0.051  14.768   7.052  0.0826  0.0806  0.1901
  959POPC   D2A10962   0.081  14.901   7.510  0.1724 -0.2413  0.0883
  959POPC   C3A10963  -0.056  14.728   7.964 -0.0760  0.1363 -0.0019
  959POPC   C4A10964  -0.241  14.439   8.354  0.1665  0.1318 -0.2230
  959POPC   C1B10965  -0.773  14.588   6.937 -0.0665  0.0861  0.0753
  959POPC   C2B10966  -0.769  14.609   7.348  0.2470  0.0179  0.2567
  959POPC   C3B10967  -0.768  14.743   7.776  0.1138 -0.1751 -0.2786
  959POPC   C4B10968  -1.098  14.821   8.121 -0.2522  0.2096  0.3884
  960POPC   NC310969   6.803   3.496   5.939  0.1034  0.3167  0.0194
  960POPC   PO410970   7.150   3.827   5.796 -0.4719  0.2353 -0.0733
  960POPC   GL110971   7.163   3.775   6.294 -0.1895  0.2910  0.1015
  960POPC   GL210972   7.006   4.078   6.489 -0.0348 -0.1212  0.2610
  960POPC   C1A10973   7.289   3.533   6.609  0.0557  0.1157 -0.1458
  960POPC   D2A10974   7.471   3.552   6.984 -0.1012  0.2413 -0.0410
  960POPC   C3A10975   7.871   3.704   7.265 -0.4990 -0.1631  0.1897
  960POPC   C4A10976   7.841   4.006   7.614  0.2958 -0.3112  0.0845
  960POPC   C1B10977   6.908   4.267   6.889  0.1963  0.2279 -0.2348
  960POPC   C2B10978   6.925   4.246   7.352  0.3092 -0.1272  0.0520
  960POPC   C3B10979   6.687   4.051   7.736 -0.1154 -0.2451  0.2244
  960POPC   C4B10980   6.448   4.184   8.057 -0.1128 -0.2722 -0.1000
  961POPC   NC310981   7.657   9.462   6.136 -0.0368 -0.1210  0.1188
  961POPC   PO410982   7.553   9.046   6.419 -0.0346 -0.1742  0.2046
  961POPC   GL110983   7.603   9.279   6.778  0.1189  0.2209  0.0029
  961POPC   GL210984   7.879   9.444   6.684  0.1682  0.1270  0.0286
  961POPC   C1A10985   7.670   9.522   7.216  0.0123  0.1820 -0.0985
  961POPC   D2A10986   7.699   9.662   7.619 -0.1641  0.1872  0.0289
  961POPC   C3A10987   7.625   9.457   7.998 -0.0222 -0.3962  0.2336
  961POPC   C4A10988   7.911   9.369   8.388  0.0636 -0.0377  0.1315
  961POPC   C1B10989   8.065   9.301   7.016  0.0399  0.3226 -0.1856
  961POPC   C2B10990   8.067   9.368   7.458 -0.1005 -0.0051  0.0430
  961POPC   C3B10991   8.048   9.228   7.909  0.1424 -0.2118 -0.3397
  961POPC   C4B10992   7.742   9.006   8.054  0.1734  0.1518  0.0444
  962POPC   NC310993  13.471  15.779   6.390 -0.3133 -0.0353 -0.0723
  962POPC   PO410994  13.806  16.011   6.638 -0.1786 -0.1542 -0.1512
  962POPC   GL110995  13.779  15.639   6.863  0.1050  0.0624 -0.1806
  962POPC   GL210996  14.019  15.904   7.136 -0.0303  0.3680  0.0384
  962POPC   C1A10997  13.815  15.363   7.402 -0.4676 -0.0921  0.0707
  962POPC   D2A10998  13.969  15.480   7.816 -0.4278  0.0617  0.2169
  962POPC   C3A10999  14.130  15.140   8.079  0.0885  0.0761 -0.0032
  962POPC   C4A11000  14.157  14.795   8.054 -0.1455  0.1678 -0.0454
  962POPC   C1B11001  13.746  15.916   7.472  0.0847  0.0396 -0.0036
  962POPC   C2B11002  13.521  15.945   7.865  0.1361 -0.0559 -0.1018
  962POPC   C3B11003  13.341  16.031   8.267  0.1041 -0.0517 -0.2339
  962POPC   C4B11004  12.978  15.842   8.536 -0.4197  0.1199  0.0976
  963POPC   NC311005   2.387  13.175   5.980  0.0140  0.2042  0.4845
  963POPC   PO411006   2.619  13.589   5.944 -0.1788 -0.0274 -0.0292
  963POPC   GL111007   2.474  13.495   6.321  0.3459  0.0789 -0.2152
  963POPC   GL211008   2.487  13.828   6.509  0.1298 -0.0492 -0.0704
  963POPC   C1A11009   2.616  13.385   6.738 -0.3146 -0.0989 -0.0181
  963POPC   D2A11010   2.625  13.403   7.154 -0.2986 -0.5691 -0.0588
  963POPC   C3A11011   2.526  13.271   7.585  0.2431  0.0938  0.0800
  963POPC   C4A11012   2.676  13.240   7.973 -0.0884 -0.2707  0.1049
  963POPC   C1B11013   2.181  13.709   6.866  0.0856  0.0327 -0.0279
  963POPC   C2B11014   2.240  13.724   7.297  0.2085  0.3797  0.0366
  963POPC   C3B11015   2.067  13.530   7.680 -0.2611 -0.1334  0.2547
  963POPC   C4B11016   2.188  13.326   7.937  0.1145 -0.0922 -0.0575
  964POPC   NC311017   4.469   5.203   6.174 -0.1270 -0.3542  0.0053
  964POPC   PO411018   4.131   5.231   6.445 -0.0950 -0.3319  0.1884
  964POPC   GL111019   4.533   5.067   6.677 -0.1497 -0.4355 -0.0896
  964POPC   GL211020   4.736   5.314   6.764  0.0970  0.2739 -0.1906
  964POPC   C1A11021   4.697   4.918   7.055 -0.2278 -0.2002  0.0637
  964POPC   D2A11022   4.577   4.729   7.409 -0.0509  0.0788  0.0457
  964POPC   C3A11023   4.624   4.335   7.433 -0.1785  0.1871 -0.4047
  964POPC   C4A11024   4.295   3.985   7.307  0.1696  0.2073  0.2233
  964POPC   C1B11025   4.961   5.339   7.123 -0.0652 -0.0627 -0.3018
  964POPC   C2B11026   5.081   5.090   7.460  0.0745 -0.2927 -0.0122
  964POPC   C3B11027   4.784   4.945   7.777  0.1725 -0.0323 -0.1860
  964POPC   C4B11028   4.879   4.492   7.933  0.1253 -0.0373 -0.1805
  965POPC   NC311029   3.416   9.970   5.839 -0.3038  0.2327  0.0061
  965POPC   PO411030   3.571   9.953   6.301  0.2236 -0.4311  0.0537
  965POPC   GL111031   3.530   9.972   6.763 -0.2777 -0.0185 -0.0247
  965POPC   GL211032   3.778   9.838   6.853 -0.0293 -0.1990 -0.1913
  965POPC   C1A11033   3.343  10.155   7.100  0.1471 -0.3668  0.1484
  965POPC   D2A11034   3.348  10.243   7.470 -0.0172 -0.3000 -0.3012
  965POPC   C3A11035   3.038  10.041   7.802 -0.1325 -0.2203  0.0548
  965POPC   C4A11036   2.703   9.901   8.091  0.1527 -0.0290 -0.0301
  965POPC   C1B11037   3.606   9.819   7.252  0.0384  0.0231  0.1457
  965POPC   C2B11038   3.706   9.873   7.639 -0.0372 -0.0332 -0.1741
  965POPC   C3B11039   3.907   9.844   7.923  0.4331  0.0473 -0.2113
  965POPC   C4B11040   4.172   9.548   8.030  0.1641 -0.0351 -0.1495
  966POPC   NC311041   7.985  17.377   5.834  0.0834 -0.1006 -0.1024
  966POPC   PO411042   8.107  17.841   5.800  0.1242  0.2208  0.0564
  966POPC   GL111043   8.093  17.802   6.213 -0.0779 -0.0987  0.0991
  966POPC   GL211044   8.085  17.438   6.318 -0.1190  0.2798 -0.0703
  966POPC   C1A11045   8.020  17.783   6.677  0.1209 -0.2576  0.2882
  966POPC   D2A11046   8.194  17.898   7.095  0.1019  0.0720  0.1703
  966POPC   C3A11047   8.386  17.586   7.276  0.3255  0.1400  0.1017
  966POPC   C4A11048   8.503  17.390   7.599 -0.0275 -0.0398 -0.0300
  966POPC   C1B11049   7.951  17.280   6.664  0.1682  0.1811  0.0022
  966POPC   C2B11050   7.896  17.387   7.026 -0.3094  0.0800  0.4715
  966POPC   C3B11051   7.939  17.449   7.452  0.1933 -0.3670 -0.1859
  966POPC   C4B11052   8.121  17.246   7.888  0.1790 -0.1970 -0.1560
  967POPC   NC311053   6.294   2.385   5.906  0.4230  0.1696  0.0670
  967POPC   PO411054   6.046   2.226   6.191 -0.1757  0.2387  0.0991
  967POPC   GL111055   6.062   2.330   6.555  0.0286  0.1503  0.0208
  967POPC   GL211056   5.872   2.051   6.677  0.1025 -0.0362  0.0297
  967POPC   C1A11057   6.141   2.577   6.963  0.1120 -0.0156 -0.1354
  967POPC   D2A11058   6.034   2.541   7.408 -0.1863 -0.3995  0.1374
  967POPC   C3A11059   5.993   2.823   7.702 -0.1170 -0.3308  0.1367
  967POPC   C4A11060   6.141   3.129   8.029 -0.2985 -0.1647 -0.2540
  967POPC   C1B11061   6.007   2.065   7.165  0.3119  0.0394  0.2591
  967POPC   C2B11062   6.237   2.119   7.588  0.1136  0.2385 -0.1822
  967POPC   C3B11063   6.543   2.197   7.960  0.2120 -0.1309  0.0147
  967POPC   C4B11064   6.824   2.147   8.148 -0.1105 -0.1186  0.3450
  968POPC   NC311065  15.421  16.467   6.239  0.0310  0.0532 -0.3050
  968POPC   PO411066  15.807  16.634   6.139 -0.0305  0.4469 -0.0342
  968POPC   GL111067  16.021  16.641   6.534 -0.1957 -0.0856 -0.3577
  968POPC   GL211068  16.167  16.388   6.571  0.0314  0.1291 -0.0107
  968POPC   C1A11069  16.097  16.936   6.755  0.0408  0.0283 -0.3206
  968POPC   D2A11070  15.974  16.907   7.171 -0.1314 -0.3058 -0.1881
  968POPC   C3A11071  16.196  16.788   7.499  0.0119  0.2133  0.0561
  968POPC   C4A11072  16.054  16.783   7.959 -0.4114 -0.0063  0.1948
  968POPC   C1B11073  15.766  16.260   6.888  0.1848 -0.2361 -0.1464
  968POPC   C2B11074  15.526  16.154   7.410 -0.0241 -0.1149  0.0640
  968POPC   C3B11075  15.455  16.174   7.890 -0.1281  0.0692  0.0173
  968POPC   C4B11076  15.291  15.965   8.258  0.3135  0.3561 -0.1722
  969POPC   NC311077   6.922  15.808   5.817  0.1191 -0.1816  0.2370
  969POPC   PO411078   7.102  15.803   6.058 -0.1761  0.2006  0.0613
  969POPC   GL111079   7.220  15.807   6.495 -0.0004 -0.1999 -0.0085
  969POPC   GL211080   7.011  16.084   6.688 -0.2767  0.0061 -0.0371
  969POPC   C1A11081   6.995  15.520   6.819 -0.0150  0.1026  0.0233
  969POPC   D2A11082   7.194  15.247   7.053  0.2065 -0.0862 -0.0742
  969POPC   C3A11083   7.036  14.989   7.365 -0.2413 -0.0962 -0.0016
  969POPC   C4A11084   7.172  14.685   7.644 -0.1429  0.0217  0.0893
  969POPC   C1B11085   7.155  15.889   7.072  0.3394 -0.2073  0.1137
  969POPC   C2B11086   7.316  15.640   7.324  0.2289 -0.0544  0.0509
  969POPC   C3B11087   7.308  15.354   7.734 -0.0790 -0.1766 -0.0366
  969POPC   C4B11088   7.376  15.004   8.032 -0.0732 -0.2925  0.0986
  970POPC   NC311089   1.157   3.504   6.657  0.1729 -0.1709 -0.1773
  970POPC   PO411090   0.733   3.454   6.658 -0.0423  0.0673  0.0304
  970POPC   GL111091   0.562   3.539   7.031 -0.3160 -0.0505 -0.1320
  970POPC   GL211092   0.295   3.683   7.080 -0.1351  0.0858 -0.4778
  970POPC   C1A11093   0.642   3.284   7.392  0.1236  0.2698  0.0700
  970POPC   D2A11094   0.879   3.171   7.740 -0.3077 -0.1125 -0.0816
  970POPC   C3A11095   1.251   2.878   7.892  0.4142  0.0168  0.1979
  970POPC   C4A11096   1.425   2.678   8.172 -0.2473  0.0769 -0.2991
  970POPC   C1B11097   0.197   3.490   7.520  0.0829  0.1196  0.0532
  970POPC   C2B11098   0.165   3.357   7.902 -0.2652 -0.0318 -0.0623
  970POPC   C3B11099   0.072   3.261   8.264 -0.0935  0.0403 -0.0861
  970POPC   C4B11100   0.197   3.227   8.739  0.2469 -0.0596  0.1059
  971POPC   NC311101   9.136   0.017   5.623 -0.2060  0.1914  0.0289
  971POPC   PO411102   9.334   0.061   5.853 -0.0937 -0.0769  0.0666
  971POPC   GL111103   9.242  -0.097   6.242 -0.1240 -0.0430 -0.1022
  971POPC   GL211104   9.262  -0.405   6.380 -0.1981  0.0898 -0.1880
  971POPC   C1A11105   9.075   0.072   6.722 -0.2633  0.0601  0.3263
  971POPC   D2A11106   9.026   0.337   7.010  0.1500 -0.2477 -0.1902
  971POPC   C3A11107   8.897   0.566   7.326  0.2612  0.1183  0.0409
  971POPC   C4A11108   8.605   0.654   7.632  0.0875 -0.1844  0.1896
  971POPC   C1B11109   8.885  -0.388   6.496  0.0022  0.1177  0.0229
  971POPC   C2B11110   8.485  -0.525   6.692 -0.2674 -0.0117 -0.0291
  971POPC   C3B11111   8.454  -0.951   6.950 -0.0009 -0.1434 -0.0493
  971POPC   C4B11112   8.241  -0.997   7.334  0.0609 -0.1995  0.1110
  972POPC   NC311113  17.770  15.265   6.464  0.2482 -0.0487  0.0042
  972POPC   PO411114  17.386  15.134   6.221 -0.1346  0.1456 -0.0837
  972POPC   GL111115  17.196  15.039   6.654 -0.0441  0.1102 -0.0382
  972POPC   GL211116  17.006  15.317   6.584  0.2949  0.2509  0.1604
  972POPC   C1A11117  17.096  15.013   7.103  0.2365 -0.1759 -0.0440
  972POPC   D2A11118  16.908  14.970   7.518 -0.0438  0.0899  0.0801
  972POPC   C3A11119  17.128  15.256   7.949 -0.2708 -0.0352 -0.0129
  972POPC   C4A11120  17.156  15.635   8.167 -0.3680 -0.0323 -0.0396
  972POPC   C1B11121  16.775  15.486   6.967 -0.1499 -0.0881 -0.1910
  972POPC   C2B11122  16.733  15.427   7.386  0.3777  0.1063 -0.2380
  972POPC   C3B11123  16.660  15.422   7.796 -0.1282 -0.0880  0.0441
  972POPC   C4B11124  16.599  15.522   8.148  0.0917  0.1424 -0.1046
  973POPC   NC311125  17.287   9.403   5.897  0.0895 -0.0573 -0.1102
  973POPC   PO411126  17.395   9.743   6.209 -0.0278  0.1353  0.0936
  973POPC   GL111127  17.411   9.911   6.560  0.1208  0.0524 -0.0800
  973POPC   GL211128  17.422  10.252   6.555  0.0023  0.0666  0.3233
  973POPC   C1A11129  17.396   9.768   7.029  0.2370  0.3897  0.3837
  973POPC   D2A11130  17.466   9.841   7.499  0.3976  0.0485  0.2508
  973POPC   C3A11131  17.506   9.694   7.892 -0.1555 -0.0280 -0.1864
  973POPC   C4A11132  17.814   9.578   8.293 -0.1705  0.0411 -0.0793
  973POPC   C1B11133  17.438  10.318   6.954  0.1474 -0.0306 -0.1392
  973POPC   C2B11134  17.494  10.333   7.506 -0.0301 -0.0006  0.0462
  973POPC   C3B11135  17.615  10.338   7.906 -0.0230  0.2374 -0.2499
  973POPC   C4B11136  17.589  10.132   8.310  0.1472  0.2082  0.1885
  974POPC   NC311137  11.511   2.704   6.263 -0.4088  0.3035 -0.1829
  974POPC   PO411138  11.429   2.264   5.984  0.0920  0.0548  0.1619
  974POPC   GL111139  11.268   2.246   6.438  0.2587 -0.0802 -0.0224
  974POPC   GL211140  11.211   2.473   6.576 -0.0192 -0.1402 -0.1684
  974POPC   C1A11141  11.263   2.005   6.825 -0.0648  0.0870  0.0127
  974POPC   D2A11142  11.578   1.974   7.222  0.3144 -0.2078 -0.3466
  974POPC   C3A11143  11.531   2.438   7.443  0.0988 -0.0106 -0.1225
  974POPC   C4A11144  11.222   2.735   7.425  0.1669 -0.0348  0.1587
  974POPC   C1B11145  11.498   2.499   6.874  0.0081 -0.0540  0.0078
  974POPC   C2B11146  11.924   2.363   7.066 -0.2987  0.0654  0.1912
  974POPC   C3B11147  12.099   2.137   7.481  0.1373 -0.0148 -0.0173
  974POPC   C4B11148  12.095   2.115   7.960 -0.1403  0.2304 -0.1899
  975POPC   NC311149  14.875  17.114   5.924 -0.0242 -0.0206 -0.0856
  975POPC   PO411150  15.252  17.103   6.144 -0.1595 -0.0551  0.1523
  975POPC   GL111151  15.333  16.873   6.567  0.0155 -0.1129  0.0239
  975POPC   GL211152  15.176  17.083   6.765 -0.1835 -0.1308 -0.1151
  975POPC   C1A11153  15.625  16.740   6.897  0.1164  0.0896  0.0846
  975POPC   D2A11154  15.571  16.602   7.311  0.1221  0.1129  0.1990
  975POPC   C3A11155  15.744  16.594   7.659 -0.1029 -0.1082  0.2011
  975POPC   C4A11156  15.965  16.278   7.859 -0.2468  0.0724  0.0941
  975POPC   C1B11157  15.125  16.840   7.129 -0.1063  0.1159 -0.0475
  975POPC   C2B11158  14.993  16.518   7.338 -0.1741  0.0206  0.0611
  975POPC   C3B11159  15.027  16.318   7.755 -0.0565 -0.1688 -0.2333
  975POPC   C4B11160  14.829  16.015   8.056  0.0078 -0.0976  0.1283
  976POPC   NC311161  10.269   8.302   6.007  0.1878  0.2261  0.0002
  976POPC   PO411162   9.971   8.631   5.719  0.0767  0.2335 -0.0961
  976POPC   GL111163  10.145   8.723   6.201  0.1520  0.3463  0.1508
  976POPC   GL211164  10.308   8.531   6.507 -0.1130  0.2012  0.1745
  976POPC   C1A11165   9.957   8.800   6.663 -0.1597 -0.1650 -0.0996
  976POPC   D2A11166   9.482   8.673   6.912  0.0009  0.0659  0.1164
  976POPC   C3A11167   9.453   8.830   7.324  0.2120  0.0957  0.2972
  976POPC   C4A11168   9.406   9.175   7.458  0.1954  0.1402  0.0310
  976POPC   C1B11169  10.705   8.555   6.798 -0.1042 -0.1350 -0.2800
  976POPC   C2B11170  10.897   8.353   7.251  0.2523  0.0801  0.1354
  976POPC   C3B11171  11.036   8.303   7.604  0.1737 -0.4886  0.2983
  976POPC   C4B11172  11.201   8.366   8.095 -0.1555 -0.1888 -0.0032
  977POPC   NC311173   6.722   7.797   6.171  0.0605 -0.1228 -0.2726
  977POPC   PO411174   6.490   8.199   6.274 -0.2154  0.2881 -0.1946
  977POPC   GL111175   6.361   8.285   6.707  0.2327  0.0102  0.1552
  977POPC   GL211176   6.573   8.468   6.692  0.0518 -0.2546 -0.2442
  977POPC   C1A11177   6.150   8.176   7.065  0.0194  0.1646 -0.2066
  977POPC   D2A11178   5.980   8.015   7.473  0.2100  0.0249  0.0693
  977POPC   C3A11179   5.832   8.031   7.880 -0.0142 -0.2725 -0.2431
  977POPC   C4A11180   5.578   8.283   8.064  0.0132 -0.2593 -0.0049
  977POPC   C1B11181   6.592   8.449   7.213  0.1139 -0.0056 -0.2261
  977POPC   C2B11182   6.384   8.338   7.583  0.1568  0.3427 -0.0433
  977POPC   C3B11183   6.338   8.123   7.981  0.1030  0.0825 -0.0128
  977POPC   C4B11184   6.221   7.793   8.220  0.4033  0.0800 -0.1377
  978POPC   NC311185  11.962  11.044   5.776 -0.0401  0.1520 -0.1760
  978POPC   PO411186  12.085  10.572   5.765 -0.1891  0.1001  0.3327
  978POPC   GL111187  12.070  10.668   6.220 -0.3446 -0.0122  0.1251
  978POPC   GL211188  12.129  10.925   6.373 -0.0707 -0.1928  0.0032
  978POPC   C1A11189  11.632  10.796   6.344 -0.0266 -0.1931  0.0866
  978POPC   D2A11190  11.164  10.826   6.399 -0.3651  0.2399 -0.3729
  978POPC   C3A11191  11.274  11.320   6.499 -0.3449 -0.0965 -0.0313
  978POPC   C4A11192  11.486  11.621   6.585  0.0895  0.0353  0.1334
  978POPC   C1B11193  12.041  10.788   6.713  0.1128  0.0852 -0.2729
  978POPC   C2B11194  11.899  10.877   7.131 -0.3460 -0.2820  0.2057
  978POPC   C3B11195  11.610  10.979   7.396  0.0130 -0.2768  0.1081
  978POPC   C4B11196  11.453  11.004   7.871 -0.0703 -0.0520 -0.0751
  979YOPC   NC311197   2.453   5.106   6.378  0.0000 -0.3296  0.1456
  979YOPC   PO411198   2.178   5.105   6.638 -0.1538  0.1048  0.1315
  979YOPC   GL111199   2.264   5.042   7.083 -0.2483 -0.1460 -0.2732
  979YOPC   GL211200   2.131   4.761   7.130  0.0181 -0.0885  0.1669
  979YOPC   C1A11201   2.340   5.089   7.453 -0.0599  0.0100  0.0000
  979YOPC   D2A11202   2.438   4.837   7.832  0.2557 -0.0768 -0.1661
  979YOPC   C3A11203   2.819   4.877   8.100 -0.2152 -0.0183 -0.5179
  979YOPC   C4A11204   2.870   4.612   8.434  0.0343 -0.2581  0.1994
  979YOPC   C1B11205   2.216   4.553   7.522 -0.0950  0.0261 -0.3785
  979YOPC   C2B11206   2.273   4.401   7.950  0.1361 -0.1792 -0.2507
  979YOPC   D3B11207   2.405   4.538   8.282  0.0643  0.0062 -0.0066
  979YOPC   C4B11208   2.508   4.452   8.727 -0.2038  0.1457 -0.1621
  980YOPC   NC311209  11.190  14.551   5.920  0.0150  0.0386 -0.3560
  980YOPC   PO411210  11.570  14.747   6.178  0.2305  0.0030  0.0085
  980YOPC   GL111211  11.680  14.742   6.612  0.0665 -0.1715  0.1193
  980YOPC   GL211212  11.984  14.629   6.748  0.1433 -0.0796  0.0553
  980YOPC   C1A11213  11.759  14.847   7.101 -0.2026 -0.0131  0.0092
  980YOPC   D2A11214  11.811  14.848   7.474 -0.2043  0.4597  0.0882
  980YOPC   C3A11215  11.967  14.564   7.832  0.2285  0.0301 -0.0651
  980YOPC   C4A11216  12.270  14.442   7.737  0.1996  0.3876  0.0441
  980YOPC   C1B11217  12.167  14.657   7.213 -0.0597  0.1282 -0.3049
  980YOPC   C2B11218  12.377  14.976   7.493  0.0459 -0.0189 -0.2483
  980YOPC   D3B11219  12.625  14.852   7.777  0.0922 -0.1908 -0.0235
  980YOPC   C4B11220  12.875  14.754   8.178  0.1463 -0.0810 -0.2089
  981YOPC   NC311221  12.987   8.386   6.161 -0.1595 -0.2345  0.0855
  981YOPC   PO411222  13.021   8.101   6.570  0.0731  0.2244 -0.0828
  981YOPC   GL111223  13.071   8.047   7.039  0.0710  0.0681 -0.1309
  981YOPC   GL211224  13.250   7.879   7.050  0.2368 -0.1520  0.0597
  981YOPC   C1A11225  12.983   8.147   7.485  0.1971  0.2557  0.0642
  981YOPC   D2A11226  12.777   8.295   7.770  0.2040  0.0296 -0.0915
  981YOPC   C3A11227  12.407   8.171   7.819 -0.1291 -0.0546 -0.1737
  981YOPC   C4A11228  12.143   8.186   8.317 -0.0012  0.3056 -0.0368
  981YOPC   C1B11229  13.422   7.864   7.441  0.2257  0.2873 -0.0223
  981YOPC   C2B11230  13.321   7.998   7.860  0.0323  0.0374  0.1318
  981YOPC   D3B11231  13.369   7.632   8.024  0.2084 -0.2310  0.0322
  981YOPC   C4B11232  13.409   7.540   8.433 -0.0313 -0.0022  0.0376
  982YOPC   NC311233  14.320  10.045   6.562  0.0681 -0.0257  0.0888
  982YOPC   PO411234  14.655  10.283   6.490  0.1471  0.1725  0.0459
  982YOPC   GL111235  14.808  10.138   6.888  0.0154  0.1718  0.2009
  982YOPC   GL211236  14.717   9.889   6.893  0.0302 -0.0623 -0.3821
  982YOPC   C1A11237  14.792  10.112   7.338 -0.1333 -0.1319 -0.0420
  982YOPC   D2A11238  14.670  10.086   7.757 -0.2740 -0.0177 -0.2283
  982YOPC   C3A11239  14.945  10.145   8.147 -0.1790  0.0246 -0.1679
  982YOPC   C4A11240  15.383  10.269   8.377 -0.2801  0.0291 -0.1806
  982YOPC   C1B11241  15.097   9.817   7.143 -0.3829  0.1700  0.1353
  982YOPC   C2B11242  15.418   9.956   7.475 -0.1059 -0.0735  0.0236
  982YOPC   D3B11243  15.495  10.069   7.898 -0.1550 -0.1233  0.2178
  982YOPC   C4B11244  15.674  10.503   8.021  0.1103  0.2161 -0.1881
  983YOPC   NC311245   8.755  11.598   6.282  0.1411  0.0295  0.1534
  983YOPC   PO411246   8.688  12.063   6.156 -0.0729  0.3507 -0.3102
  983YOPC   GL111247   8.826  12.265   6.590  0.0033  0.1259 -0.1924
  983YOPC   GL211248   9.120  12.287   6.769  0.3575 -0.2606 -0.1799
  983YOPC   C1A11249   8.569  12.414   6.977  0.0632  0.0716 -0.1436
  983YOPC   D2A11250   8.686  12.698   7.339  0.0361  0.0453 -0.0345
  983YOPC   C3A11251   8.982  12.703   7.659  0.1334  0.2058  0.2512
  983YOPC   C4A11252   9.004  13.020   7.983  0.0254  0.2325 -0.0889
  983YOPC   C1B11253   9.504  12.561   6.722 -0.3165 -0.0886 -0.0314
  983YOPC   C2B11254   9.643  13.040   6.760  0.1125  0.0863 -0.0773
  983YOPC   D3B11255   9.482  13.358   6.545  0.0673 -0.1609 -0.0828
  983YOPC   C4B11256   9.690  13.762   6.371 -0.0931 -0.2427  0.0255
  984YOPC   NC311257  13.770   0.117   5.904 -0.0477  0.1839  0.1279
  984YOPC   PO411258  13.992  -0.105   6.228  0.2362 -0.1994 -0.1075
  984YOPC   GL111259  14.049  -0.024   6.654  0.0656  0.2813 -0.2169
  984YOPC   GL211260  14.314  -0.067   6.815  0.3340 -0.0162  0.0802
  984YOPC   C1A11261  13.989  -0.248   7.111  0.3247  0.0440  0.0860
  984YOPC   D2A11262  13.923  -0.554   7.436  0.1908 -0.1798  0.2257
  984YOPC   C3A11263  13.708  -0.981   7.339  0.2160  0.0302 -0.1243
  984YOPC   C4A11264  13.692  -1.198   7.015 -0.0559 -0.0130  0.1289
  984YOPC   C1B11265  14.383   0.132   7.249 -0.0049  0.0661 -0.1659
  984YOPC   C2B11266  14.091  -0.132   7.612  0.2486 -0.2337 -0.0667
  984YOPC   D3B11267  14.041  -0.468   7.881  0.0930 -0.0905 -0.2061
  984YOPC   C4B11268  13.819  -0.711   8.141  0.2467 -0.1192  0.0795
  985YOPC   NC311269  14.917   2.179   6.296 -0.0676  0.1606 -0.1899
  985YOPC   PO411270  14.657   2.526   6.624 -0.0679 -0.3376  0.1357
  985YOPC   GL111271  14.914   2.663   6.946  0.1495 -0.1331 -0.1923
  985YOPC   GL211272  14.656   2.916   7.050  0.2442 -0.0588  0.1970
  985YOPC   C1A11273  14.850   2.620   7.411 -0.0683  0.2713  0.0952
  985YOPC   D2A11274  14.721   2.698   7.913  0.1646  0.3113 -0.0403
  985YOPC   C3A11275  14.378   2.704   8.271  0.1819 -0.2011  0.1378
  985YOPC   C4A11276  14.350   3.004   8.645 -0.2375 -0.1314 -0.1126
  985YOPC   C1B11277  14.739   3.090   7.509  0.0534  0.3631  0.3167
  985YOPC   C2B11278  14.756   3.283   7.965 -0.1047  0.0809  0.0363
  985YOPC   D3B11279  14.504   3.326   8.306 -0.0596  0.0850  0.0974
  985YOPC   C4B11280  14.106   3.445   8.391 -0.2028  0.1054  0.0960
  986YOPC   NC311281  16.703   5.479   6.871  0.0063 -0.2173  0.3100
  986YOPC   PO411282  16.544   5.966   6.833  0.3419 -0.0840  0.0682
  986YOPC   GL111283  16.331   6.211   7.091 -0.2415  0.3771  0.0689
  986YOPC   GL211284  16.023   6.330   7.030  0.0111  0.0333 -0.0321
  986YOPC   C1A11285  16.256   6.202   7.527  0.0376  0.6190  0.2353
  986YOPC   D2A11286  16.318   5.831   7.779 -0.2105 -0.0221  0.1412
  986YOPC   C3A11287  16.392   5.906   8.226 -0.1587 -0.0885  0.1255
  986YOPC   C4A11288  16.205   5.900   8.693 -0.0843  0.0958 -0.2097
  986YOPC   C1B11289  16.067   6.614   7.337 -0.0676  0.2167  0.0889
  986YOPC   C2B11290  16.035   6.779   7.669  0.2728  0.0203  0.1568
  986YOPC   D3B11291  15.928   6.833   8.000  0.2359  0.1369  0.1524
  986YOPC   C4B11292  15.860   6.833   8.388  0.0139 -0.0063 -0.0268
  987YOPC   NC311293   2.329   2.477   6.885 -0.0699  0.3183  0.0229
  987YOPC   PO411294   2.834   2.584   6.886 -0.4335 -0.1763 -0.2918
  987YOPC   GL111295   2.705   2.911   7.154 -0.0235 -0.1421  0.1034
  987YOPC   GL211296   2.926   2.928   7.435 -0.3305  0.0421  0.1903
  987YOPC   C1A11297   2.465   3.014   7.441 -0.0835  0.0885 -0.2886
  987YOPC   D2A11298   2.548   3.193   7.792  0.0949 -0.0696 -0.0909
  987YOPC   C3A11299   2.310   3.096   8.111  0.1637 -0.0819 -0.0822
  987YOPC   C4A11300   2.171   3.212   8.493  0.3329  0.5295 -0.1839
  987YOPC   C1B11301   3.071   2.509   7.496  0.0132  0.3769 -0.1467
  987YOPC   C2B11302   3.403   2.118   7.677 -0.1353  0.1392  0.2683
  987YOPC   D3B11303   3.290   2.003   8.092  0.0810 -0.2117 -0.2085
  987YOPC   C4B11304   2.995   1.937   8.427 -0.1200  0.0231  0.2624
  988YOPC   NC311305   2.778   5.898   6.734 -0.2969  0.0591  0.1505
  988YOPC   PO411306   2.603   5.936   6.987 -0.0843  0.1685  0.0251
  988YOPC   GL111307   2.789   5.884   7.401 -0.2035 -0.0085 -0.2067
  988YOPC   GL211308   3.073   5.740   7.415  0.3459  0.1969  0.2367
  988YOPC   C1A11309   3.001   6.024   7.869  0.2850  0.0295 -0.1443
  988YOPC   D2A11310   3.156   5.925   8.261 -0.1220  0.2779 -0.1698
  988YOPC   C3A11311   3.574   6.015   8.377  0.2614  0.1013  0.0861
  988YOPC   C4A11312   3.953   5.732   8.531  0.0813  0.2038 -0.0524
  988YOPC   C1B11313   3.300   5.575   7.632 -0.1248 -0.0088  0.0194
  988YOPC   C2B11314   3.345   5.564   7.988 -0.2043 -0.2081 -0.0227
  988YOPC   D3B11315   3.226   5.431   8.348 -0.1061 -0.0827 -0.2041
  988YOPC   C4B11316   3.582   5.266   8.773 -0.0332  0.1374  0.0031
  989YOPC   NC311317   2.138   6.555   6.435 -0.1054 -0.0828 -0.0061
  989YOPC   PO411318   1.898   6.997   6.501 -0.0925  0.0107 -0.1416
  989YOPC   GL111319   2.186   6.913   6.788  0.3345  0.0914 -0.0311
  989YOPC   GL211320   2.168   6.585   6.938  0.1800 -0.1477  0.1408
  989YOPC   C1A11321   2.300   7.089   7.158  0.2753  0.1096  0.0232
  989YOPC   D2A11322   2.349   6.966   7.549 -0.2051  0.0824  0.3460
  989YOPC   C3A11323   2.518   7.276   7.863 -0.1486 -0.0262 -0.1472
  989YOPC   C4A11324   2.706   7.336   8.319  0.2279 -0.2166  0.2930
  989YOPC   C1B11325   2.152   6.527   7.472 -0.0771  0.1239 -0.0077
  989YOPC   C2B11326   2.045   6.469   7.859  0.3596 -0.0183  0.0647
  989YOPC   D3B11327   2.170   6.419   8.310  0.1272 -0.0805 -0.1438
  989YOPC   C4B11328   2.528   6.440   8.476 -0.2225 -0.1124  0.0364
  990YOPC   NC311329   9.961  12.032   6.049  0.1773  0.3684 -0.0004
  990YOPC   PO411330   9.704  11.804   6.205 -0.2152 -0.0900 -0.1085
  990YOPC   GL111331   9.829  11.781   6.573  0.0728 -0.0888  0.0427
  990YOPC   GL211332   9.480  11.858   6.804 -0.2128  0.0583 -0.0304
  990YOPC   C1A11333   9.994  11.650   6.899 -0.3016 -0.1841 -0.0906
  990YOPC   D2A11334  10.156  11.311   7.128 -0.0253  0.0907 -0.1901
  990YOPC   C3A11335  10.064  11.254   7.626 -0.0731 -0.1610  0.0969
  990YOPC   C4A11336   9.843  11.368   7.926 -0.2419 -0.1976 -0.0827
  990YOPC   C1B11337   9.571  12.220   7.156  0.1082  0.1758 -0.1000
  990YOPC   C2B11338   9.625  12.206   7.600  0.2733  0.1354 -0.0300
  990YOPC   D3B11339   9.775  12.559   7.705 -0.1012  0.1982 -0.2568
  990YOPC   C4B11340   9.420  12.785   7.835 -0.1475  0.0614  0.3988
  991YOPC   NC311341  13.610  10.444   6.263  0.0180  0.0253 -0.2403
  991YOPC   PO411342  13.782  10.922   6.217 -0.0122  0.1305 -0.1589
  991YOPC   GL111343  13.603  10.887   6.508 -0.2049  0.3370 -0.1474
  991YOPC   GL211344  13.342  10.889   6.556  0.0181  0.2185 -0.1909
  991YOPC   C1A11345  13.652  11.288   6.748 -0.0423  0.1152  0.0606
  991YOPC   D2A11346  13.633  11.655   6.767  0.1494 -0.0218  0.0832
  991YOPC   C3A11347  13.604  11.748   7.137  0.1055 -0.0632  0.1214
  991YOPC   C4A11348  13.810  11.670   7.438 -0.1519  0.0700 -0.0838
  991YOPC   C1B11349  13.361  10.784   6.984  0.2024  0.0848 -0.0027
  991YOPC   C2B11350  13.346  10.630   7.374 -0.2665 -0.1008 -0.2172
  991YOPC   D3B11351  13.388  10.864   7.595  0.1743 -0.0502 -0.3365
  991YOPC   C4B11352  13.456  11.030   7.967 -0.0711  0.1793 -0.2344
  992YOPC   NC311353   4.999   1.605   6.469 -0.0799 -0.2050 -0.1106
  992YOPC   PO411354   4.553   1.408   6.411  0.2077 -0.2804  0.1326
  992YOPC   GL111355   4.491   1.398   6.857  0.2893 -0.4582 -0.0990
  992YOPC   GL211356   4.735   1.640   6.896 -0.0583  0.1296  0.0264
  992YOPC   C1A11357   4.388   1.576   7.274 -0.0703 -0.0766  0.2681
  992YOPC   D2A11358   4.662   1.445   7.650 -0.0910  0.0032 -0.3314
  992YOPC   C3A11359   4.729   1.579   8.064  0.1393  0.1499  0.1166
  992YOPC   C4A11360   4.908   1.365   8.359 -0.0746  0.0056 -0.0334
  992YOPC   C1B11361   4.865   1.682   7.300  0.0469 -0.0114 -0.1939
  992YOPC   C2B11362   5.123   1.574   7.659  0.2568 -0.0738 -0.1562
  992YOPC   D3B11363   5.008   1.194   7.917 -0.0386  0.1930 -0.2185
  992YOPC   C4B11364   4.795   0.887   8.249 -0.0680  0.1161  0.2389
  993YOPC   NC311365   0.749  17.611   6.513 -0.0948  0.0501 -0.1182
  993YOPC   PO411366   0.772  17.166   6.664  0.1210 -0.3089 -0.5387
  993YOPC   GL111367   0.890  17.168   7.044 -0.2539  0.1167  0.0984
  993YOPC   GL211368   1.064  16.966   7.242  0.1744 -0.1162  0.0976
  993YOPC   C1A11369   0.892  17.410   7.476 -0.3505 -0.1216 -0.0425
  993YOPC   D2A11370   0.870  17.494   7.930 -0.1445  0.0598 -0.1780
  993YOPC   C3A11371   0.842  17.883   8.135  0.1529  0.0249 -0.1815
  993YOPC   C4A11372   0.840  18.374   8.160  0.0290  0.1548 -0.1815
  993YOPC   C1B11373   1.169  17.026   7.683 -0.0461 -0.0695  0.1776
  993YOPC   C2B11374   1.130  17.042   8.109  0.0848 -0.1719 -0.1092
  993YOPC   D3B11375   0.870  17.315   8.438 -0.0436  0.0420  0.0823
  993YOPC   C4B11376   0.655  17.208   8.882  0.1250 -0.1020  0.0539
  994YOPC   NC311377   7.628   4.991   5.628 -0.2442 -0.2066  0.0898
  994YOPC   PO411378   7.954   4.728   5.812  0.0005  0.1392  0.2148
  994YOPC   GL111379   7.929   4.435   6.189  0.0999 -0.1685  0.2840
  994YOPC   GL211380   7.991   4.099   6.160 -0.1202 -0.1863 -0.1023
  994YOPC   C1A11381   7.753   4.185   6.635 -0.0185  0.0517  0.3804
  994YOPC   D2A11382   7.490   3.963   6.794  0.1106 -0.1712  0.0683
  994YOPC   C3A11383   7.362   3.968   7.258  0.1142 -0.1346  0.3188
  994YOPC   C4A11384   7.393   3.861   7.706 -0.1086  0.0367  0.1491
  994YOPC   C1B11385   7.911   3.707   6.382  0.1394  0.0844  0.0826
  994YOPC   C2B11386   7.717   3.272   6.389 -0.0654  0.0581 -0.2630
  994YOPC   D3B11387   7.481   3.101   6.710  0.1025 -0.0301  0.1363
  994YOPC   C4B11388   7.078   3.133   6.836 -0.1388  0.1652 -0.2768
  995YOPC   NC311389   0.505   7.369   6.721  0.0797 -0.0235 -0.1172
  995YOPC   PO411390   0.801   7.416   6.941 -0.1323 -0.2442 -0.1244
  995YOPC   GL111391   0.672   7.535   7.388 -0.0453  0.3607  0.1010
  995YOPC   GL211392   0.456   7.360   7.507  0.1050 -0.1341 -0.0725
  995YOPC   C1A11393   0.648   7.723   7.778 -0.3613  0.0322 -0.0403
  995YOPC   D2A11394   0.720   7.882   8.219  0.1247 -0.0141 -0.2851
  995YOPC   C3A11395   1.059   7.827   8.507  0.1890  0.2590  0.1220
  995YOPC   C4A11396   1.415   7.646   8.491 -0.0622 -0.2932 -0.2492
  995YOPC   C1B11397   0.291   7.338   7.853 -0.0980 -0.1562 -0.0199
  995YOPC   C2B11398   0.193   7.541   8.250 -0.2384  0.0671  0.1654
  995YOPC   D3B11399  -0.091   7.669   8.377  0.1398  0.2789  0.1824
  995YOPC   C4B11400  -0.298   7.495   8.785  0.0032  0.0721  0.0348
  996YOPC   NC311401   0.244   1.805   6.453  0.1019  0.0494  0.0059
  996YOPC   PO411402  -0.172   1.468   6.549  0.0428  0.0144 -0.3394
  996YOPC   GL111403  -0.321   1.472   7.002  0.2633 -0.0994 -0.0689
  996YOPC   GL211404  -0.330   1.274   7.209 -0.0614  0.0067 -0.2417
  996YOPC   C1A11405  -0.188   1.815   7.276  0.0624  0.1745  0.0563
  996YOPC   D2A11406   0.057   1.889   7.746  0.0420  0.1907 -0.0473
  996YOPC   C3A11407  -0.022   1.805   8.216  0.1437 -0.2130  0.1005
  996YOPC   C4A11408   0.094   1.847   8.685 -0.3559  0.1638 -0.2154
  996YOPC   C1B11409  -0.363   1.137   7.672  0.2225  0.0742 -0.0661
  996YOPC   C2B11410  -0.394   1.044   8.124 -0.1964 -0.1008  0.0136
  996YOPC   D3B11411  -0.200   0.814   8.330  0.1416  0.1265 -0.0835
  996YOPC   C4B11412   0.150   0.787   8.673  0.3817 -0.2352  0.0057
  997YOPC   NC311413  12.649   7.293   6.122 -0.0251  0.2088  0.0689
  997YOPC   PO411414  13.048   7.185   6.102  0.1822  0.1339  0.1811
  997YOPC   GL111415  12.908   7.071   6.520 -0.0015 -0.0751 -0.1669
  997YOPC   GL211416  12.577   7.213   6.631  0.0000  0.1820 -0.2411
  997YOPC   C1A11417  12.930   6.992   6.938 -0.1357 -0.0006 -0.0942
  997YOPC   D2A11418  12.667   6.877   7.292  0.1713  0.0343  0.1530
  997YOPC   C3A11419  12.680   7.033   7.572  0.1499  0.4129  0.0719
  997YOPC   C4A11420  12.500   7.196   7.973 -0.2701  0.0376  0.2085
  997YOPC   C1B11421  12.446   7.242   7.005  0.0633 -0.0184  0.0185
  997YOPC   C2B11422  12.426   7.373   7.370  0.0018  0.1792 -0.1819
  997YOPC   D3B11423  12.123   7.172   7.655  0.1255  0.1150 -0.3714
  997YOPC   C4B11424  11.946   7.168   8.061 -0.1056  0.1228  0.3683
  998YOPC   NC311425  13.238   3.799   6.483  0.1632  0.1884  0.2856
  998YOPC   PO411426  12.894   3.527   6.479  0.0820 -0.0408  0.1385
  998YOPC   GL111427  12.691   3.569   6.817  0.2509  0.1609 -0.0352
  998YOPC   GL211428  12.805   3.245   6.976 -0.2944 -0.0969  0.2589
  998YOPC   C1A11429  12.371   3.605   7.210  0.2762  0.0952  0.0775
  998YOPC   D2A11430  12.474   3.519   7.660  0.0204 -0.0148  0.1114
  998YOPC   C3A11431  12.605   3.023   7.692  0.0180 -0.5162 -0.0774
  998YOPC   C4A11432  12.946   2.809   7.946  0.0838  0.0565 -0.1892
  998YOPC   C1B11433  12.963   3.474   7.299 -0.1659 -0.1638 -0.2186
  998YOPC   C2B11434  13.225   3.749   7.497  0.0890  0.1418  0.1262
  998YOPC   D3B11435  13.565   3.773   7.822 -0.0031 -0.0710  0.3256
  998YOPC   C4B11436  13.889   3.832   8.204  0.1496  0.0839 -0.0843
  999YOPC   NC311437  12.120  16.455   6.169  0.0144  0.0413  0.2594
  999YOPC   PO411438  12.162  16.122   6.146  0.0030  0.0962  0.1104
  999YOPC   GL111439  11.961  16.002   6.514 -0.1213  0.1349  0.0249
  999YOPC   GL211440  12.107  16.015   6.765  0.1230  0.0053 -0.0461
  999YOPC   C1A11441  11.678  15.852   6.823 -0.0728 -0.1897 -0.0437
  999YOPC   D2A11442  11.600  15.879   7.243  0.4299 -0.1139  0.4210
  999YOPC   C3A11443  11.687  15.496   7.372  0.1111 -0.3403 -0.0419
  999YOPC   C4A11444  12.036  15.276   7.194  0.3000  0.0418  0.4023
  999YOPC   C1B11445  12.072  15.799   7.099  0.1273 -0.0875  0.0277
  999YOPC   C2B11446  12.053  15.781   7.515 -0.0717  0.2161 -0.2835
  999YOPC   D3B11447  12.109  15.456   7.680  0.0078 -0.0184 -0.2653
  999YOPC   C4B11448  12.086  15.078   7.858  0.0026 -0.0568 -0.1876
 1000YOPC   NC311449   4.177   8.084   6.537  0.1197  0.1277 -0.0772
 1000YOPC   PO411450   4.014   7.633   6.384 -0.0788 -0.3641 -0.0587
 1000YOPC   GL111451   4.068   7.558   6.817 -0.1915 -0.0688  0.0513
 1000YOPC   GL211452   3.789   7.400   6.857  0.1507 -0.2373  0.0638
 1000YOPC   C1A11453   3.821   7.757   7.227  0.0833 -0.3223 -0.1462
 1000YOPC   D2A11454   3.534   7.778   7.525  0.0391  0.1584 -0.1559
 1000YOPC   C3A11455   3.742   8.055   7.793  0.0146  0.0805  0.2734
 1000YOPC   C4A11456   3.946   8.127   8.251  0.0218 -0.1501 -0.3667
 1000YOPC   C1B11457   3.731   7.244   7.245 -0.2463 -0.0280  0.2871
 1000YOPC   C2B11458   3.889   7.086   7.541 -0.1454 -0.0015 -0.3520
 1000YOPC   D3B11459   4.287   7.076   7.707  0.0529 -0.1590 -0.2703
 1000YOPC   C4B11460   4.778   7.084   7.876  0.2460 -0.0509  0.1710
 1001YOPC   NC311461   6.074  15.563   6.316 -0.0984 -0.2455  0.2352
 1001YOPC   PO411462   6.368  15.262   6.231 -0.1066  0.4026  0.1882
 1001YOPC   GL111463   6.434  15.332   6.711 -0.0871 -0.1753  0.1334
 1001YOPC   GL211464   6.254  14.992   6.792  0.1821 -0.0637 -0.2474
 1001YOPC   C1A11465   6.281  15.539   7.049 -0.0228 -0.3428 -0.1590
 1001YOPC   D2A11466   6.280  15.431   7.460 -0.0218 -0.0627 -0.0337
 1001YOPC   C3A11467   6.481  15.420   7.774 -0.0508 -0.1428 -0.1468
 1001YOPC   C4A11468   6.618  15.376   8.170  0.1337 -0.1887 -0.0397
 1001YOPC   C1B11469   6.281  14.832   7.269 -0.3125  0.1397 -0.0569
 1001YOPC   C2B11470   6.424  14.937   7.640 -0.2521 -0.2373 -0.3770
 1001YOPC   D3B11471   6.822  15.006   7.847 -0.2101  0.1089 -0.1521
 1001YOPC   C4B11472   6.931  14.622   8.118 -0.2248 -0.3659 -0.2730
 1002YOPC   NC311473   5.766  14.253   5.828 -0.0541 -0.3306  0.2511
 1002YOPC   PO411474   6.208  14.371   6.039 -0.0412  0.0171 -0.1222
 1002YOPC   GL111475   6.184  14.264   6.469  0.3991 -0.0619  0.3865
 1002YOPC   GL211476   6.174  14.455   6.691 -0.0090  0.3113  0.1727
 1002YOPC   C1A11477   6.125  13.860   6.655 -0.1516  0.0348 -0.0145
 1002YOPC   D2A11478   6.306  13.850   7.024 -0.0920  0.1861  0.2282
 1002YOPC   C3A11479   6.145  13.941   7.427  0.0924  0.1514 -0.0056
 1002YOPC   C4A11480   6.303  13.986   7.885 -0.2225  0.4098 -0.2413
 1002YOPC   C1B11481   6.176  14.333   7.050  0.2305 -0.0384  0.0038
 1002YOPC   C2B11482   6.303  14.389   7.439  0.1397 -0.2291 -0.0472
 1002YOPC   D3B11483   6.005  14.483   7.739 -0.1607 -0.2184 -0.0189
 1002YOPC   C4B11484   5.705  14.742   7.948  0.0372  0.0652 -0.3976
 1003YOPC   NC311485  12.916   9.664   6.284 -0.0579 -0.0937  0.0393
 1003YOPC   PO411486  13.007   9.231   6.250  0.3426 -0.0375 -0.2276
 1003YOPC   GL111487  12.890   9.302   6.704 -0.1384 -0.0859  0.0754
 1003YOPC   GL211488  13.232   9.490   6.769 -0.0992 -0.0741 -0.2335
 1003YOPC   C1A11489  12.890   9.178   7.162 -0.0535 -0.1310  0.2377
 1003YOPC   D2A11490  12.949   9.265   7.514  0.0592 -0.2326  0.0931
 1003YOPC   C3A11491  12.705   9.300   7.851  0.0989  0.4074 -0.0163
 1003YOPC   C4A11492  12.217   9.422   7.865 -0.2594 -0.2367 -0.2609
 1003YOPC   C1B11493  13.366   9.443   7.257  0.3331  0.1749  0.3632
 1003YOPC   C2B11494  13.408   9.373   7.656 -0.1100 -0.2440  0.1256
 1003YOPC   D3B11495  13.584   9.536   7.945  0.2237  0.1739  0.3584
 1003YOPC   C4B11496  13.446   9.506   8.339  0.3118  0.0383 -0.1446
 1004YOPC   NC311497   3.474  15.619   6.382 -0.3123 -0.1534 -0.4249
 1004YOPC   PO411498   3.439  15.332   6.647  0.1738  0.0193 -0.0880
 1004YOPC   GL111499   3.595  15.047   6.963  0.2515 -0.0001  0.1293
 1004YOPC   GL211500   3.629  14.863   6.761 -0.0107 -0.1261 -0.2426
 1004YOPC   C1A11501   3.761  15.001   7.358 -0.1072  0.0150 -0.0483
 1004YOPC   D2A11502   3.777  14.968   7.768 -0.0185  0.0304 -0.1337
 1004YOPC   C3A11503   4.146  14.826   7.972  0.0612  0.1933  0.0154
 1004YOPC   C4A11504   4.445  14.859   8.275  0.0055  0.2120  0.1881
 1004YOPC   C1B11505   3.538  14.570   7.137  0.3057  0.0562 -0.2541
 1004YOPC   C2B11506   3.499  14.586   7.587  0.2726 -0.1355  0.3252
 1004YOPC   D3B11507   3.572  14.309   7.851 -0.2858 -0.1867  0.1854
 1004YOPC   C4B11508   3.413  14.134   8.312  0.0666 -0.2391 -0.2095
 1005YOPC   NC311509  14.176  12.328   6.143 -0.0277 -0.2688 -0.0070
 1005YOPC   PO411510  14.406  11.957   6.139 -0.1248 -0.1643  0.3505
 1005YOPC   GL111511  14.426  11.773   6.442  0.3724 -0.0687 -0.1142
 1005YOPC   GL211512  14.152  11.545   6.548  0.1590  0.1270  0.0410
 1005YOPC   C1A11513  14.523  11.739   6.887  0.0141  0.1110  0.0626
 1005YOPC   D2A11514  14.443  12.107   7.207  0.3414 -0.0535 -0.1180
 1005YOPC   C3A11515  14.581  12.055   7.647 -0.1907  0.3765 -0.1727
 1005YOPC   C4A11516  14.770  12.159   8.064 -0.2288  0.0250 -0.2676
 1005YOPC   C1B11517  14.095  11.487   6.990  0.0340  0.2905 -0.2822
 1005YOPC   C2B11518  14.281  11.482   7.368 -0.0098 -0.0598 -0.3491
 1005YOPC   D3B11519  14.233  11.746   7.803 -0.0498  0.0372  0.4906
 1005YOPC   C4B11520  14.328  11.632   8.172  0.4156 -0.1775  0.0946
 1006YOPC   NC311521  12.002  14.897   5.979  0.0497 -0.0062 -0.0371
 1006YOPC   PO411522  11.829  15.139   6.331  0.0652 -0.0471 -0.1410
 1006YOPC   GL111523  11.969  15.137   6.679 -0.1335  0.1086 -0.1416
 1006YOPC   GL211524  12.011  15.466   6.754  0.0145 -0.0949  0.0628
 1006YOPC   C1A11525  12.317  14.995   6.827  0.2690 -0.0039  0.1052
 1006YOPC   D2A11526  12.560  14.621   6.922 -0.0858  0.4871  0.1200
 1006YOPC   C3A11527  12.766  14.665   7.298  0.0101 -0.0316 -0.2930
 1006YOPC   C4A11528  12.736  14.394   7.587  0.0546  0.1338  0.1170
 1006YOPC   C1B11529  11.614  15.314   6.928  0.2750  0.0600  0.4952
 1006YOPC   C2B11530  11.406  15.148   7.264  0.1443  0.0197  0.0439
 1006YOPC   D3B11531  11.475  15.147   7.685 -0.0285 -0.1113  0.2091
 1006YOPC   C4B11532  11.128  15.163   7.918 -0.2258 -0.1826 -0.1130
 1007YOPC   NC311533   6.038   5.589   5.547 -0.2466  0.0666  0.1106
 1007YOPC   PO411534   6.331   5.655   5.656  0.0928 -0.2604  0.0770
 1007YOPC   GL111535   6.304   5.623   6.074 -0.1740  0.1394  0.1399
 1007YOPC   GL211536   6.449   5.366   6.256 -0.1677 -0.1493  0.2339
 1007YOPC   C1A11537   6.474   5.816   6.441  0.1162 -0.0925  0.0021
 1007YOPC   D2A11538   6.806   5.948   6.674  0.0058  0.1422  0.3049
 1007YOPC   C3A11539   7.067   5.994   7.008  0.0017 -0.2029  0.1794
 1007YOPC   C4A11540   7.191   6.222   7.318 -0.2672  0.0601 -0.4647
 1007YOPC   C1B11541   6.416   5.404   6.708 -0.2381 -0.2064 -0.2041
 1007YOPC   C2B11542   6.436   5.656   7.016  0.0493  0.1359  0.1114
 1007YOPC   D3B11543   6.711   5.730   7.279  0.0240  0.1231 -0.2241
 1007YOPC   C4B11544   6.902   5.903   7.515 -0.3091  0.0336 -0.0801
 1008YOPC   NC311545  11.287  14.023   5.856  0.1219 -0.2435 -0.2664
 1008YOPC   PO411546  11.521  14.236   6.147 -0.4424  0.1067 -0.1270
 1008YOPC   GL111547  11.632  14.196   6.467  0.3305  0.1639 -0.1032
 1008YOPC   GL211548  11.426  14.335   6.705 -0.1678  0.3222 -0.0077
 1008YOPC   C1A11549  11.838  14.098   6.831  0.1583  0.0566 -0.0495
 1008YOPC   D2A11550  11.883  14.260   7.216 -0.0307 -0.1470  0.2403
 1008YOPC   C3A11551  11.617  14.219   7.602  0.0391  0.0355 -0.2149
 1008YOPC   C4A11552  11.270  14.226   7.951  0.0301 -0.3159 -0.2553
 1008YOPC   C1B11553  11.408  14.201   7.088  0.0485  0.1229  0.0752
 1008YOPC   C2B11554  11.122  14.101   7.295  0.3292 -0.4274  0.1968
 1008YOPC   D3B11555  11.199  13.818   7.670  0.1724  0.0387  0.0237
 1008YOPC   C4B11556  11.149  13.787   8.120 -0.0403 -0.2578  0.0828
 1009YOPC   NC311557   5.279  14.036   6.012  0.1614  0.1357  0.0976
 1009YOPC   PO411558   5.408  13.631   6.215  0.1009 -0.0374 -0.1641
 1009YOPC   GL111559   5.101  13.842   6.552 -0.0832  0.3139 -0.0271
 1009YOPC   GL211560   5.265  14.023   6.733 -0.1381 -0.1652 -0.1186
 1009YOPC   C1A11561   4.775  13.841   6.856  0.0681  0.2018  0.2427
 1009YOPC   D2A11562   4.739  13.692   7.212  0.1623  0.0961  0.0546
 1009YOPC   C3A11563   4.962  14.010   7.557  0.2032  0.0488  0.0401
 1009YOPC   C4A11564   5.059  14.045   8.062 -0.2929 -0.1692  0.1618
 1009YOPC   C1B11565   5.032  14.245   7.049 -0.1198  0.1250 -0.2433
 1009YOPC   C2B11566   4.916  14.468   7.393  0.0528 -0.0223 -0.0876
 1009YOPC   D3B11567   4.919  14.562   7.826  0.0528 -0.1028  0.2775
 1009YOPC   C4B11568   4.944  14.648   8.247 -0.3178 -0.1045  0.3277
 1010YOPC   NC311569   8.872  17.109   6.033 -0.2062 -0.2742  0.0496
 1010YOPC   PO411570   9.284  17.223   6.122  0.1068  0.0852 -0.1455
 1010YOPC   GL111571   9.039  17.217   6.499  0.1601  0.0934  0.0379
 1010YOPC   GL211572   8.675  17.111   6.502  0.3988 -0.0696 -0.0882
 1010YOPC   C1A11573   8.884  17.274   6.923 -0.1141  0.2407 -0.0559
 1010YOPC   D2A11574   9.022  17.393   7.278 -0.1216 -0.3160 -0.1838
 1010YOPC   C3A11575   8.877  17.738   7.605 -0.1199  0.0048  0.0096
 1010YOPC   C4A11576   8.783  17.821   7.988 -0.2729 -0.1940  0.0623
 1010YOPC   C1B11577   8.295  16.979   6.487  0.4347 -0.0303 -0.3123
 1010YOPC   C2B11578   8.390  16.590   6.611  0.1149 -0.1405 -0.1031
 1010YOPC   D3B11579   8.363  16.596   7.058 -0.0797 -0.0931 -0.0509
 1010YOPC   C4B11580   8.411  16.630   7.445  0.1383 -0.2898 -0.0688
 1011YOPC   NC311581   3.184   0.885   6.380 -0.0491  0.0784  0.0742
 1011YOPC   PO411582   2.893   1.128   6.552 -0.3852 -0.0020 -0.3706
 1011YOPC   GL111583   2.874   1.407   6.917  0.2046 -0.1132 -0.3727
 1011YOPC   GL211584   3.181   1.678   6.898  0.2700  0.2056  0.1477
 1011YOPC   C1A11585   3.059   1.215   7.299 -0.0156  0.1063  0.1117
 1011YOPC   D2A11586   3.278   0.836   7.456 -0.1238 -0.1788 -0.0651
 1011YOPC   C3A11587   3.422   0.486   7.228  0.1055 -0.0733  0.0400
 1011YOPC   C4A11588   3.855   0.317   7.219 -0.1647  0.4613 -0.0967
 1011YOPC   C1B11589   2.909   1.805   7.203  0.2575  0.2037 -0.1168
 1011YOPC   C2B11590   2.881   1.879   7.704 -0.1037 -0.1827 -0.0221
 1011YOPC   D3B11591   2.858   1.619   7.990 -0.2773 -0.0902 -0.0281
 1011YOPC   C4B11592   2.804   1.496   8.419  0.0045 -0.0498  0.0351
 1012YOPC   NC311593  15.242  12.153   5.170  0.2289  0.0591 -0.0083
 1012YOPC   PO411594  15.172  11.923   5.588 -0.2291 -0.0283 -0.1020
 1012YOPC   GL111595  15.296  11.817   6.076 -0.0158 -0.2779  0.1896
 1012YOPC   GL211596  15.167  11.879   6.323 -0.1411 -0.1137 -0.1930
 1012YOPC   C1A11597  15.357  11.436   6.370  0.2917 -0.0378 -0.1708
 1012YOPC   D2A11598  15.549  11.057   6.387 -0.2927  0.1526  0.0438
 1012YOPC   C3A11599  15.912  11.051   6.554 -0.1671 -0.1123 -0.2696
 1012YOPC   C4A11600  16.205  11.431   6.701  0.2523 -0.0723  0.0090
 1012YOPC   C1B11601  15.344  12.105   6.582 -0.0789  0.1977  0.0848
 1012YOPC   C2B11602  15.552  12.156   7.050  0.0837 -0.0133 -0.3897
 1012YOPC   D3B11603  15.537  12.123   7.413  0.1463 -0.1363 -0.1221
 1012YOPC   C4B11604  15.571  12.229   7.719  0.1333  0.0506 -0.0562
 1013YOPC   NC311605  12.390   4.612   6.024  0.0872  0.0497  0.3136
 1013YOPC   PO411606  11.990   4.528   6.282 -0.1532 -0.0314  0.0380
 1013YOPC   GL111607  12.054   4.423   6.744 -0.1656  0.1384  0.1712
 1013YOPC   GL211608  11.745   4.282   6.924  0.2254  0.1236 -0.0109
 1013YOPC   C1A11609  12.029   4.672   7.111  0.0722  0.0891  0.0322
 1013YOPC   D2A11610  12.007   4.766   7.567 -0.1861  0.2339 -0.1411
 1013YOPC   C3A11611  11.723   4.921   7.831  0.2377  0.1414  0.0761
 1013YOPC   C4A11612  11.542   5.111   8.190  0.2914  0.0063 -0.0665
 1013YOPC   C1B11613  11.649   4.129   7.299  0.0751 -0.1264 -0.0114
 1013YOPC   C2B11614  11.583   4.160   7.690  0.2301  0.2557  0.1003
 1013YOPC   D3B11615  11.748   4.456   7.863 -0.1989  0.3060  0.1147
 1013YOPC   C4B11616  11.790   4.546   8.289 -0.3727  0.1655 -0.0783
 1014YOPC   NC311617   0.874  13.962   6.253 -0.0117  0.2523  0.1221
 1014YOPC   PO411618   0.683  14.365   6.354  0.0229 -0.0309  0.0290
 1014YOPC   GL111619   0.532  14.146   6.680 -0.0382 -0.0240 -0.1140
 1014YOPC   GL211620   0.272  14.081   6.482 -0.0708  0.0298  0.0067
 1014YOPC   C1A11621   0.562  13.917   6.923 -0.1218  0.0577 -0.0201
 1014YOPC   D2A11622   0.603  13.517   7.028 -0.1613  0.1058  0.0028
 1014YOPC   C3A11623   0.494  13.443   7.498  0.0416  0.0484  0.1772
 1014YOPC   C4A11624   0.247  13.317   7.847  0.1317 -0.2273 -0.0119
 1014YOPC   C1B11625   0.040  14.293   6.832 -0.2491  0.1320  0.0755
 1014YOPC   C2B11626   0.038  14.052   7.178 -0.0405  0.2063 -0.0376
 1014YOPC   D3B11627  -0.204  14.059   7.590 -0.1057 -0.2957 -0.3038
 1014YOPC   C4B11628  -0.434  14.362   7.922  0.3928 -0.1749  0.0200
 1015YOPC   NC311629   7.933  13.985   5.901  0.2412 -0.0415 -0.1164
 1015YOPC   PO411630   8.202  14.285   5.703  0.1618  0.1593 -0.2335
 1015YOPC   GL111631   8.428  14.140   6.068  0.0040  0.1059  0.1677
 1015YOPC   GL211632   8.325  14.189   6.334 -0.2193  0.2988 -0.1889
 1015YOPC   C1A11633   8.831  14.004   6.256  0.0400  0.2950 -0.0012
 1015YOPC   D2A11634   9.026  13.600   6.462  0.0045 -0.1159  0.1755
 1015YOPC   C3A11635   8.828  13.442   6.785  0.1817 -0.2106 -0.2204
 1015YOPC   C4A11636   8.756  13.608   7.203  0.0101  0.1683 -0.1662
 1015YOPC   C1B11637   8.180  14.230   6.750 -0.2654 -0.0081 -0.1520
 1015YOPC   C2B11638   8.197  13.984   7.115  0.1037  0.1314  0.0629
 1015YOPC   D3B11639   8.336  13.952   7.532  0.0425 -0.2007 -0.2972
 1015YOPC   C4B11640   8.687  13.915   7.725 -0.3162 -0.0180  0.1318
 1016YOPC   NC311641  17.428   6.202   6.787 -0.0321 -0.0954  0.1016
 1016YOPC   PO411642  17.435   6.652   6.819 -0.1758 -0.0734 -0.0696
 1016YOPC   GL111643  17.608   6.456   7.163 -0.1619  0.1490 -0.2670
 1016YOPC   GL211644  17.269   6.400   7.410 -0.0499  0.0050  0.3396
 1016YOPC   C1A11645  17.838   6.375   7.583  0.0080 -0.4241  0.1080
 1016YOPC   D2A11646  17.795   6.421   7.989 -0.0970 -0.2148  0.1454
 1016YOPC   C3A11647  17.757   6.187   8.250  0.0690 -0.4152 -0.1458
 1016YOPC   C4A11648  17.673   6.201   8.568  0.1480  0.0033 -0.0870
 1016YOPC   C1B11649  17.331   6.412   7.814  0.2970  0.0555 -0.2082
 1016YOPC   C2B11650  17.281   6.285   8.238  0.5463  0.1410 -0.0663
 1016YOPC   D3B11651  17.067   5.975   8.477 -0.1094 -0.3299 -0.1203
 1016YOPC   C4B11652  16.703   5.742   8.632 -0.0657  0.2247  0.0712
 1017YOPC   NC311653   4.523   2.912   6.394  0.1201  0.0138 -0.4290
 1017YOPC   PO411654   4.687   2.541   6.466  0.0383 -0.3508  0.1207
 1017YOPC   GL111655   4.751   2.340   6.922  0.3100 -0.0437  0.0503
 1017YOPC   GL211656   4.988   2.138   6.932 -0.1323 -0.1346 -0.0082
 1017YOPC   C1A11657   4.705   2.143   7.378 -0.0119 -0.4633 -0.0156
 1017YOPC   D2A11658   4.738   1.943   7.715  0.0107  0.0814  0.1759
 1017YOPC   C3A11659   4.923   2.082   8.124  0.0566  0.0300 -0.0860
 1017YOPC   C4A11660   5.097   1.959   8.510 -0.1391 -0.0737 -0.1886
 1017YOPC   C1B11661   5.179   2.031   7.394  0.0310  0.2063 -0.4031
 1017YOPC   C2B11662   5.340   1.993   7.849 -0.1307 -0.2359 -0.2078
 1017YOPC   D3B11663   5.413   1.692   8.137  0.1204 -0.0390 -0.2265
 1017YOPC   C4B11664   5.657   1.380   8.206 -0.0918  0.0562 -0.0633
 1018YOPC   NC311665   8.154   1.953   5.538  0.2779 -0.0808  0.0593
 1018YOPC   PO411666   8.516   1.934   5.832  0.0297 -0.0717 -0.0351
 1018YOPC   GL111667   8.512   1.586   6.179 -0.0905 -0.1571  0.1504
 1018YOPC   GL211668   8.790   1.607   6.445  0.1007 -0.3308 -0.0939
 1018YOPC   C1A11669   8.366   1.483   6.629  0.1203  0.0656 -0.4905
 1018YOPC   D2A11670   8.364   1.454   7.048  0.2951 -0.1737  0.2594
 1018YOPC   C3A11671   8.306   1.584   7.426 -0.0644  0.3530 -0.0360
 1018YOPC   C4A11672   8.145   1.505   7.782  0.0427 -0.2530 -0.2258
 1018YOPC   C1B11673   8.813   1.320   6.814 -0.0611  0.3509 -0.1828
 1018YOPC   C2B11674   8.748   1.009   7.153  0.0789 -0.3729  0.1046
 1018YOPC   D3B11675   8.618   1.265   7.614 -0.2758 -0.1950 -0.0734
 1018YOPC   C4B11676   8.658   0.996   8.005  0.1511 -0.0145 -0.1608
 1019YOPC   NC311677  14.388   9.023   6.358 -0.0124  0.0409 -0.2167
 1019YOPC   PO411678  14.486   9.481   6.394 -0.2505 -0.0962  0.0917
 1019YOPC   GL111679  14.762   9.379   6.764 -0.1601  0.0611 -0.0803
 1019YOPC   GL211680  15.127   9.407   6.694  0.1579 -0.1804 -0.0284
 1019YOPC   C1A11681  14.817   9.326   7.216  0.0760  0.0050 -0.0154
 1019YOPC   D2A11682  14.622   9.650   7.509  0.1972  0.0322  0.1060
 1019YOPC   C3A11683  14.503   9.565   7.931 -0.1904  0.0645  0.2983
 1019YOPC   C4A11684  14.382   9.435   8.328 -0.1135  0.0226 -0.1579
 1019YOPC   C1B11685  15.227   9.069   6.988 -0.1105  0.1540 -0.2312
 1019YOPC   C2B11686  14.974   8.636   7.110  0.3371 -0.2020  0.2422
 1019YOPC   D3B11687  15.025   8.495   7.447 -0.0130 -0.2463  0.4381
 1019YOPC   C4B11688  15.293   8.293   7.713  0.0049  0.2347  0.0997
 1020YOPC   NC311689  17.786  12.709   5.651 -0.0061  0.1168 -0.0078
 1020YOPC   PO411690  17.530  12.392   5.847 -0.1208 -0.0524 -0.0894
 1020YOPC   GL111691  17.543  12.629   6.289 -0.0803 -0.0222  0.0096
 1020YOPC   GL211692  17.337  12.867   6.228 -0.1699 -0.3886  0.0625
 1020YOPC   C1A11693  17.500  12.701   6.731  0.1505 -0.1061  0.1062
 1020YOPC   D2A11694  17.303  12.847   7.074  0.0020  0.1863  0.0178
 1020YOPC   C3A11695  17.030  12.682   7.407  0.1159 -0.1229  0.0044
 1020YOPC   C4A11696  17.138  12.439   7.797  0.0087  0.2594 -0.0942
 1020YOPC   C1B11697  17.155  13.012   6.618  0.0378 -0.1065  0.0494
 1020YOPC   C2B11698  17.033  13.198   6.895  0.1044  0.3643  0.1067
 1020YOPC   D3B11699  17.005  13.167   7.322  0.0151  0.0428 -0.2035
 1020YOPC   C4B11700  17.038  13.114   7.738  0.0064 -0.0707  0.1148
 1021YOPC   NC311701  15.238   6.710   6.604 -0.0471  0.0146 -0.0451
 1021YOPC   PO411702  14.875   6.731   6.809 -0.2660  0.2720  0.4402
 1021YOPC   GL111703  14.715   6.683   7.258  0.4488  0.1136 -0.3160
 1021YOPC   GL211704  14.807   6.327   7.279 -0.0623  0.1838 -0.2418
 1021YOPC   C1A11705  14.840   6.679   7.708  0.0724  0.2276  0.0474
 1021YOPC   D2A11706  14.802   6.908   8.083 -0.0088 -0.0381  0.1385
 1021YOPC   C3A11707  14.648   6.673   8.359 -0.2555 -0.1951 -0.0220
 1021YOPC   C4A11708  14.703   6.666   8.756  0.0263  0.0046 -0.1230
 1021YOPC   C1B11709  14.571   6.257   7.670  0.0481 -0.3158 -0.0693
 1021YOPC   C2B11710  14.474   6.049   8.003 -0.0913  0.2784  0.1242
 1021YOPC   D3B11711  14.870   5.715   8.060 -0.4501 -0.1624  0.0974
 1021YOPC   C4B11712  15.130   5.374   8.304  0.3155 -0.2537  0.3419
 1022YOPC   NC311713   6.970   8.174   6.452 -0.1245  0.1323 -0.1307
 1022YOPC   PO411714   7.414   8.197   6.491  0.0180 -0.0393 -0.1924
 1022YOPC   GL111715   7.330   8.096   6.915 -0.0223  0.1388  0.0430
 1022YOPC   GL211716   7.084   8.317   6.939 -0.2039 -0.2541  0.1430
 1022YOPC   C1A11717   7.445   8.021   7.306 -0.0190 -0.1395  0.0459
 1022YOPC   D2A11718   7.540   8.032   7.692 -0.0976 -0.2554  0.4122
 1022YOPC   C3A11719   7.623   8.019   8.142  0.0112  0.0507  0.1253
 1022YOPC   C4A11720   7.835   7.857   8.390  0.0984  0.2814  0.1215
 1022YOPC   C1B11721   7.031   8.256   7.332  0.1609  0.0447  0.0238
 1022YOPC   C2B11722   7.083   8.229   7.775  0.0091  0.3813 -0.2937
 1022YOPC   D3B11723   6.873   8.304   8.037  0.1728 -0.0819 -0.0327
 1022YOPC   C4B11724   6.527   8.619   8.011 -0.1406  0.1794 -0.2169
 1023YOPC   NC311725  12.498   1.782   5.845 -0.2847  0.2130  0.1010
 1023YOPC   PO411726  12.107   1.567   5.971  0.1068 -0.0408 -0.0883
 1023YOPC   GL111727  11.957   1.469   6.426  0.0360 -0.1830 -0.1141
 1023YOPC   GL211728  12.162   1.206   6.698 -0.2313 -0.0465  0.1480
 1023YOPC   C1A11729  11.609   1.412   6.798  0.0113 -0.3150  0.1865
 1023YOPC   D2A11730  11.810   1.331   7.154 -0.0013 -0.0275 -0.1912
 1023YOPC   C3A11731  11.769   1.586   7.525 -0.0724  0.0353  0.0358
 1023YOPC   C4A11732  12.157   1.592   7.807 -0.1847  0.0371 -0.0160
 1023YOPC   C1B11733  12.256   0.951   6.956 -0.1760  0.0023 -0.1115
 1023YOPC   C2B11734  12.134   0.694   7.225 -0.0416 -0.0577  0.3835
 1023YOPC   D3B11735  11.793   0.728   7.588 -0.2536  0.1319 -0.1845
 1023YOPC   C4B11736  11.500   0.490   7.883 -0.2072  0.0651  0.1063
 1024YOPC   NC311737  16.189  17.904   6.168 -0.0458  0.0088  0.2207
 1024YOPC   PO411738  16.441  17.969   6.551  0.0482  0.0056  0.0155
 1024YOPC   GL111739  16.602  17.622   6.710  0.2730 -0.0536 -0.0271
 1024YOPC   GL211740  16.898  17.638   6.929  0.0058 -0.1857  0.1261
 1024YOPC   C1A11741  16.404  17.253   6.936 -0.1841  0.0683  0.0030
 1024YOPC   D2A11742  16.289  17.239   7.368 -0.0373 -0.2618 -0.0318
 1024YOPC   C3A11743  15.978  17.211   7.566  0.1122  0.0226  0.0952
 1024YOPC   C4A11744  15.771  17.359   7.900 -0.1757 -0.0040 -0.0402
 1024YOPC   C1B11745  16.725  17.553   7.240  0.0789  0.0732  0.1828
 1024YOPC   C2B11746  16.710  17.593   7.632  0.0392  0.0964 -0.1384
 1024YOPC   D3B11747  16.600  17.315   7.958 -0.0535  0.1129  0.2733
 1024YOPC   C4B11748  16.253  17.271   8.123  0.0293 -0.2343  0.0394
 1025YOPC   NC311749  15.905   0.415   6.708 -0.1229  0.0710  0.0053
 1025YOPC   PO411750  16.210   0.348   6.450  0.1469 -0.0898 -0.0518
 1025YOPC   GL111751  16.293   0.213   6.936  0.2144  0.1498 -0.1634
 1025YOPC   GL211752  16.648   0.024   7.021  0.0181 -0.0590 -0.0232
 1025YOPC   C1A11753  16.411   0.369   7.314 -0.2768  0.2730  0.2654
 1025YOPC   D2A11754  16.409   0.394   7.716 -0.0795 -0.1843  0.0468
 1025YOPC   C3A11755  16.325   0.204   8.078  0.1262 -0.0086  0.1310
 1025YOPC   C4A11756  16.222   0.195   8.393  0.1818  0.1850  0.2790
 1025YOPC   C1B11757  16.777  -0.013   7.413 -0.0119  0.0193  0.0351
 1025YOPC   C2B11758  16.758   0.081   7.797  0.0676 -0.0018 -0.0684
 1025YOPC   D3B11759  16.588  -0.205   8.078 -0.0406  0.3246 -0.1515
 1025YOPC   C4B11760  16.655  -0.538   8.393 -0.0042 -0.0952 -0.0330
 1026YOPC   NC311761   6.930  11.075   6.334 -0.0503  0.3170  0.3629
 1026YOPC   PO411762   7.006  10.753   6.369  0.0048  0.0695 -0.1121
 1026YOPC   GL111763   7.185  10.881   6.710 -0.0495 -0.0493 -0.0892
 1026YOPC   GL211764   7.422  10.689   6.741  0.1878 -0.1257  0.3843
 1026YOPC   C1A11765   7.214  11.061   7.094  0.0465  0.1112  0.1971
 1026YOPC   D2A11766   7.449  10.946   7.453 -0.0241  0.2378  0.1555
 1026YOPC   C3A11767   7.376  11.268   7.829 -0.2806 -0.0730  0.0321
 1026YOPC   C4A11768   7.307  11.307   8.227  0.1328  0.2273  0.2403
 1026YOPC   C1B11769   7.381  10.529   7.200  0.2337 -0.3165 -0.1488
 1026YOPC   C2B11770   7.326  10.429   7.669 -0.0432  0.3126  0.2348
 1026YOPC   D3B11771   7.403  10.190   7.845  0.2025 -0.1790  0.0586
 1026YOPC   C4B11772   7.591   9.939   8.107  0.3168  0.0956 -0.1514
 1027YOPC   NC311773   5.502   4.282   6.185 -0.0658 -0.1042  0.0776
 1027YOPC   PO411774   5.344   4.076   6.347  0.2529 -0.0195 -0.1511
 1027YOPC   GL111775   5.276   3.865   6.744 -0.2098  0.0411  0.1202
 1027YOPC   GL211776   5.024   3.721   6.724  0.0409 -0.2155 -0.0771
 1027YOPC   C1A11777   5.378   3.836   7.146 -0.1645 -0.1166  0.0354
 1027YOPC   D2A11778   5.512   3.737   7.536 -0.2370  0.1418  0.2077
 1027YOPC   C3A11779   5.311   3.544   7.830 -0.1869 -0.0007  0.2969
 1027YOPC   C4A11780   5.025   3.666   8.139  0.0167  0.2719 -0.0243
 1027YOPC   C1B11781   4.928   3.996   7.081  0.0602 -0.1343 -0.0343
 1027YOPC   C2B11782   5.108   4.112   7.499  0.0772 -0.0179  0.1957
 1027YOPC   D3B11783   4.975   4.043   7.845  0.1176  0.2675  0.2338
 1027YOPC   C4B11784   4.708   4.049   8.215 -0.2194 -0.0788  0.1253
 1028YOPC   NC311785   5.436  11.901   6.170  0.1472  0.0397  0.0499
 1028YOPC   PO411786   5.720  11.746   6.321  0.0165 -0.2500 -0.1553
 1028YOPC   GL111787   5.623  11.761   6.652  0.0559  0.0884  0.0927
 1028YOPC   GL211788   5.303  11.712   6.580  0.0060 -0.0826  0.1550
 1028YOPC   C1A11789   5.836  11.606   7.106 -0.3382  0.1058 -0.0387
 1028YOPC   D2A11790   6.253  11.475   7.196 -0.2163  0.2491 -0.1469
 1028YOPC   C3A11791   6.544  11.500   7.541 -0.0354  0.1822 -0.0763
 1028YOPC   C4A11792   6.508  11.600   8.030 -0.0234 -0.0305 -0.0311
 1028YOPC   C1B11793   5.398  11.544   7.027  0.2169  0.0381 -0.0506
 1028YOPC   C2B11794   5.361  11.526   7.388 -0.1392 -0.0874  0.1008
 1028YOPC   D3B11795   5.715  11.445   7.588  0.4136  0.2342 -0.0909
 1028YOPC   C4B11796   5.892  11.152   7.842 -0.3218  0.2425 -0.1342
 1029YOPC   NC311797  12.283   8.028   6.291  0.0070  0.0143  0.0126
 1029YOPC   PO411798  11.876   8.088   6.260 -0.0577 -0.0301  0.3568
 1029YOPC   GL111799  11.708   8.018   6.636  0.1364  0.0943  0.2648
 1029YOPC   GL211800  11.424   8.143   6.792  0.3312  0.1479 -0.0299
 1029YOPC   C1A11801  11.660   7.813   7.014  0.1069  0.0049  0.0322
 1029YOPC   D2A11802  11.388   7.532   7.266 -0.1518  0.0176  0.2363
 1029YOPC   C3A11803  11.642   7.240   7.487 -0.0449  0.0377 -0.2116
 1029YOPC   C4A11804  11.440   7.229   7.925 -0.0912  0.1603 -0.0003
 1029YOPC   C1B11805  11.343   8.106   7.248  0.1960 -0.1392 -0.0917
 1029YOPC   C2B11806  11.511   7.861   7.607 -0.0721 -0.2026  0.0485
 1029YOPC   D3B11807  11.272   7.691   7.952 -0.0843  0.0996  0.3645
 1029YOPC   C4B11808  11.011   7.360   8.218 -0.0958  0.3201  0.1137
 1030YOPC   NC311809   4.864  16.416   6.536 -0.1025  0.0036  0.2099
 1030YOPC   PO411810   4.800  16.018   6.344 -0.1074 -0.1144  0.0264
 1030YOPC   GL111811   4.733  16.078   6.843  0.0510 -0.1428  0.0198
 1030YOPC   GL211812   4.554  16.363   6.924 -0.2585  0.1836  0.0175
 1030YOPC   C1A11813   4.834  15.902   7.097  0.0602 -0.3422  0.1568
 1030YOPC   D2A11814   4.797  15.864   7.512 -0.1779  0.2269 -0.0421
 1030YOPC   C3A11815   4.380  15.766   7.781 -0.1568 -0.0205  0.0063
 1030YOPC   C4A11816   4.195  15.780   8.178 -0.3141 -0.1600 -0.1592
 1030YOPC   C1B11817   4.554  16.246   7.363 -0.1783  0.0424  0.0977
 1030YOPC   C2B11818   4.620  16.192   7.807  0.0305  0.0902  0.0420
 1030YOPC   D3B11819   4.762  15.851   8.035  0.3405  0.1104 -0.2619
 1030YOPC   C4B11820   4.706  15.672   8.397 -0.2290 -0.0322 -0.1759
 1031YOPC   NC311821   2.437   4.048   6.762  0.1799  0.2516 -0.0187
 1031YOPC   PO411822   2.819   4.424   6.693 -0.0536  0.3684  0.0171
 1031YOPC   GL111823   3.066   4.611   6.929 -0.3516 -0.2331 -0.3140
 1031YOPC   GL211824   3.428   4.549   6.897 -0.1099  0.0009 -0.0209
 1031YOPC   C1A11825   3.198   4.645   7.323  0.0401  0.1101  0.2036
 1031YOPC   D2A11826   3.158   4.714   7.793  0.3923 -0.1305  0.2000
 1031YOPC   C3A11827   3.269   4.511   8.161  0.0734 -0.0825  0.0051
 1031YOPC   C4A11828   3.486   4.432   8.574  0.0061  0.1308  0.1135
 1031YOPC   C1B11829   3.620   4.312   7.232 -0.1184 -0.1233 -0.2276
 1031YOPC   C2B11830   3.787   3.945   7.452  0.0933 -0.2707  0.2932
 1031YOPC   D3B11831   3.816   3.906   7.848  0.1778  0.1359 -0.2861
 1031YOPC   C4B11832   3.809   3.669   8.142 -0.1739 -0.2170  0.1338
 1032YOPC   NC311833   5.222   6.294   5.976 -0.0232 -0.0825  0.2521
 1032YOPC   PO411834   5.402   5.804   6.013  0.2170  0.1963  0.1626
 1032YOPC   GL111835   5.638   5.636   6.374  0.0734 -0.1796 -0.0946
 1032YOPC   GL211836   5.964   5.822   6.318  0.0713  0.1489 -0.0252
 1032YOPC   C1A11837   5.850   5.367   6.535 -0.0513  0.1070 -0.0202
 1032YOPC   D2A11838   6.015   5.179   6.841 -0.0366 -0.3972 -0.0254
 1032YOPC   C3A11839   5.871   4.774   6.834 -0.2751  0.2120  0.1225
 1032YOPC   C4A11840   6.041   4.319   7.085 -0.1124 -0.6016  0.0338
 1032YOPC   C1B11841   6.057   5.772   6.664  0.0382  0.0091  0.4835
 1032YOPC   C2B11842   6.056   6.065   7.031 -0.0146  0.1302  0.2336
 1032YOPC   D3B11843   5.883   5.954   7.489 -0.0615  0.1683  0.3018
 1032YOPC   C4B11844   6.047   5.764   7.796  0.1384 -0.0408 -0.4799
 1033YOPC   NC311845   1.488  10.926   5.441 -0.1156  0.0435  0.0004
 1033YOPC   PO411846   1.772  10.976   5.833  0.0161 -0.1817  0.1779
 1033YOPC   GL111847   1.679  11.057   6.262  0.1343 -0.0007 -0.1683
 1033YOPC   GL211848   1.515  10.766   6.298 -0.1143  0.1550 -0.0071
 1033YOPC   C1A11849   1.662  11.304   6.734  0.1423 -0.3410 -0.0544
 1033YOPC   D2A11850   1.847  11.612   7.052 -0.1465  0.1076  0.2317
 1033YOPC   C3A11851   1.531  11.671   7.428  0.0181 -0.2677 -0.0042
 1033YOPC   C4A11852   1.231  11.762   7.608 -0.3525 -0.0633  0.0781
 1033YOPC   C1B11853   1.537  10.542   6.642 -0.3372  0.0731 -0.2373
 1033YOPC   C2B11854   1.430  10.361   6.969  0.0576 -0.1132 -0.0688
 1033YOPC   D3B11855   1.555  10.302   7.357 -0.0315  0.1874  0.0916
 1033YOPC   C4B11856   1.366  10.307   7.739 -0.1185  0.0097  0.2600
 1034YOPC   NC311857   8.222  15.416   5.828  0.1680  0.1806  0.0330
 1034YOPC   PO411858   7.970  15.548   6.153  0.2161 -0.1706  0.3738
 1034YOPC   GL111859   7.916  15.836   6.447  0.1573 -0.1157 -0.3246
 1034YOPC   GL211860   7.701  15.685   6.566 -0.1709  0.0411 -0.2213
 1034YOPC   C1A11861   8.128  15.788   6.869  0.1424  0.0574  0.2650
 1034YOPC   D2A11862   8.131  15.748   7.270 -0.0497 -0.0526 -0.1968
 1034YOPC   C3A11863   8.441  15.710   7.601 -0.0673 -0.1495  0.1473
 1034YOPC   C4A11864   8.385  15.579   7.953  0.1935 -0.0124  0.3018
 1034YOPC   C1B11865   7.746  15.528   7.003 -0.0734 -0.0355  0.4005
 1034YOPC   C2B11866   7.756  15.429   7.350 -0.2002 -0.2321 -0.0220
 1034YOPC   D3B11867   7.757  15.678   7.717 -0.2185 -0.2802 -0.0980
 1034YOPC   C4B11868   7.983  15.883   7.942  0.1587 -0.1963 -0.1928
 1035YOPC   NC311869  13.019  17.495   6.001  0.1554  0.0766 -0.0256
 1035YOPC   PO411870  13.171  17.883   6.137 -0.0955 -0.0860  0.0210
 1035YOPC   GL111871  13.165  17.902   6.549 -0.2486  0.0297  0.0190
 1035YOPC   GL211872  12.787  18.016   6.726 -0.0677 -0.1816  0.2044
 1035YOPC   C1A11873  13.112  17.727   6.914  0.1256  0.0034  0.0569
 1035YOPC   D2A11874  12.945  17.759   7.282 -0.2908 -0.1483 -0.1294
 1035YOPC   C3A11875  13.131  18.133   7.500  0.1647  0.1483  0.0002
 1035YOPC   C4A11876  13.198  18.412   7.907  0.3378  0.0059  0.4387
 1035YOPC   C1B11877  12.841  18.236   7.089 -0.0153 -0.1418  0.0467
 1035YOPC   C2B11878  12.682  18.200   7.457  0.4137  0.2143 -0.3649
 1035YOPC   D3B11879  12.747  18.460   7.834 -0.1404 -0.0245 -0.0053
 1035YOPC   C4B11880  12.863  18.323   8.357 -0.4123 -0.1246 -0.1953
 1036YOPC   NC311881   2.483   7.541   6.272 -0.2344 -0.0529  0.2214
 1036YOPC   PO411882   2.931   7.460   6.320 -0.3560  0.1267  0.0820
 1036YOPC   GL111883   2.707   7.351   6.679  0.0328  0.1113 -0.0298
 1036YOPC   GL211884   2.867   7.087   6.673 -0.1995 -0.0214  0.0848
 1036YOPC   C1A11885   2.588   7.489   6.987 -0.0752  0.1765 -0.2631
 1036YOPC   D2A11886   2.672   7.488   7.439  0.1462 -0.3061 -0.0069
 1036YOPC   C3A11887   2.652   7.803   7.763  0.0780 -0.0788 -0.1703
 1036YOPC   C4A11888   2.851   7.800   8.186 -0.0664 -0.2007 -0.2977
 1036YOPC   C1B11889   2.814   7.077   7.147 -0.0275 -0.2624 -0.1475
 1036YOPC   C2B11890   2.835   7.024   7.537 -0.0375  0.0140  0.1703
 1036YOPC   D3B11891   3.302   7.105   7.641  0.0765 -0.0261 -0.2681
 1036YOPC   C4B11892   3.537   7.370   7.771 -0.0916  0.1833  0.0808
 1037YOPC   NC311893   5.635  12.341   5.935  0.2242 -0.2427  0.0523
 1037YOPC   PO411894   5.641  12.758   5.952 -0.1719  0.0951 -0.2405
 1037YOPC   GL111895   5.888  12.648   6.263  0.2866  0.0594  0.2222
 1037YOPC   GL211896   5.917  12.872   6.396 -0.2236  0.0135 -0.0944
 1037YOPC   C1A11897   6.127  12.466   6.605 -0.1586 -0.0776  0.0545
 1037YOPC   D2A11898   6.059  12.406   6.987 -0.1611  0.3454 -0.2487
 1037YOPC   C3A11899   6.022  12.464   7.333  0.0549  0.2313  0.0668
 1037YOPC   C4A11900   5.969  12.239   7.731  0.4694  0.2415  0.1103
 1037YOPC   C1B11901   5.966  12.854   6.818  0.1882 -0.2759  0.0201
 1037YOPC   C2B11902   6.010  12.947   7.190 -0.1167  0.1434  0.0643
 1037YOPC   D3B11903   6.071  13.113   7.636 -0.0395  0.1286 -0.3226
 1037YOPC   C4B11904   6.123  13.281   8.059 -0.2921 -0.1625  0.1475
 1038YOPC   NC311905  10.983   9.947   5.966 -0.0886 -0.0763 -0.0485
 1038YOPC   PO411906  11.082  10.452   6.085  0.0612  0.0087 -0.3693
 1038YOPC   GL111907  10.988  10.256   6.542 -0.2560 -0.2023  0.1204
 1038YOPC   GL211908  10.944   9.923   6.545 -0.3133 -0.0616 -0.0806
 1038YOPC   C1A11909  11.051  10.411   6.883  0.0769 -0.0459 -0.0297
 1038YOPC   D2A11910  10.930  10.387   7.300  0.1685 -0.0906  0.0874
 1038YOPC   C3A11911  11.154  10.522   7.640 -0.0968 -0.3405 -0.0575
 1038YOPC   C4A11912  11.224  10.583   8.040  0.0534  0.0454  0.0951
 1038YOPC   C1B11913  10.968   9.974   7.006 -0.0261  0.0265 -0.0723
 1038YOPC   C2B11914  11.039   9.925   7.419  0.3743  0.0205  0.1118
 1038YOPC   D3B11915  10.855  10.182   7.741 -0.0440  0.0837  0.1649
 1038YOPC   C4B11916  10.746  10.215   8.201  0.4198  0.0425 -0.0066
 1039YOPC   NC311917  12.424   2.334   6.180  0.0673  0.1288 -0.1138
 1039YOPC   PO411918  12.193   2.026   6.205 -0.2350 -0.0729 -0.0771
 1039YOPC   GL111919  12.209   1.900   6.552  0.2487  0.2057 -0.2048
 1039YOPC   GL211920  12.294   2.192   6.668 -0.1642  0.2973 -0.0206
 1039YOPC   C1A11921  12.506   1.767   6.837 -0.0463 -0.0578  0.1140
 1039YOPC   D2A11922  12.730   1.708   7.276 -0.1229 -0.2029 -0.1344
 1039YOPC   C3A11923  13.146   1.522   7.161  0.4002  0.2030  0.1268
 1039YOPC   C4A11924  13.471   1.567   7.408 -0.1144 -0.3054 -0.2885
 1039YOPC   C1B11925  12.055   1.871   6.999  0.0426 -0.2251 -0.2202
 1039YOPC   C2B11926  12.226   1.652   7.332 -0.0148 -0.0304  0.0819
 1039YOPC   D3B11927  12.132   1.230   7.488 -0.1065 -0.0412  0.1349
 1039YOPC   C4B11928  11.869   1.125   7.916  0.0639 -0.1640 -0.1128
 1040YOPC   NC311929  10.451  16.608   6.207 -0.0013 -0.1600 -0.1003
 1040YOPC   PO411930  10.973  16.567   6.274  0.1023  0.3293 -0.0028
 1040YOPC   GL111931  10.729  16.833   6.537  0.0312 -0.0394  0.0547
 1040YOPC   GL211932  11.009  17.006   6.503  0.1285  0.0786 -0.0027
 1040YOPC   C1A11933  10.604  16.914   6.926 -0.2640 -0.1367 -0.0686
 1040YOPC   D2A11934  10.633  16.998   7.381 -0.2454  0.0341 -0.3770
 1040YOPC   C3A11935  10.735  16.906   7.887  0.2800 -0.0510  0.4267
 1040YOPC   C4A11936  10.936  16.774   8.280  0.0730 -0.2659 -0.1409
 1040YOPC   C1B11937  11.092  16.765   6.860 -0.1028  0.0720 -0.1724
 1040YOPC   C2B11938  11.041  16.683   7.222 -0.1355 -0.2699 -0.0733
 1040YOPC   D3B11939  11.137  16.856   7.569  0.1915  0.1610 -0.2418
 1040YOPC   C4B11940  11.290  16.980   8.002  0.0063 -0.2209 -0.3262
 1041YOPC   NC311941   3.684   2.725   6.564 -0.1622  0.1860 -0.3159
 1041YOPC   PO411942   4.116   2.564   6.374  0.2062  0.4058  0.0399
 1041YOPC   GL111943   4.279   2.433   6.776 -0.1712 -0.1921 -0.0625
 1041YOPC   GL211944   4.139   2.047   6.952  0.1152  0.0506  0.2275
 1041YOPC   C1A11945   4.228   2.461   7.230 -0.5501  0.1035  0.0420
 1041YOPC   D2A11946   4.419   2.566   7.655  0.0614 -0.1371  0.0926
 1041YOPC   C3A11947   4.355   2.198   7.877 -0.0787 -0.1678 -0.1746
 1041YOPC   C4A11948   4.057   2.100   8.071 -0.0861 -0.0052 -0.2156
 1041YOPC   C1B11949   4.145   1.998   7.455  0.0413 -0.0653  0.1450
 1041YOPC   C2B11950   4.263   1.696   7.770 -0.3495 -0.1519 -0.1104
 1041YOPC   D3B11951   4.154   1.702   8.289 -0.2215  0.0285 -0.1056
 1041YOPC   C4B11952   3.897   1.527   8.622  0.0096  0.0030  0.0993
 1042YOPC   NC311953   2.983   3.145   6.703  0.1436 -0.0220 -0.2213
 1042YOPC   PO411954   3.330   3.102   6.426  0.3373  0.1889  0.1747
 1042YOPC   GL111955   3.382   2.989   6.873 -0.2467 -0.0835 -0.1919
 1042YOPC   GL211956   3.226   2.706   7.119 -0.0835 -0.1666 -0.0776
 1042YOPC   C1A11957   3.544   3.201   7.156 -0.0418 -0.2127  0.0484
 1042YOPC   D2A11958   3.768   3.359   7.514  0.1975 -0.0054  0.1681
 1042YOPC   C3A11959   3.652   3.252   7.880  0.2088  0.0870  0.0881
 1042YOPC   C4A11960   3.466   3.352   8.285 -0.1966  0.2790 -0.1374
 1042YOPC   C1B11961   3.435   2.868   7.499  0.0209  0.0348 -0.0790
 1042YOPC   C2B11962   3.269   2.750   7.887 -0.0618 -0.0849 -0.1263
 1042YOPC   D3B11963   3.554   2.899   8.235 -0.0559  0.0040 -0.0049
 1042YOPC   C4B11964   3.927   3.097   8.313  0.0535 -0.2400 -0.1428
 1043YOPC   NC311965   3.975  14.665   6.250 -0.0690 -0.1033 -0.1379
 1043YOPC   PO411966   3.808  14.259   6.146 -0.2197  0.1310  0.3032
 1043YOPC   GL111967   3.899  14.143   6.507  0.0833  0.0234  0.1725
 1043YOPC   GL211968   3.817  14.429   6.692  0.0397 -0.1619 -0.0538
 1043YOPC   C1A11969   4.255  14.057   6.859 -0.1148 -0.2753  0.0491
 1043YOPC   D2A11970   4.212  13.753   7.195 -0.1488 -0.2164  0.2080
 1043YOPC   C3A11971   4.338  13.845   7.652  0.1036 -0.0385  0.0610
 1043YOPC   C4A11972   4.510  13.933   8.037  0.0236  0.2360 -0.4110
 1043YOPC   C1B11973   3.773  14.095   6.998  0.2120 -0.0375 -0.0948
 1043YOPC   C2B11974   3.713  13.684   6.999  0.0755 -0.1968 -0.1047
 1043YOPC   D3B11975   3.949  13.485   6.837 -0.1148 -0.0917  0.0285
 1043YOPC   C4B11976   4.458  13.454   6.842 -0.0014 -0.0894 -0.0062
 1044YOPC   NC311977   2.807  14.470   5.850 -0.0657  0.0915  0.0082
 1044YOPC   PO411978   2.409  14.430   6.223 -0.0473 -0.2479 -0.0106
 1044YOPC   GL111979   2.466  14.301   6.667 -0.2841 -0.4127 -0.1204
 1044YOPC   GL211980   2.547  14.650   6.897  0.1967  0.0219  0.0753
 1044YOPC   C1A11981   2.205  14.348   7.055 -0.0000 -0.2390  0.3321
 1044YOPC   D2A11982   1.817  14.458   7.408  0.0972  0.0230  0.2265
 1044YOPC   C3A11983   1.833  14.122   7.767 -0.1181 -0.2265  0.0839
 1044YOPC   C4A11984   2.149  14.097   8.137 -0.0270  0.1052 -0.0581
 1044YOPC   C1B11985   2.583  14.597   7.268  0.2240  0.1916 -0.0750
 1044YOPC   C2B11986   2.747  14.590   7.710 -0.1251 -0.0031  0.3440
 1044YOPC   D3B11987   2.709  14.207   7.903 -0.3033 -0.1954  0.0812
 1044YOPC   C4B11988   2.884  13.828   8.046  0.0345 -0.0628 -0.1994
 1045YOPC   NC311989   0.790   5.650   7.022 -0.2362  0.1495 -0.0662
 1045YOPC   PO411990   1.119   5.753   7.282  0.1613  0.1157  0.2310
 1045YOPC   GL111991   1.176   5.923   7.695  0.1997 -0.4533  0.1362
 1045YOPC   GL211992   1.165   5.726   7.910 -0.1059 -0.1831 -0.0250
 1045YOPC   C1A11993   1.193   6.179   8.128 -0.4567  0.0990  0.2486
 1045YOPC   D2A11994   0.971   6.335   8.484 -0.0075 -0.1814 -0.2214
 1045YOPC   C3A11995   0.568   6.363   8.704 -0.2136  0.0543  0.1270
 1045YOPC   C4A11996   0.386   6.775   8.834 -0.1213  0.0913  0.1246
 1045YOPC   C1B11997   1.427   5.738   8.358 -0.0235  0.0172 -0.2769
 1045YOPC   C2B11998   1.734   5.762   8.634  0.1182  0.1477  0.0652
 1045YOPC   D3B11999   2.104   5.497   8.721 -0.0645  0.1464 -0.1289
 1045YOPC   C4B12000   2.543   5.620   8.668 -0.5867 -0.0021  0.3114
 1046YOPC   NC312001   7.002   4.276   6.021 -0.0583 -0.0495 -0.1355
 1046YOPC   PO412002   7.446   4.569   5.895  0.0006 -0.2097 -0.2727
 1046YOPC   GL112003   7.440   4.577   6.335 -0.1380  0.0072 -0.3162
 1046YOPC   GL212004   7.146   4.703   6.253  0.0159 -0.3252  0.0263
 1046YOPC   C1A12005   7.349   4.469   6.702  0.0094  0.3178 -0.6020
 1046YOPC   D2A12006   7.319   4.491   7.093  0.1160 -0.1305 -0.0524
 1046YOPC   C3A12007   7.454   4.430   7.467 -0.2098 -0.1234  0.1975
 1046YOPC   C4A12008   7.628   4.545   7.879  0.0792  0.0997  0.0463
 1046YOPC   C1B12009   6.931   4.722   6.617  0.0193  0.0214 -0.1522
 1046YOPC   C2B12010   6.937   4.773   6.992  0.1526  0.0662 -0.0932
 1046YOPC   D3B12011   7.020   4.767   7.429  0.0188  0.0189  0.1663
 1046YOPC   C4B12012   7.048   4.495   7.747  0.0076  0.1189 -0.1614
 1047YOPC   NC312013  13.315   3.237   6.423  0.0245  0.0982 -0.0669
 1047YOPC   PO412014  13.675   3.461   6.494  0.0566 -0.1488 -0.1418
 1047YOPC   GL112015  13.707   3.199   6.812 -0.0382 -0.2834  0.0002
 1047YOPC   GL212016  13.455   2.996   6.828  0.0814  0.0546  0.0787
 1047YOPC   C1A12017  13.789   2.900   7.194 -0.0538 -0.0395 -0.1222
 1047YOPC   D2A12018  13.861   2.722   7.614  0.2961  0.3857  0.0127
 1047YOPC   C3A12019  13.689   2.339   7.712  0.2100  0.1817 -0.1344
 1047YOPC   C4A12020  13.846   1.961   7.739  0.1730 -0.1364  0.2919
 1047YOPC   C1B12021  13.269   3.057   7.199 -0.1590  0.2815  0.0489
 1047YOPC   C2B12022  13.250   3.234   7.609 -0.0749  0.0740  0.1208
 1047YOPC   D3B12023  12.951   3.363   7.879 -0.1793 -0.2826  0.1214
 1047YOPC   C4B12024  12.594   3.314   8.279  0.0112  0.1737  0.1867
 1048YOPC   NC312025  10.058  16.866   5.712 -0.2486  0.0088  0.1007
 1048YOPC   PO412026   9.985  16.538   6.007 -0.1126  0.2545 -0.1620
 1048YOPC   GL112027   9.930  16.585   6.452 -0.1148 -0.3364  0.1606
 1048YOPC   GL212028  10.167  16.731   6.623 -0.0615  0.0200  0.0668
 1048YOPC   C1A12029   9.633  16.551   6.830  0.0491  0.1724 -0.0424
 1048YOPC   D2A12030   9.703  16.664   7.264 -0.0594  0.2240 -0.3703
 1048YOPC   C3A12031   9.817  16.957   7.532  0.0907  0.0270 -0.3501
 1048YOPC   C4A12032   9.861  17.384   7.617 -0.1809 -0.1084 -0.1261
 1048YOPC   C1B12033  10.166  16.644   6.937  0.2672  0.1692 -0.0832
 1048YOPC   C2B12034  10.176  16.838   7.256  0.2650  0.2404  0.2374
 1048YOPC   D3B12035  10.244  17.251   7.290 -0.0542  0.0688 -0.0459
 1048YOPC   C4B12036   9.985  17.565   7.134  0.1965 -0.0335  0.0036
 1049YOPC   NC312037  15.263   2.238   6.758  0.2221  0.1931  0.2379
 1049YOPC   PO412038  15.585   1.979   6.913  0.2267  0.0047  0.0257
 1049YOPC   GL112039  15.314   2.114   7.248  0.0873 -0.0392 -0.0605
 1049YOPC   GL212040  15.274   2.401   7.254 -0.2253  0.2092 -0.0405
 1049YOPC   C1A12041  15.397   2.026   7.562  0.0672  0.0541 -0.1906
 1049YOPC   D2A12042  15.161   1.802   7.866 -0.2340 -0.0889 -0.0676
 1049YOPC   C3A12043  15.256   1.734   8.216 -0.0085  0.0912  0.0294
 1049YOPC   C4A12044  15.401   1.500   8.708 -0.0275  0.0288  0.1218
 1049YOPC   C1B12045  15.188   2.477   7.745  0.1395  0.2457  0.1630
 1049YOPC   C2B12046  15.152   2.691   8.176  0.1075 -0.3191 -0.0226
 1049YOPC   D3B12047  14.902   2.914   8.354 -0.1583 -0.1166 -0.1497
 1049YOPC   C4B12048  14.794   2.864   8.755  0.2777  0.1350 -0.1001
 1050YOPC   NC312049  17.292   2.431   6.891 -0.1359 -0.2721  0.4320
 1050YOPC   PO412050  16.928   2.460   6.592  0.0673 -0.0048  0.1267
 1050YOPC   GL112051  16.928   2.726   6.939 -0.3895 -0.3675  0.2085
 1050YOPC   GL212052  17.110   2.665   7.296  0.0790 -0.0338  0.3284
 1050YOPC   C1A12053  16.757   2.927   7.265  0.0291  0.0976  0.1541
 1050YOPC   D2A12054  16.470   2.933   7.593 -0.3287  0.1929 -0.0427
 1050YOPC   C3A12055  16.561   3.003   7.964 -0.2569  0.0299 -0.0872
 1050YOPC   C4A12056  16.421   3.076   8.446 -0.0809 -0.3790  0.1663
 1050YOPC   C1B12057  17.326   2.672   7.626 -0.0519 -0.0517  0.1315
 1050YOPC   C2B12058  17.380   2.590   8.057 -0.1222  0.0784 -0.0279
 1050YOPC   D3B12059  17.393   2.801   8.438 -0.2711 -0.0162  0.0326
 1050YOPC   C4B12060  17.392   2.677   8.831  0.1116  0.6068  0.1219
 1051YOPC   NC312061  10.360  12.802   5.932 -0.4038 -0.0588  0.0102
 1051YOPC   PO412062  10.295  12.420   5.871 -0.1711  0.2976 -0.0193
 1051YOPC   GL112063  10.217  12.432   6.255 -0.0519  0.0650  0.1905
 1051YOPC   GL212064  10.507  12.450   6.577  0.0768 -0.1035  0.5443
 1051YOPC   C1A12065  10.140  12.174   6.636 -0.0832  0.0077 -0.2027
 1051YOPC   D2A12066  10.057  12.121   7.087  0.0987  0.3641  0.0993
 1051YOPC   C3A12067  10.300  12.282   7.376 -0.0203  0.0103 -0.0324
 1051YOPC   C4A12068  10.408  12.259   7.773  0.1986 -0.0638  0.5013
 1051YOPC   C1B12069  10.666  12.417   7.001 -0.1274  0.0959  0.1526
 1051YOPC   C2B12070  10.867  12.282   7.363 -0.1442 -0.0466 -0.1211
 1051YOPC   D3B12071  10.941  12.548   7.728  0.0468 -0.0230  0.1285
 1051YOPC   C4B12072  10.635  12.787   8.010 -0.1101  0.3231 -0.1682
 1052YOPC   NC312073   4.709  15.535   5.668  0.0198 -0.0917  0.3023
 1052YOPC   PO412074   4.314  15.461   5.962 -0.0240  0.1635 -0.3547
 1052YOPC   GL112075   4.359  15.642   6.384  0.0678 -0.0898  0.1320
 1052YOPC   GL212076   4.685  15.584   6.661  0.0726 -0.2116 -0.0733
 1052YOPC   C1A12077   4.260  15.875   6.758 -0.1220 -0.0686 -0.1495
 1052YOPC   D2A12078   4.271  15.789   7.264  0.0565  0.2509  0.2027
 1052YOPC   C3A12079   3.944  15.689   7.562  0.3365 -0.1779  0.0602
 1052YOPC   C4A12080   3.499  15.919   7.651  0.1631  0.1556 -0.0328
 1052YOPC   C1B12081   4.337  15.390   6.889  0.1357  0.1092 -0.1583
 1052YOPC   C2B12082   4.036  15.364   7.169  0.0926 -0.3146 -0.0166
 1052YOPC   D3B12083   3.818  15.625   7.065 -0.0677  0.0382 -0.0089
 1052YOPC   C4B12084   3.735  16.018   6.921 -0.0311 -0.0802  0.1612
 1053YOPC   NC312085   9.741   3.756   5.926 -0.1047  0.0069 -0.1028
 1053YOPC   PO412086  10.246   3.866   6.002  0.1865  0.3893  0.1895
 1053YOPC   GL112087  10.369   3.847   6.484  0.0688  0.0283 -0.0860
 1053YOPC   GL212088  10.445   3.549   6.603  0.3718 -0.0342  0.0779
 1053YOPC   C1A12089  10.293   4.141   6.707  0.1765  0.1253  0.1141
 1053YOPC   D2A12090  10.277   4.027   7.103  0.0379  0.0845 -0.0928
 1053YOPC   C3A12091  10.252   3.730   7.465  0.1979  0.2071  0.2243
 1053YOPC   C4A12092  10.477   3.347   7.607  0.1284 -0.2103 -0.1398
 1053YOPC   C1B12093  10.349   3.404   7.035  0.0675  0.1517  0.3747
 1053YOPC   C2B12094  10.362   2.983   7.105  0.0932 -0.4441 -0.1873
 1053YOPC   D3B12095  10.383   2.864   7.407  0.4258  0.0256  0.0187
 1053YOPC   C4B12096  10.607   2.856   7.836  0.3226 -0.1475 -0.3081
 1054YOPC   NC312097   8.403   5.029   5.802  0.2500  0.0847  0.3079
 1054YOPC   PO412098   8.818   4.751   5.781  0.0078  0.1049  0.0646
 1054YOPC   GL112099   8.671   4.928   6.174  0.0841 -0.2072 -0.0280
 1054YOPC   GL212100   8.907   4.991   6.437  0.3208  0.4799 -0.0978
 1054YOPC   C1A12101   8.448   5.069   6.611  0.0933 -0.1794 -0.0721
 1054YOPC   D2A12102   8.207   5.278   6.987  0.0445  0.4537 -0.0556
 1054YOPC   C3A12103   8.040   5.729   7.048 -0.1579  0.4751 -0.0169
 1054YOPC   C4A12104   7.987   5.922   7.442 -0.0436  0.0735 -0.1207
 1054YOPC   C1B12105   9.316   4.921   6.550 -0.1987  0.3406 -0.2272
 1054YOPC   C2B12106   9.691   4.891   6.732 -0.0875 -0.3082 -0.0111
 1054YOPC   D3B12107   9.748   4.762   7.300 -0.0635  0.0769 -0.1385
 1054YOPC   C4B12108   9.872   4.767   7.759  0.1098  0.0358 -0.0778
 1055YOPC   NC312109   5.341   5.253   6.061 -0.0677  0.3300  0.3479
 1055YOPC   PO412110   5.123   4.809   5.953 -0.0170 -0.0225 -0.0401
 1055YOPC   GL112111   5.324   4.690   6.391  0.0204 -0.2111  0.4262
 1055YOPC   GL212112   5.472   5.006   6.502 -0.0308  0.0128  0.0913
 1055YOPC   C1A12113   5.404   4.769   6.914 -0.1363  0.0576 -0.1156
 1055YOPC   D2A12114   5.594   4.813   7.355 -0.0794  0.1910 -0.0633
 1055YOPC   C3A12115   5.581   4.899   7.754  0.2935 -0.3061 -0.1305
 1055YOPC   C4A12116   5.255   4.786   8.048 -0.0372 -0.1406 -0.0651
 1055YOPC   C1B12117   5.420   5.290   6.819 -0.2448 -0.2056  0.1844
 1055YOPC   C2B12118   5.459   5.329   7.245 -0.2394  0.0194 -0.1679
 1055YOPC   D3B12119   5.692   5.426   7.575  0.4581 -0.1049 -0.0186
 1055YOPC   C4B12120   5.796   5.358   7.934  0.1492  0.1245  0.0019
 1056YOPC   NC312121   1.865  16.115   6.039  0.0181  0.2530  0.1432
 1056YOPC   PO412122   1.633  15.936   6.355  0.0254  0.2352  0.2442
 1056YOPC   GL112123   1.704  15.810   6.806 -0.0574  0.0286 -0.0281
 1056YOPC   GL212124   1.498  15.817   7.110 -0.2040 -0.1424 -0.0691
 1056YOPC   C1A12125   1.716  15.403   7.216 -0.3062 -0.0660 -0.2701
 1056YOPC   D2A12126   1.794  15.295   7.598 -0.4200 -0.1454 -0.2547
 1056YOPC   C3A12127   1.739  15.287   8.065  0.1808  0.0808  0.0040
 1056YOPC   C4A12128   1.548  15.434   8.405 -0.1674 -0.2342  0.2252
 1056YOPC   C1B12129   1.478  15.723   7.497  0.0993  0.0438 -0.1649
 1056YOPC   C2B12130   1.379  15.687   7.873 -0.3789  0.0082 -0.2306
 1056YOPC   D3B12131   1.431  15.911   8.269 -0.0291  0.2315  0.1111
 1056YOPC   C4B12132   1.444  16.097   8.718 -0.1395  0.1140 -0.4649
 1057YOPC   NC312133   4.093  16.301   6.071 -0.2363  0.0564 -0.0228
 1057YOPC   PO412134   3.993  16.514   6.368  0.1890 -0.0058 -0.1303
 1057YOPC   GL112135   4.019  16.414   6.770  0.1889 -0.1426  0.2668
 1057YOPC   GL212136   3.807  16.570   6.957 -0.1366 -0.2513 -0.0249
 1057YOPC   C1A12137   4.111  16.261   7.160 -0.2534 -0.0187  0.0156
 1057YOPC   D2A12138   4.098  16.175   7.609 -0.1564 -0.0306  0.0821
 1057YOPC   C3A12139   3.845  15.965   7.955 -0.2247  0.0260 -0.2184
 1057YOPC   C4A12140   3.465  15.776   8.166  0.1410  0.0196  0.0460
 1057YOPC   C1B12141   3.756  16.567   7.385 -0.1061  0.3144 -0.1519
 1057YOPC   C2B12142   3.859  16.581   7.876 -0.0711  0.2913  0.0295
 1057YOPC   D3B12143   4.159  16.356   8.112  0.3808  0.1228 -0.1565
 1057YOPC   C4B12144   4.552  16.146   8.362  0.1575  0.1188 -0.3333
 1058YOPC   NC312145   3.791  11.884   6.095  0.1381  0.0892 -0.1979
 1058YOPC   PO412146   3.612  11.639   6.343 -0.0782 -0.0207  0.0163
 1058YOPC   GL112147   3.727  11.856   6.646  0.1739  0.2129  0.2274
 1058YOPC   GL212148   4.119  12.007   6.586 -0.0298  0.2892 -0.0013
 1058YOPC   C1A12149   3.593  12.099   7.039 -0.0374 -0.0057  0.2350
 1058YOPC   D2A12150   3.425  12.091   7.429 -0.2420 -0.0509  0.0871
 1058YOPC   C3A12151   3.524  11.714   7.801  0.3777 -0.0387  0.0582
 1058YOPC   C4A12152   3.382  11.836   8.249  0.1728 -0.3961  0.0581
 1058YOPC   C1B12153   4.114  12.115   7.037 -0.0743 -0.0453  0.4242
 1058YOPC   C2B12154   4.167  12.333   7.414 -0.0234 -0.1874 -0.0889
 1058YOPC   D3B12155   3.846  12.436   7.639 -0.0036  0.0331 -0.1190
 1058YOPC   C4B12156   3.723  12.218   7.756  0.1324  0.5083 -0.2455
 1059YOPC   NC312157  13.991   9.754   6.282  0.2018  0.2263  0.0774
 1059YOPC   PO412158  13.741  10.019   6.472  0.1830  0.2708 -0.1865
 1059YOPC   GL112159  13.892  10.128   6.944 -0.0141 -0.1613  0.5097
 1059YOPC   GL212160  14.091   9.862   7.036 -0.0077 -0.1412 -0.0668
 1059YOPC   C1A12161  13.828  10.524   7.121  0.2770 -0.0275 -0.0935
 1059YOPC   D2A12162  13.923  10.564   7.517 -0.2414 -0.0762 -0.0867
 1059YOPC   C3A12163  13.886  10.761   7.907  0.0098 -0.1209  0.0080
 1059YOPC   C4A12164  14.159  10.903   8.190 -0.0224  0.0705  0.3131
 1059YOPC   C1B12165  14.271  10.122   7.404 -0.0239 -0.2562 -0.0286
 1059YOPC   C2B12166  14.174  10.230   7.878  0.3063  0.1837 -0.1287
 1059YOPC   D3B12167  14.367  10.164   8.217  0.0363  0.2899 -0.3807
 1059YOPC   C4B12168  14.603   9.835   8.333 -0.3862 -0.2869 -0.1656
 1060YOPC   NC312169  12.516   5.358   6.489  0.1358  0.2073 -0.1810
 1060YOPC   PO412170  12.133   5.526   6.652 -0.3391 -0.0386 -0.2366
 1060YOPC   GL112171  12.106   5.155   6.910  0.2122  0.1491 -0.3059
 1060YOPC   GL212172  11.835   5.152   7.055 -0.0842  0.1391  0.0727
 1060YOPC   C1A12173  12.374   5.034   7.275 -0.0323 -0.1952 -0.2703
 1060YOPC   D2A12174  12.494   4.917   7.654  0.0582  0.3692 -0.0252
 1060YOPC   C3A12175  12.193   4.809   8.029 -0.2054 -0.2800  0.2938
 1060YOPC   C4A12176  12.044   5.053   8.301  0.1804 -0.0032 -0.0231
 1060YOPC   C1B12177  11.903   5.318   7.487 -0.2254  0.2332 -0.0984
 1060YOPC   C2B12178  12.019   5.324   7.890 -0.1534  0.2641 -0.1081
 1060YOPC   D3B12179  12.267   5.551   8.034  0.1411  0.1131 -0.0461
 1060YOPC   C4B12180  12.507   5.748   8.327 -0.0123 -0.0539  0.0623
 1061YOPC   NC312181   6.043   3.407   5.640  0.0676 -0.1852 -0.1751
 1061YOPC   PO412182   6.290   3.748   5.907 -0.1400  0.0604  0.0866
 1061YOPC   GL112183   6.149   3.851   6.346  0.1751 -0.0214  0.2524
 1061YOPC   GL212184   5.787   3.822   6.435 -0.1408  0.0809 -0.1165
 1061YOPC   C1A12185   6.319   3.883   6.768 -0.1068 -0.6526 -0.1193
 1061YOPC   D2A12186   6.484   4.054   7.175 -0.1151 -0.0895  0.1132
 1061YOPC   C3A12187   6.424   3.748   7.475 -0.1172 -0.0297  0.1479
 1061YOPC   C4A12188   6.297   3.784   7.811  0.0029  0.3187 -0.0581
 1061YOPC   C1B12189   5.800   3.949   6.857 -0.0611  0.1878 -0.1044
 1061YOPC   C2B12190   5.930   3.894   7.329  0.2292  0.1969  0.3308
 1061YOPC   D3B12191   6.202   4.200   7.559 -0.0203  0.1254 -0.1379
 1061YOPC   C4B12192   6.549   4.537   7.547  0.0637 -0.2361 -0.1261
 1062YOPC   NC312193  11.992   6.367   6.015 -0.0767 -0.1528 -0.0693
 1062YOPC   PO412194  11.582   6.603   5.972  0.1088 -0.2234 -0.3610
 1062YOPC   GL112195  11.324   6.703   6.348  0.2235  0.2082 -0.0805
 1062YOPC   GL212196  11.266   6.424   6.462 -0.1823  0.1361 -0.2609
 1062YOPC   C1A12197  11.269   6.892   6.696 -0.0132  0.0614  0.1169
 1062YOPC   D2A12198  11.221   6.913   7.068  0.2634 -0.0014  0.0928
 1062YOPC   C3A12199  11.044   7.167   7.242  0.1070  0.1187  0.1650
 1062YOPC   C4A12200  11.037   7.294   7.677 -0.0022  0.3995  0.1152
 1062YOPC   C1B12201  11.143   6.408   6.962 -0.0799  0.2841  0.3547
 1062YOPC   C2B12202  11.022   6.230   7.406 -0.0067 -0.0135  0.1005
 1062YOPC   D3B12203  11.076   6.530   7.603 -0.1419 -0.0089 -0.1842
 1062YOPC   C4B12204  11.273   6.862   7.558  0.0185  0.1192 -0.0266
 1063YOPC   NC312205  16.135   1.589   6.833 -0.1463 -0.0036 -0.1184
 1063YOPC   PO412206  15.779   1.403   6.796  0.0788 -0.0184 -0.1688
 1063YOPC   GL112207  16.007   1.190   7.116 -0.2407 -0.0769 -0.1480
 1063YOPC   GL212208  15.840   1.421   7.307 -0.0296  0.0968  0.0514
 1063YOPC   C1A12209  16.049   0.866   7.470 -0.1700 -0.0307  0.0207
 1063YOPC   D2A12210  15.842   0.701   7.753  0.0499  0.1837 -0.0156
 1063YOPC   C3A12211  15.994   0.606   8.051  0.1250 -0.2639 -0.0347
 1063YOPC   C4A12212  15.888   0.628   8.511  0.1651 -0.1211  0.1200
 1063YOPC   C1B12213  15.935   1.268   7.685  0.2940 -0.0012 -0.2768
 1063YOPC   C2B12214  15.978   1.069   8.121  0.0936  0.1749  0.3508
 1063YOPC   D3B12215  16.270   1.230   8.380 -0.1681  0.2829 -0.2026
 1063YOPC   C4B12216  16.687   1.276   8.459 -0.0962  0.0249 -0.1190
 1064YOPC   NC312217   7.343   8.616   6.262  0.0469  0.0070  0.1742
 1064YOPC   PO412218   6.868   8.616   6.316 -0.2078 -0.3714  0.3122
 1064YOPC   GL112219   7.064   8.698   6.683  0.0931 -0.1413  0.1877
 1064YOPC   GL212220   7.241   8.930   6.799  0.2511  0.1003 -0.0547
 1064YOPC   C1A12221   6.926   8.785   7.153 -0.0381  0.0982 -0.2578
 1064YOPC   D2A12222   6.807   8.690   7.608 -0.1678  0.1951 -0.0304
 1064YOPC   C3A12223   6.948   8.841   7.991  0.0333 -0.0367 -0.1641
 1064YOPC   C4A12224   6.703   9.025   8.202 -0.1894  0.1844 -0.0631
 1064YOPC   C1B12225   7.346   9.120   7.184 -0.0526 -0.1254 -0.0758
 1064YOPC   C2B12226   7.583   9.141   7.562  0.0283  0.1639 -0.1480
 1064YOPC   D3B12227   7.309   9.097   7.875  0.0039  0.3531 -0.0835
 1064YOPC   C4B12228   7.127   9.349   8.199 -0.1124  0.1326  0.2914
 1065YOPC   NC312229   4.718   3.001   5.778  0.2763 -0.0280 -0.1354
 1065YOPC   PO412230   4.934   3.127   6.122  0.3239  0.1608  0.2154
 1065YOPC   GL112231   5.034   3.031   6.549  0.1812 -0.1232 -0.1613
 1065YOPC   GL212232   5.363   2.937   6.648 -0.3041 -0.1797  0.0014
 1065YOPC   C1A12233   5.061   3.233   6.946  0.1714  0.2595 -0.1975
 1065YOPC   D2A12234   5.158   3.476   7.327 -0.0013 -0.0931  0.1109
 1065YOPC   C3A12235   5.558   3.220   7.565  0.1659  0.1434 -0.1003
 1065YOPC   C4A12236   5.618   3.094   7.860 -0.1398  0.2342 -0.1830
 1065YOPC   C1B12237   5.529   3.043   7.061 -0.0583  0.3127  0.0354
 1065YOPC   C2B12238   5.157   3.002   7.374  0.2616  0.3638  0.5442
 1065YOPC   D3B12239   5.120   3.048   7.783  0.1046  0.1049  0.1954
 1065YOPC   C4B12240   5.235   2.947   8.167 -0.0198 -0.0167  0.0023
 1066YOPC   NC312241   6.608  14.042   6.079  0.0204  0.2458  0.0407
 1066YOPC   PO412242   6.616  14.464   6.273  0.0155 -0.1797  0.1469
 1066YOPC   GL112243   6.676  14.643   6.633  0.0824 -0.3302 -0.0785
 1066YOPC   GL212244   6.650  14.624   6.921 -0.0041 -0.1892 -0.2328
 1066YOPC   C1A12245   6.838  15.059   6.773  0.0520  0.0901  0.0931
 1066YOPC   D2A12246   6.651  15.197   7.184 -0.0027  0.0973  0.3148
 1066YOPC   C3A12247   6.864  15.483   7.471 -0.2915  0.1005  0.1517
 1066YOPC   C4A12248   6.851  15.716   7.917 -0.1295 -0.2114 -0.1446
 1066YOPC   C1B12249   6.738  14.623   7.339  0.3035  0.1251  0.2431
 1066YOPC   C2B12250   6.746  14.453   7.690 -0.0799  0.2689  0.0412
 1066YOPC   D3B12251   6.427  14.458   7.990  0.0478 -0.0984  0.0199
 1066YOPC   C4B12252   6.113  14.354   8.262  0.0311 -0.0731  0.0458
 1067YOPC   NC312253   9.676   5.070   5.612 -0.3274  0.2342 -0.1039
 1067YOPC   PO412254   9.794   5.257   6.083 -0.3094  0.0149  0.0547
 1067YOPC   GL112255  10.043   5.032   6.371 -0.1140  0.1852 -0.1183
 1067YOPC   GL212256  10.028   4.609   6.415  0.2688 -0.2535  0.0606
 1067YOPC   C1A12257  10.293   4.898   6.817  0.0341 -0.0504 -0.0482
 1067YOPC   D2A12258  10.208   4.902   7.245  0.2637 -0.0362 -0.1965
 1067YOPC   C3A12259  10.259   4.567   7.531 -0.1549 -0.2209  0.1274
 1067YOPC   C4A12260  10.028   4.167   7.743  0.0861  0.0192 -0.1283
 1067YOPC   C1B12261   9.984   4.488   6.914  0.0021  0.0673  0.2897
 1067YOPC   C2B12262   9.920   4.289   7.277  0.1183 -0.2074  0.0088
 1067YOPC   D3B12263   9.586   4.321   7.473  0.1374 -0.0500 -0.0137
 1067YOPC   C4B12264   9.140   4.242   7.584  0.0777  0.1412 -0.0190
 1068YOPC   NC312265   5.690   6.558   5.276 -0.3175 -0.0088  0.1646
 1068YOPC   PO412266   5.651   6.514   5.712 -0.1594 -0.1589  0.0678
 1068YOPC   GL112267   5.671   6.343   6.145  0.0482 -0.0002 -0.0416
 1068YOPC   GL212268   6.012   6.338   6.315 -0.1928 -0.1384  0.0129
 1068YOPC   C1A12269   5.666   6.125   6.648 -0.1618  0.0871 -0.0215
 1068YOPC   D2A12270   5.535   5.771   6.935  0.1440  0.0477  0.0620
 1068YOPC   C3A12271   5.890   5.597   7.138  0.1424  0.3539  0.1155
 1068YOPC   C4A12272   6.187   5.447   7.463  0.0988  0.0121  0.0210
 1068YOPC   C1B12273   6.323   6.297   6.641  0.2187  0.2879  0.0878
 1068YOPC   C2B12274   6.544   6.201   7.103  0.0679  0.1781  0.2091
 1068YOPC   D3B12275   6.333   6.082   7.431 -0.0945  0.1969  0.1322
 1068YOPC   C4B12276   6.345   6.154   7.884 -0.0160  0.0921  0.0759
 1069YOPC   NC312277   8.346   0.167   5.962  0.1731 -0.0072  0.1283
 1069YOPC   PO412278   8.749   0.042   6.066 -0.0980 -0.0933 -0.3117
 1069YOPC   GL112279   8.497   0.004   6.438  0.1304  0.0222  0.3097
 1069YOPC   GL212280   8.263   0.195   6.480  0.2472  0.3390  0.1428
 1069YOPC   C1A12281   8.609  -0.075   6.819  0.0575  0.2483  0.0889
 1069YOPC   D2A12282   8.795  -0.234   7.088 -0.1822  0.0374 -0.1115
 1069YOPC   C3A12283   8.652   0.096   7.471  0.2739 -0.1986 -0.0030
 1069YOPC   C4A12284   8.461   0.127   7.819 -0.0665 -0.1022 -0.0516
 1069YOPC   C1B12285   8.015   0.234   6.833  0.0962 -0.1222 -0.1013
 1069YOPC   C2B12286   7.614   0.286   7.109  0.2376 -0.2044  0.0591
 1069YOPC   D3B12287   7.680   0.230   7.560 -0.0479 -0.2748 -0.1398
 1069YOPC   C4B12288   7.944   0.196   7.965  0.2336  0.1275  0.0885
 1070YOPC   NC312289   2.859  14.028   6.131 -0.1157 -0.0195  0.0360
 1070YOPC   PO412290   2.916  14.394   6.335  0.2413 -0.0388  0.0138
 1070YOPC   GL112291   3.175  14.387   6.684  0.0636 -0.1430 -0.2688
 1070YOPC   GL212292   3.029  14.540   6.844 -0.1242  0.0555 -0.0754
 1070YOPC   C1A12293   3.294  14.117   6.942 -0.1093  0.1175  0.2711
 1070YOPC   D2A12294   3.422  14.134   7.340 -0.1228  0.3317 -0.1107
 1070YOPC   C3A12295   3.772  13.863   7.476 -0.1098 -0.1081 -0.1158
 1070YOPC   C4A12296   3.946  13.546   7.728  0.1992  0.2411  0.3990
 1070YOPC   C1B12297   3.054  14.468   7.324  0.0958  0.4234  0.0794
 1070YOPC   C2B12298   3.056  14.047   7.604  0.3438 -0.2016 -0.0131
 1070YOPC   D3B12299   3.372  13.896   7.794  0.0510 -0.0182  0.4467
 1070YOPC   C4B12300   3.613  13.658   8.143  0.1604 -0.0596 -0.1301
 1071YOPC   NC312301  12.938  12.889   5.952  0.0308  0.1551 -0.0233
 1071YOPC   PO412302  12.871  12.521   6.144  0.0174 -0.0924 -0.0800
 1071YOPC   GL112303  12.911  12.633   6.531  0.0940 -0.1876 -0.3555
 1071YOPC   GL212304  12.667  12.439   6.742 -0.2590 -0.0967 -0.0246
 1071YOPC   C1A12305  12.817  12.917   6.903  0.1737 -0.0774 -0.0456
 1071YOPC   D2A12306  12.799  12.621   7.318 -0.1096 -0.2448 -0.2446
 1071YOPC   C3A12307  13.034  12.649   7.649 -0.1025 -0.0194 -0.1976
 1071YOPC   C4A12308  12.992  12.661   8.121 -0.1273 -0.0136  0.0786
 1071YOPC   C1B12309  12.589  12.229   7.049 -0.1550 -0.1192 -0.1207
 1071YOPC   C2B12310  12.712  12.184   7.481 -0.0604  0.0505  0.1948
 1071YOPC   D3B12311  12.469  11.979   7.755 -0.3685  0.0322 -0.1314
 1071YOPC   C4B12312  12.111  11.795   7.827 -0.2767 -0.0275  0.1164
 1072YOPC   NC312313   3.158  11.846   6.122  0.3159  0.5538 -0.2503
 1072YOPC   PO412314   3.444  12.134   6.343  0.1095 -0.0461  0.0991
 1072YOPC   GL112315   3.353  12.362   6.666 -0.3419  0.1077  0.1421
 1072YOPC   GL212316   3.075  12.278   6.637  0.0892  0.2607  0.2741
 1072YOPC   C1A12317   3.381  12.565   7.120 -0.0979 -0.1486 -0.2209
 1072YOPC   D2A12318   3.446  12.713   7.491 -0.1719 -0.1951  0.2247
 1072YOPC   C3A12319   3.313  12.513   7.771  0.3325 -0.1551 -0.0407
 1072YOPC   C4A12320   3.177  12.149   7.881  0.2172 -0.0216  0.0868
 1072YOPC   C1B12321   3.122  12.016   7.027  0.0602  0.0014 -0.2873
 1072YOPC   C2B12322   3.316  11.663   7.015 -0.3002 -0.2308  0.2067
 1072YOPC   D3B12323   3.478  11.372   7.373  0.0540 -0.1179 -0.3533
 1072YOPC   C4B12324   3.390  11.260   7.770  0.2081  0.0912 -0.1709
 1073YOPC   NC312325   9.255   9.241   5.831 -0.0436 -0.0300  0.3190
 1073YOPC   PO412326   9.605   9.430   5.954 -0.2568 -0.0177  0.0984
 1073YOPC   GL112327   9.788   9.464   6.353 -0.1526  0.0005  0.2154
 1073YOPC   GL212328   9.625   9.615   6.678 -0.0125 -0.0401  0.0988
 1073YOPC   C1A12329  10.077   9.336   6.594  0.0802  0.0573 -0.0509
 1073YOPC   D2A12330  10.383   9.010   6.645  0.0221 -0.0862 -0.0508
 1073YOPC   C3A12331  10.265   8.774   7.069  0.1088  0.3698  0.1251
 1073YOPC   C4A12332  10.342   8.454   7.338 -0.1728 -0.2442  0.2844
 1073YOPC   C1B12333   9.618   9.683   7.119  0.1659  0.2769 -0.0574
 1073YOPC   C2B12334   9.657   9.642   7.610 -0.0296 -0.0980 -0.1224
 1073YOPC   D3B12335   9.392   9.423   7.881  0.0819 -0.3379  0.0065
 1073YOPC   C4B12336   9.001   9.416   8.128  0.3113  0.1952  0.0191
 1074YOPC   NC312337  11.066   4.353   6.202  0.0242  0.1321 -0.0872
 1074YOPC   PO412338  11.217   3.923   6.132 -0.0195 -0.1323 -0.2971
 1074YOPC   GL112339  11.286   3.848   6.548 -0.2795  0.2144 -0.0653
 1074YOPC   GL212340  11.270   3.606   6.710  0.5789 -0.0664 -0.1158
 1074YOPC   C1A12341  11.221   4.130   6.922  0.1446  0.1253 -0.3930
 1074YOPC   D2A12342  11.101   4.331   7.217 -0.1933 -0.0218  0.0743
 1074YOPC   C3A12343  11.037   4.222   7.499  0.2600 -0.1688 -0.2418
 1074YOPC   C4A12344  11.126   4.190   7.961  0.0341  0.2530 -0.0281
 1074YOPC   C1B12345  11.471   3.695   6.988  0.1967  0.1376  0.0260
 1074YOPC   C2B12346  11.290   3.826   7.370 -0.0203 -0.0783  0.0314
 1074YOPC   D3B12347  11.356   3.698   7.716 -0.2171  0.0690  0.0643
 1074YOPC   C4B12348  11.239   3.505   8.084 -0.0135  0.2827  0.2517
 1075YOPC   NC312349   6.696   0.501   5.717 -0.1477 -0.2586  0.0411
 1075YOPC   PO412350   6.996   0.487   6.018 -0.0157 -0.1708  0.1154
 1075YOPC   GL112351   6.863   0.322   6.478  0.2461  0.1349 -0.0220
 1075YOPC   GL212352   6.631   0.588   6.709  0.2012  0.0181 -0.2994
 1075YOPC   C1A12353   7.050   0.163   6.835 -0.1605  0.1428 -0.1739
 1075YOPC   D2A12354   7.169  -0.019   7.170 -0.1277 -0.1982 -0.3216
 1075YOPC   C3A12355   7.150   0.035   7.609 -0.3726  0.0943  0.2148
 1075YOPC   C4A12356   7.241  -0.152   8.021  0.1016 -0.3264 -0.0986
 1075YOPC   C1B12357   7.032   0.677   6.967  0.0567  0.4275 -0.1407
 1075YOPC   C2B12358   7.185   0.544   7.430 -0.1355  0.0607  0.2907
 1075YOPC   D3B12359   7.562   0.743   7.717  0.0670 -0.1107 -0.0572
 1075YOPC   C4B12360   7.782   0.835   8.068 -0.1255  0.1828  0.1961
 1076YOPC   NC312361   8.390   3.740   5.290 -0.0687  0.0002  0.1961
 1076YOPC   PO412362   8.377   4.087   5.634  0.1101 -0.2056 -0.3394
 1076YOPC   GL112363   8.499   3.880   6.063 -0.1664  0.0857 -0.2457
 1076YOPC   GL212364   8.859   3.899   6.211 -0.1007 -0.1609 -0.1390
 1076YOPC   C1A12365   8.377   3.887   6.439 -0.1283  0.0271  0.1364
 1076YOPC   D2A12366   8.130   3.910   6.852  0.0060  0.2033 -0.1082
 1076YOPC   C3A12367   8.298   3.952   7.262  0.1021 -0.2634  0.1243
 1076YOPC   C4A12368   8.344   3.828   7.691  0.1637 -0.0765  0.1083
 1076YOPC   C1B12369   8.768   4.166   6.620 -0.1334 -0.2727 -0.0325
 1076YOPC   C2B12370   8.992   4.530   6.731 -0.0639  0.2724  0.0492
 1076YOPC   D3B12371   8.737   4.757   6.911 -0.0141  0.0699 -0.1579
 1076YOPC   C4B12372   8.327   4.859   7.243  0.0378 -0.2755  0.2052
 1077YOPC   NC312373   1.680   7.507   6.453  0.1649 -0.0530  0.2101
 1077YOPC   PO412374   2.007   7.798   6.366 -0.2135  0.1071  0.0127
 1077YOPC   GL112375   1.917   7.860   6.790 -0.2744 -0.1443  0.2916
 1077YOPC   GL212376   1.585   7.819   6.864  0.0359 -0.0714 -0.0091
 1077YOPC   C1A12377   1.988   8.190   7.033 -0.1454  0.0976  0.0116
 1077YOPC   D2A12378   1.868   8.333   7.440 -0.1628  0.3191 -0.0515
 1077YOPC   C3A12379   2.089   8.616   7.670  0.1955  0.2808 -0.2608
 1077YOPC   C4A12380   1.977   8.958   7.962 -0.0029  0.3186 -0.1368
 1077YOPC   C1B12381   1.643   7.819   7.316  0.0051  0.0370 -0.1054
 1077YOPC   C2B12382   1.760   7.929   7.681 -0.0473 -0.0249 -0.0115
 1077YOPC   D3B12383   2.135   8.118   7.888  0.1305  0.2975 -0.1410
 1077YOPC   C4B12384   2.186   8.500   8.138  0.1023 -0.1112  0.0731
 1078YOPC   NC312385   5.279   3.400   5.835 -0.0768  0.2939 -0.1670
 1078YOPC   PO412386   5.701   3.085   5.874 -0.0495  0.3377 -0.0577
 1078YOPC   GL112387   5.814   3.016   6.308  0.2619 -0.0415  0.1123
 1078YOPC   GL212388   5.685   3.290   6.403  0.0579 -0.0735  0.0810
 1078YOPC   C1A12389   5.935   2.969   6.740 -0.0008  0.0592  0.0492
 1078YOPC   D2A12390   6.039   3.014   7.185 -0.0252 -0.0196 -0.1615
 1078YOPC   C3A12391   6.015   3.374   7.545  0.3353 -0.1464 -0.0379
 1078YOPC   C4A12392   5.844   3.582   7.953 -0.2608  0.0977  0.1101
 1078YOPC   C1B12393   6.117   3.404   6.554 -0.1549 -0.1932 -0.0615
 1078YOPC   C2B12394   6.135   3.491   6.955  0.1809  0.0068 -0.3443
 1078YOPC   D3B12395   5.767   3.453   7.115 -0.0509 -0.2906  0.0141
 1078YOPC   C4B12396   5.522   3.453   6.839  0.1898 -0.0744  0.0496
 1079YOPC   NC312397   9.494  16.431   5.899  0.0825 -0.0446 -0.1142
 1079YOPC   PO412398   9.120  16.135   5.968  0.0947  0.2966  0.0018
 1079YOPC   GL112399   8.992  16.105   6.421 -0.0904 -0.0124 -0.2026
 1079YOPC   GL212400   8.677  16.184   6.546  0.0008  0.0342 -0.4626
 1079YOPC   C1A12401   9.172  16.384   6.731 -0.0222 -0.0625 -0.2177
 1079YOPC   D2A12402   9.157  16.499   7.188 -0.1112  0.0778 -0.1812
 1079YOPC   C3A12403   9.298  16.537   7.591  0.1328  0.0385  0.1821
 1079YOPC   C4A12404   9.724  16.507   7.764 -0.0187  0.1415  0.0611
 1079YOPC   C1B12405   8.629  16.139   6.985  0.0964  0.2335  0.1004
 1079YOPC   C2B12406   8.579  16.163   7.370  0.2209  0.1462  0.0579
 1079YOPC   D3B12407   8.779  16.554   7.705 -0.3067  0.0465  0.4836
 1079YOPC   C4B12408   9.096  16.408   8.043  0.0532  0.0071  0.2171
 1080YOPC   NC312409   6.405  10.786   6.188  0.1419  0.2733 -0.0044
 1080YOPC   PO412410   6.693  10.396   6.239  0.0232  0.1064 -0.1189
 1080YOPC   GL112411   6.574  10.629   6.647 -0.2522  0.0725 -0.0470
 1080YOPC   GL212412   6.729  10.884   6.739  0.2754  0.0133  0.0191
 1080YOPC   C1A12413   6.274  10.898   6.989 -0.3510 -0.0809  0.0590
 1080YOPC   D2A12414   6.586  11.031   7.329 -0.2962  0.3610  0.0649
 1080YOPC   C3A12415   6.394  11.080   7.773  0.0702 -0.1963 -0.1641
 1080YOPC   C4A12416   6.246  11.102   8.212  0.3660  0.0988 -0.1949
 1080YOPC   C1B12417   6.911  10.688   7.122  0.1706  0.1410 -0.3298
 1080YOPC   C2B12418   6.938  10.715   7.613  0.2779 -0.2129  0.2154
 1080YOPC   D3B12419   7.216  10.851   7.958 -0.1492 -0.0154 -0.3618
 1080YOPC   C4B12420   7.139  10.840   8.359 -0.1876  0.1869 -0.2329
 1081YOPC   NC312421   9.423   0.538   5.951 -0.0584 -0.3041  0.1126
 1081YOPC   PO412422   9.820   0.369   5.742  0.0472 -0.5045  0.1022
 1081YOPC   GL112423   9.840   0.368   6.261 -0.0369 -0.1265 -0.0716
 1081YOPC   GL212424   9.765   0.625   6.434 -0.1252 -0.0185 -0.2439
 1081YOPC   C1A12425  10.107   0.310   6.658 -0.1171  0.0702  0.2176
 1081YOPC   D2A12426  10.223   0.216   7.093 -0.0214 -0.0619  0.0189
 1081YOPC   C3A12427  10.216   0.089   7.511  0.1167 -0.0284  0.0578
 1081YOPC   C4A12428  10.169  -0.253   7.688  0.1200 -0.0676  0.0138
 1081YOPC   C1B12429   9.613   0.949   6.762  0.2109 -0.1538  0.1665
 1081YOPC   C2B12430   9.696   1.057   7.284 -0.3083  0.0775  0.2022
 1081YOPC   D3B12431   9.562   1.375   7.614 -0.1643  0.2504  0.0544
 1081YOPC   C4B12432   9.594   1.405   8.090  0.2002 -0.2112 -0.3187
 1082YOPC   NC312433   3.185   6.834   6.441 -0.1164  0.0785  0.2516
 1082YOPC   PO412434   3.008   6.501   6.705 -0.2524  0.1021 -0.1214
 1082YOPC   GL112435   2.971   6.358   6.989 -0.3566  0.2535 -0.2283
 1082YOPC   GL212436   3.191   6.124   7.029  0.0432  0.2557 -0.2349
 1082YOPC   C1A12437   3.143   6.633   7.356  0.4119 -0.0605  0.2210
 1082YOPC   D2A12438   3.169   6.693   7.761 -0.0595  0.0802  0.1483
 1082YOPC   C3A12439   2.877   6.889   8.036  0.3707  0.1590  0.0082
 1082YOPC   C4A12440   2.409   6.813   8.096 -0.1365 -0.2875  0.3118
 1082YOPC   C1B12441   3.263   6.217   7.542  0.0221 -0.1235  0.2153
 1082YOPC   C2B12442   3.498   6.147   7.862 -0.2942  0.2071  0.0566
 1082YOPC   D3B12443   3.560   6.440   8.096 -0.0463 -0.1696 -0.3953
 1082YOPC   C4B12444   3.697   6.612   8.460  0.2607  0.1399  0.1092
 1083YOPC   NC312445   4.688  17.333   6.117 -0.0918 -0.0436  0.3952
 1083YOPC   PO412446   4.537  17.775   6.302  0.1884 -0.0199 -0.2938
 1083YOPC   GL112447   4.533  17.757   6.838  0.0529  0.0598 -0.2136
 1083YOPC   GL212448   4.751  18.038   6.936  0.0373 -0.0566 -0.0633
 1083YOPC   C1A12449   4.378  17.509   7.216 -0.2547 -0.0752 -0.2340
 1083YOPC   D2A12450   4.318  17.163   7.489 -0.1251  0.2069  0.3552
 1083YOPC   C3A12451   4.328  17.114   7.905  0.2070  0.1021  0.0219
 1083YOPC   C4A12452   4.267  16.872   8.187  0.3096 -0.0478  0.1509
 1083YOPC   C1B12453   4.670  17.909   7.363  0.2012 -0.1581 -0.2227
 1083YOPC   C2B12454   4.711  17.880   7.758 -0.2666 -0.3687 -0.1022
 1083YOPC   D3B12455   4.907  18.171   8.007  0.2084 -0.2231 -0.0135
 1083YOPC   C4B12456   5.267  18.168   8.272 -0.0793  0.2337 -0.1042
 1084YOPC   NC312457   2.335   8.569   5.849 -0.3149  0.1145  0.2597
 1084YOPC   PO412458   1.990   8.720   6.129 -0.2240 -0.2396 -0.1353
 1084YOPC   GL112459   2.281   8.610   6.464 -0.3144  0.1284 -0.2852
 1084YOPC   GL212460   2.134   8.433   6.650 -0.2078 -0.1983  0.1601
 1084YOPC   C1A12461   2.594   8.813   6.772 -0.2096 -0.4432  0.2116
 1084YOPC   D2A12462   2.765   9.262   6.795  0.0464 -0.0631 -0.0852
 1084YOPC   C3A12463   2.629   9.547   7.208 -0.0453  0.1401 -0.0631
 1084YOPC   C4A12464   2.574   9.658   7.655 -0.0717 -0.1047 -0.2667
 1084YOPC   C1B12465   2.194   8.637   7.131  0.0680  0.1182 -0.1195
 1084YOPC   C2B12466   2.489   8.768   7.482 -0.1014 -0.0102  0.1542
 1084YOPC   D3B12467   2.529   8.814   7.903  0.4415  0.1783  0.0047
 1084YOPC   C4B12468   2.439   8.886   8.323 -0.0990  0.2472  0.2854
 1085YOPC   NC312469  12.437   7.382   5.680 -0.2379  0.3547  0.1518
 1085YOPC   PO412470  12.275   7.718   5.891 -0.5433 -0.1238 -0.1176
 1085YOPC   GL112471  12.180   7.439   6.283 -0.0191  0.2550  0.2450
 1085YOPC   GL212472  12.087   7.623   6.472 -0.0713  0.1516 -0.1957
 1085YOPC   C1A12473  12.002   7.021   6.434 -0.0800  0.1303 -0.0113
 1085YOPC   D2A12474  12.170   6.880   6.798 -0.3173  0.1829  0.2921
 1085YOPC   C3A12475  12.195   6.516   6.910  0.1941 -0.2627 -0.1081
 1085YOPC   C4A12476  12.376   6.095   7.104  0.1536  0.1601 -0.0447
 1085YOPC   C1B12477  12.149   7.666   7.016  0.2332 -0.1081  0.1590
 1085YOPC   C2B12478  11.971   7.577   7.391 -0.2633 -0.1495  0.1668
 1085YOPC   D3B12479  11.796   7.570   7.798  0.2098 -0.1212 -0.0387
 1085YOPC   C4B12480  11.919   7.709   8.223  0.0638 -0.4228  0.0798
 1086YOPC   NC312481  10.575   9.041   6.217 -0.1131 -0.1721 -0.0607
 1086YOPC   PO412482  10.652   9.430   5.909  0.0753  0.2029 -0.1912
 1086YOPC   GL112483  10.467   9.513   6.296 -0.2265 -0.1626  0.0216
 1086YOPC   GL212484  10.488   9.837   6.328  0.0456  0.0199 -0.2429
 1086YOPC   C1A12485  10.614   9.457   6.713  0.1223  0.1895  0.2143
 1086YOPC   D2A12486  10.410   9.318   7.098  0.0887  0.1264 -0.1058
 1086YOPC   C3A12487  10.476   8.987   7.512  0.0103  0.1005  0.2091
 1086YOPC   C4A12488  10.287   8.677   7.766  0.0002 -0.1913 -0.2888
 1086YOPC   C1B12489  10.488  10.142   6.739 -0.0066 -0.2605 -0.1766
 1086YOPC   C2B12490  10.443  10.402   7.004 -0.2882 -0.0147 -0.4743
 1086YOPC   D3B12491  10.410  10.302   7.425  0.0396 -0.1293 -0.0750
 1086YOPC   C4B12492  10.369  10.391   7.865 -0.1731  0.0415  0.0190
 1087YOPC   NC312493   6.549   9.922   6.274 -0.1464  0.2500 -0.2128
 1087YOPC   PO412494   6.757   9.536   6.518 -0.0593  0.0454  0.1362
 1087YOPC   GL112495   6.732   9.775   6.927  0.2646 -0.1220  0.0404
 1087YOPC   GL212496   6.928  10.011   7.015 -0.3733  0.2002  0.0998
 1087YOPC   C1A12497   6.660   9.843   7.390 -0.1746 -0.0924 -0.1055
 1087YOPC   D2A12498   6.428   9.804   7.721  0.0106 -0.0784 -0.1051
 1087YOPC   C3A12499   6.421  10.072   8.091  0.0665 -0.3991  0.0835
 1087YOPC   C4A12500   6.698  10.091   8.364  0.2765 -0.1261  0.0071
 1087YOPC   C1B12501   6.972  10.221   7.391 -0.0169 -0.1158 -0.0391
 1087YOPC   C2B12502   6.885  10.217   7.755 -0.1167 -0.1087 -0.1363
 1087YOPC   D3B12503   7.062  10.442   8.093  0.3599  0.0177 -0.0423
 1087YOPC   C4B12504   7.480  10.463   8.263  0.1474 -0.2895 -0.1465
 1088YOPC   NC312505   4.123   0.106   6.475 -0.0308 -0.2833  0.0823
 1088YOPC   PO412506   4.096  -0.234   6.606 -0.4893  0.0594  0.1904
 1088YOPC   GL112507   3.988  -0.201   7.060 -0.0158  0.1177  0.1891
 1088YOPC   GL212508   3.794  -0.423   7.165 -0.1120  0.1406 -0.2151
 1088YOPC   C1A12509   4.189  -0.069   7.348  0.1047  0.0371 -0.2003
 1088YOPC   D2A12510   4.348   0.130   7.620 -0.1029  0.2552  0.0867
 1088YOPC   C3A12511   4.060   0.428   7.726  0.2094  0.0761  0.0271
 1088YOPC   C4A12512   4.043   0.782   7.900 -0.0574  0.3047  0.0465
 1088YOPC   C1B12513   3.962  -0.495   7.473 -0.2121 -0.1140 -0.0470
 1088YOPC   C2B12514   4.278  -0.408   7.727 -0.1030 -0.2141  0.0343
 1088YOPC   D3B12515   4.382  -0.499   8.156  0.1849 -0.1112  0.0063
 1088YOPC   C4B12516   4.141  -0.792   8.512  0.1202  0.0069 -0.0630
 1089YOPC   NC312517  10.657   1.242   6.064 -0.2854  0.0854 -0.0907
 1089YOPC   PO412518  11.119   1.405   6.010  0.1170  0.2456 -0.1049
 1089YOPC   GL112519  10.834   1.574   6.387 -0.3352 -0.2313 -0.2074
 1089YOPC   GL212520  10.884   1.203   6.475  0.1757 -0.5050  0.0797
 1089YOPC   C1A12521  10.815   1.809   6.795  0.1966  0.2217  0.0575
 1089YOPC   D2A12522  10.829   1.971   7.214  0.2673 -0.0544 -0.3420
 1089YOPC   C3A12523  10.799   1.871   7.661  0.0854  0.4699  0.0447
 1089YOPC   C4A12524  10.806   1.881   8.079 -0.1548  0.2158  0.2964
 1089YOPC   C1B12525  11.129   1.440   6.855  0.1767  0.2515  0.0753
 1089YOPC   C2B12526  11.191   1.651   7.164 -0.1174 -0.1407  0.1826
 1089YOPC   D3B12527  11.268   1.707   7.630 -0.0961  0.0094  0.2168
 1089YOPC   C4B12528  11.623   2.007   7.728  0.0578 -0.1946 -0.0590
 1090YOPC   NC312529   5.443  10.830   6.250  0.1060 -0.0170  0.4039
 1090YOPC   PO412530   5.567  10.461   6.442 -0.0086 -0.1843  0.0309
 1090YOPC   GL112531   5.458  10.836   6.718 -0.2701 -0.1340 -0.0561
 1090YOPC   GL212532   5.283  10.635   6.952 -0.0612  0.0880  0.0373
 1090YOPC   C1A12533   5.378  11.044   7.207  0.1391  0.0574 -0.1754
 1090YOPC   D2A12534   5.266  11.096   7.698 -0.1982 -0.1669  0.2443
 1090YOPC   C3A12535   5.421  11.406   7.987 -0.0898  0.0344 -0.1630
 1090YOPC   C4A12536   5.466  11.640   8.400  0.1125 -0.3361 -0.1074
 1090YOPC   C1B12537   5.167  10.573   7.405 -0.0686  0.0731  0.0048
 1090YOPC   C2B12538   5.122  10.572   7.926  0.0921 -0.0792  0.1672
 1090YOPC   D3B12539   4.942  10.983   8.082 -0.0834 -0.2642  0.3735
 1090YOPC   C4B12540   4.827  11.323   8.340  0.1685  0.0297 -0.0504
 1091YOPC   NC312541  11.310   5.182   5.671  0.0540 -0.1840  0.0403
 1091YOPC   PO412542  11.139   4.818   6.010 -0.1497 -0.2785  0.0142
 1091YOPC   GL112543  11.227   4.774   6.467 -0.1998  0.0764 -0.0096
 1091YOPC   GL212544  11.036   4.577   6.656 -0.1051 -0.2519  0.0444
 1091YOPC   C1A12545  11.452   4.621   6.918  0.1817  0.1465 -0.0208
 1091YOPC   D2A12546  11.513   4.631   7.326  0.1096  0.3551  0.1419
 1091YOPC   C3A12547  11.245   4.659   7.696 -0.1456 -0.0318 -0.1404
 1091YOPC   C4A12548  11.329   4.653   8.139  0.0048  0.1335  0.0186
 1091YOPC   C1B12549  10.666   4.513   6.768  0.1505  0.0936  0.3097
 1091YOPC   C2B12550  10.582   4.397   7.150  0.2004  0.1150 -0.2070
 1091YOPC   D3B12551  10.536   4.160   7.621 -0.0012  0.1446  0.0267
 1091YOPC   C4B12552  10.565   4.159   8.060 -0.1594 -0.1137 -0.3161
 1092YOPC   NC312553  17.045  10.102   6.278 -0.0055  0.0971  0.0258
 1092YOPC   PO412554  16.639  10.025   6.348 -0.0720  0.3514 -0.0919
 1092YOPC   GL112555  16.432  10.008   6.716 -0.0976  0.0466  0.2511
 1092YOPC   GL212556  16.537   9.655   6.773 -0.0540 -0.1103  0.4151
 1092YOPC   C1A12557  16.375   9.965   7.115  0.1286  0.2902  0.0563
 1092YOPC   D2A12558  16.197   9.726   7.392  0.0743 -0.0542 -0.2609
 1092YOPC   C3A12559  15.761   9.605   7.586  0.0265  0.0413 -0.0797
 1092YOPC   C4A12560  15.529   9.542   7.948 -0.1475 -0.1331  0.0195
 1092YOPC   C1B12561  16.666   9.487   7.151 -0.1399 -0.1659  0.1373
 1092YOPC   C2B12562  16.628   9.551   7.583 -0.0445  0.0944 -0.1665
 1092YOPC   D3B12563  16.219   9.584   7.935 -0.3292  0.0028  0.5341
 1092YOPC   C4B12564  16.029   9.932   7.929  0.2416 -0.2186 -0.0092
 1093YOPC   NC312565   6.786   1.487   5.746 -0.3092  0.3550  0.0138
 1093YOPC   PO412566   7.191   1.500   5.858 -0.0055  0.0658 -0.0987
 1093YOPC   GL112567   7.416   1.672   6.160  0.0263  0.0198 -0.0158
 1093YOPC   GL212568   7.576   2.016   6.249 -0.0973  0.0220  0.1032
 1093YOPC   C1A12569   7.489   1.523   6.540  0.0028  0.0213  0.1366
 1093YOPC   D2A12570   7.314   1.199   6.719 -0.1661  0.0473 -0.0716
 1093YOPC   C3A12571   7.550   0.798   6.794 -0.0763 -0.3649  0.0717
 1093YOPC   C4A12572   7.460   0.414   6.673  0.0669 -0.0938  0.0734
 1093YOPC   C1B12573   7.387   2.073   6.630 -0.2614 -0.3272  0.0306
 1093YOPC   C2B12574   7.466   1.823   6.941  0.1250 -0.2994  0.2740
 1093YOPC   D3B12575   7.403   1.955   7.367  0.0758 -0.0623  0.0884
 1093YOPC   C4B12576   7.422   2.045   7.795  0.0005  0.1783 -0.2033
 1094YOPC   NC312577   2.544  17.079   6.559 -0.0524  0.0560  0.1441
 1094YOPC   PO412578   2.970  16.930   6.523 -0.1173  0.2252  0.1552
 1094YOPC   GL112579   3.213  16.829   6.916 -0.1754 -0.1831 -0.1162
 1094YOPC   GL212580   3.251  16.469   7.119 -0.1513  0.0870  0.4208
 1094YOPC   C1A12581   3.394  16.895   7.379  0.0438 -0.0019 -0.0229
 1094YOPC   D2A12582   3.378  16.983   7.756  0.0054  0.2313  0.0427
 1094YOPC   C3A12583   3.331  16.707   8.092  0.1848  0.2358  0.2792
 1094YOPC   C4A12584   3.072  16.415   8.425  0.1370  0.2473  0.0456
 1094YOPC   C1B12585   3.325  16.441   7.637  0.2162 -0.3698 -0.0568
 1094YOPC   C2B12586   3.252  16.276   7.980 -0.3252 -0.3483  0.0619
 1094YOPC   D3B12587   3.498  16.256   8.283  0.0857  0.1932  0.0997
 1094YOPC   C4B12588   3.871  16.593   8.395  0.0423  0.1298  0.0075
 1095YOPC   NC312589   5.672   7.366   5.615 -0.1986 -0.2587 -0.0644
 1095YOPC   PO412590   6.056   7.318   5.982 -0.1853  0.1800  0.0477
 1095YOPC   GL112591   5.980   7.221   6.429 -0.1678  0.1093 -0.2425
 1095YOPC   GL212592   5.741   7.456   6.615  0.0260 -0.0659 -0.0008
 1095YOPC   C1A12593   6.141   7.017   6.814  0.0926 -0.1512  0.2702
 1095YOPC   D2A12594   6.374   7.018   7.168 -0.4093 -0.0097 -0.2693
 1095YOPC   C3A12595   6.300   6.999   7.613  0.0006  0.3927 -0.1433
 1095YOPC   C4A12596   5.968   7.077   7.928  0.0151  0.3081 -0.0656
 1095YOPC   C1B12597   5.669   7.109   6.914 -0.2219  0.0359 -0.3043
 1095YOPC   C2B12598   5.489   6.813   7.042  0.2124  0.0528  0.1453
 1095YOPC   D3B12599   5.410   6.627   7.435 -0.0390 -0.1472  0.0366
 1095YOPC   C4B12600   5.600   6.698   7.931 -0.1088  0.3734  0.4718
 1096YOPC   NC312601  12.545  11.738   5.669 -0.3476  0.0587  0.0541
 1096YOPC   PO412602  13.018  11.827   5.716  0.0160 -0.0483  0.0033
 1096YOPC   GL112603  13.049  11.714   6.155  0.2324  0.3337  0.2618
 1096YOPC   GL212604  12.745  11.600   6.311 -0.4008  0.0620 -0.2224
 1096YOPC   C1A12605  13.188  11.488   6.507  0.2547  0.3624  0.0698
 1096YOPC   D2A12606  13.156  11.241   6.889 -0.1376 -0.0996  0.2506
 1096YOPC   C3A12607  13.398  11.289   7.170 -0.0521 -0.0311 -0.1243
 1096YOPC   C4A12608  13.371  11.409   7.556  0.5346 -0.0910 -0.3474
 1096YOPC   C1B12609  12.684  11.416   6.760 -0.2457 -0.1043 -0.0976
 1096YOPC   C2B12610  12.709  11.218   7.194 -0.0237  0.1550  0.0056
 1096YOPC   D3B12611  12.902  11.226   7.470 -0.4040 -0.0520 -0.0156
 1096YOPC   C4B12612  12.960  11.199   7.976 -0.1310  0.0651  0.0521
 1097YOPC   NC312613  17.333   7.851   7.111 -0.2831  0.4842 -0.2954
 1097YOPC   PO412614  17.099   8.135   7.206 -0.0488 -0.1096  0.4333
 1097YOPC   GL112615  17.018   7.782   7.457 -0.2642 -0.0295 -0.3278
 1097YOPC   GL212616  17.365   7.632   7.621  0.1265  0.2345 -0.0492
 1097YOPC   C1A12617  16.878   7.766   7.866 -0.3769  0.2087 -0.1667
 1097YOPC   D2A12618  16.492   7.612   8.075  0.0337  0.0081  0.0070
 1097YOPC   C3A12619  16.484   7.466   8.484  0.1446 -0.0450  0.1604
 1097YOPC   C4A12620  16.798   7.497   8.869  0.2839 -0.0976  0.1827
 1097YOPC   C1B12621  17.396   7.686   8.084 -0.1520 -0.0214  0.2841
 1097YOPC   C2B12622  17.519   7.932   8.448 -0.0475  0.0891  0.0147
 1097YOPC   D3B12623  17.420   8.398   8.547 -0.0446  0.1788 -0.1590
 1097YOPC   C4B12624  16.988   8.512   8.704 -0.2405  0.2601 -0.1261
 1098YOPC   NC312625  15.895  15.236   5.937  0.0144 -0.3726  0.0005
 1098YOPC   PO412626  15.354  15.447   5.929 -0.0101 -0.0778 -0.1108
 1098YOPC   GL112627  15.571  15.275   6.353 -0.0615  0.0573  0.1479
 1098YOPC   GL212628  15.826  15.217   6.499  0.0605 -0.1838 -0.0060
 1098YOPC   C1A12629  15.226  15.055   6.671 -0.1973  0.2063  0.0967
 1098YOPC   D2A12630  15.318  15.060   7.132 -0.2026 -0.5526 -0.1593
 1098YOPC   C3A12631  15.325  14.973   7.515  0.0724 -0.2567 -0.2570
 1098YOPC   C4A12632  15.221  15.243   7.905  0.1159  0.0651  0.1227
 1098YOPC   C1B12633  15.693  15.356   6.927  0.0388 -0.1040 -0.1633
 1098YOPC   C2B12634  15.661  15.414   7.394 -0.1638 -0.1072 -0.4309
 1098YOPC   D3B12635  15.734  15.212   7.806 -0.2934  0.2766 -0.0053
 1098YOPC   C4B12636  15.532  14.841   7.995  0.1710 -0.0774  0.0589
 1099YOPC   NC312637  14.886  10.735   6.268 -0.2794 -0.1898 -0.2399
 1099YOPC   PO412638  15.294  10.704   6.224 -0.1365  0.2393 -0.0586
 1099YOPC   GL112639  15.196  10.827   6.627 -0.3994 -0.0370  0.3372
 1099YOPC   GL212640  14.993  11.106   6.698 -0.2213  0.1878 -0.3610
 1099YOPC   C1A12641  15.428  11.181   6.866  0.0431 -0.0708 -0.0701
 1099YOPC   D2A12642  15.743  11.265   7.170 -0.0477 -0.0385  0.2890
 1099YOPC   C3A12643  15.752  11.275   7.601  0.1090 -0.0696 -0.0538
 1099YOPC   C4A12644  15.807  11.371   8.011 -0.0130 -0.2743 -0.1905
 1099YOPC   C1B12645  14.964  11.343   7.134 -0.0349  0.0624  0.0260
 1099YOPC   C2B12646  14.761  11.633   7.338  0.0637  0.0099  0.1274
 1099YOPC   D3B12647  14.772  11.614   7.797  0.0522  0.0327  0.0648
 1099YOPC   C4B12648  14.867  11.540   8.125  0.1394 -0.0902  0.0064
 1100YOPC   NC312649   0.498   6.946   6.959 -0.1920  0.1480  0.0057
 1100YOPC   PO412650   0.921   6.981   6.734  0.0037  0.1629  0.0715
 1100YOPC   GL112651   1.193   7.066   7.082 -0.2452 -0.0681 -0.0784
 1100YOPC   GL212652   0.961   7.153   7.312  0.1719  0.4596 -0.2326
 1100YOPC   C1A12653   1.472   7.368   7.390  0.0808 -0.0567 -0.2687
 1100YOPC   D2A12654   1.567   7.500   7.828 -0.0236  0.0610 -0.0558
 1100YOPC   C3A12655   1.756   7.592   8.100 -0.0097 -0.0758 -0.0565
 1100YOPC   C4A12656   1.958   7.702   8.480 -0.2885  0.1104 -0.1658
 1100YOPC   C1B12657   1.105   7.350   7.697 -0.0582  0.3814 -0.0244
 1100YOPC   C2B12658   1.072   7.527   8.098 -0.2049  0.1063  0.0780
 1100YOPC   D3B12659   1.114   7.249   8.510  0.0661 -0.0174 -0.0677
 1100YOPC   C4B12660   1.176   7.399   8.924  0.0790 -0.0667 -0.4311
 1101YOPC   NC312661   0.510  15.448   6.286  0.1686 -0.6049  0.1249
 1101YOPC   PO412662   0.138  15.555   6.507 -0.1881  0.1370 -0.0861
 1101YOPC   GL112663   0.056  15.551   6.954  0.2283 -0.1929  0.0845
 1101YOPC   GL212664   0.040  15.242   7.054  0.0153  0.2965 -0.2303
 1101YOPC   C1A12665  -0.310  15.456   7.331 -0.0363  0.0592  0.1070
 1101YOPC   D2A12666  -0.519  15.601   7.566  0.1126 -0.0205 -0.0069
 1101YOPC   C3A12667  -0.595  15.991   7.432 -0.0127  0.1495 -0.1627
 1101YOPC   C4A12668  -0.377  16.345   7.456 -0.3659 -0.1088 -0.2163
 1101YOPC   C1B12669  -0.415  15.085   7.041  0.0091  0.0661  0.1414
 1101YOPC   C2B12670  -0.603  15.072   7.424  0.0453 -0.3234 -0.2044
 1101YOPC   D3B12671  -0.409  15.096   7.752  0.1375 -0.1459  0.0282
 1101YOPC   C4B12672  -0.391  15.361   8.128 -0.1278 -0.2288  0.3208
 1102YOPC   NC312673  16.170  12.004   5.686  0.4856  0.3234  0.1625
 1102YOPC   PO412674  16.105  12.311   5.875  0.4915 -0.0839 -0.0283
 1102YOPC   GL112675  16.003  11.970   6.156 -0.1337 -0.0733 -0.0486
 1102YOPC   GL212676  16.316  11.938   6.419  0.0785 -0.3915 -0.0923
 1102YOPC   C1A12677  15.832  11.716   6.345 -0.0547  0.0974  0.0607
 1102YOPC   D2A12678  15.732  11.617   6.796  0.2120  0.1513 -0.3586
 1102YOPC   C3A12679  15.843  11.702   7.302  0.3342 -0.2784  0.3688
 1102YOPC   C4A12680  15.639  11.761   7.723  0.2044 -0.0448  0.0070
 1102YOPC   C1B12681  16.574  11.978   6.791  0.1675 -0.0446  0.2182
 1102YOPC   C2B12682  16.546  11.962   7.203 -0.0099 -0.0796 -0.2011
 1102YOPC   D3B12683  16.635  11.542   7.533  0.3475  0.0712 -0.1000
 1102YOPC   C4B12684  16.420  11.321   7.902 -0.1864 -0.0554  0.1247
 1103YOPC   NC312685  15.111   6.332   6.900  0.1817  0.0862 -0.3098
 1103YOPC   PO412686  15.549   6.266   6.796  0.0896  0.2034  0.0806
 1103YOPC   GL112687  15.562   6.453   7.126 -0.0497 -0.2501 -0.1282
 1103YOPC   GL212688  15.206   6.728   7.166  0.0374 -0.1130 -0.0222
 1103YOPC   C1A12689  15.679   6.446   7.579  0.2382  0.2517 -0.3989
 1103YOPC   D2A12690  15.872   6.342   7.905  0.1117 -0.1314  0.3105
 1103YOPC   C3A12691  15.560   6.378   8.267  0.1912 -0.0769  0.1104
 1103YOPC   C4A12692  15.569   6.100   8.388  0.0244  0.0761 -0.2897
 1103YOPC   C1B12693  15.309   6.779   7.561 -0.0870 -0.0842 -0.1209
 1103YOPC   C2B12694  15.448   6.737   7.897  0.1294 -0.2575  0.1204
 1103YOPC   D3B12695  15.230   6.851   8.280 -0.1998  0.0246 -0.1488
 1103YOPC   C4B12696  15.055   6.952   8.580 -0.0127 -0.3781  0.3805
 1104YOPC   NC312697  11.995   1.078   5.807 -0.3101 -0.2640  0.2102
 1104YOPC   PO412698  12.367   1.031   6.234  0.2224 -0.0892 -0.0164
 1104YOPC   GL112699  12.538   0.829   6.488  0.1511 -0.0047  0.0844
 1104YOPC   GL212700  12.174   0.671   6.541  0.1557 -0.0738  0.2544
 1104YOPC   C1A12701  12.712   0.703   6.816  0.4240 -0.1083 -0.3369
 1104YOPC   D2A12702  12.626   0.667   7.304 -0.0272  0.0999 -0.1586
 1104YOPC   C3A12703  12.534   0.898   7.642 -0.0059 -0.1428  0.1486
 1104YOPC   C4A12704  12.338   1.043   7.928  0.1176  0.0285 -0.1869
 1104YOPC   C1B12705  12.378   0.344   6.767  0.0355 -0.1147  0.1415
 1104YOPC   C2B12706  12.284   0.199   7.220  0.2217 -0.0420  0.0443
 1104YOPC   D3B12707  12.233   0.423   7.649 -0.1686  0.1238  0.1612
 1104YOPC   C4B12708  12.127   0.626   7.978 -0.2018 -0.2343 -0.2309
 1105YOPC   NC312709  11.240   0.553   5.592  0.2013 -0.1446  0.1161
 1105YOPC   PO412710  11.407   0.525   6.050  0.0262  0.0688 -0.4436
 1105YOPC   GL112711  11.560   0.473   6.450 -0.0027 -0.0312  0.1322
 1105YOPC   GL212712  11.450   0.284   6.609 -0.1488  0.1046  0.2656
 1105YOPC   C1A12713  11.736   0.776   6.745  0.0615  0.0678 -0.2416
 1105YOPC   D2A12714  11.325   1.032   6.810 -0.0065  0.0726 -0.1045
 1105YOPC   C3A12715  11.293   1.142   7.237 -0.0132 -0.1100  0.3312
 1105YOPC   C4A12716  11.434   1.230   7.645 -0.3996  0.0607  0.1290
 1105YOPC   C1B12717  11.512   0.009   6.976  0.1389  0.3074  0.1176
 1105YOPC   C2B12718  11.877  -0.174   7.138 -0.0102  0.1856 -0.1819
 1105YOPC   D3B12719  11.865  -0.014   7.600  0.0936  0.1678 -0.1388
 1105YOPC   C4B12720  11.716  -0.104   7.942  0.2682  0.0087  0.2662
 1106YOPC   NC312721   3.204   2.077   6.557  0.3677 -0.0135  0.2960
 1106YOPC   PO412722   3.643   2.284   6.274  0.0949 -0.0132 -0.1252
 1106YOPC   GL112723   3.651   2.266   6.790 -0.0797  0.0244  0.1434
 1106YOPC   GL212724   3.841   2.394   6.963  0.1772 -0.5228  0.0120
 1106YOPC   C1A12725   3.651   1.947   7.066  0.4024  0.2228 -0.0896
 1106YOPC   D2A12726   3.393   1.723   7.351 -0.4060 -0.0462 -0.1156
 1106YOPC   C3A12727   3.332   1.625   7.736  0.1556 -0.1025  0.0199
 1106YOPC   C4A12728   3.155   1.218   7.808 -0.1394 -0.2516  0.1763
 1106YOPC   C1B12729   3.690   2.429   7.386 -0.0101  0.0257  0.1460
 1106YOPC   C2B12730   3.935   2.411   7.696 -0.4703 -0.1320 -0.1638
 1106YOPC   D3B12731   3.631   2.434   8.041  0.1363 -0.0626  0.0849
 1106YOPC   C4B12732   3.232   2.474   8.293 -0.2358 -0.0121  0.0122
 1107YOPC   NC312733   4.251  12.752   6.144 -0.1108  0.2260 -0.1936
 1107YOPC   PO412734   3.901  12.438   6.010  0.1062  0.0633  0.1321
 1107YOPC   GL112735   3.871  12.451   6.483  0.0550  0.1267 -0.1937
 1107YOPC   GL212736   3.946  12.819   6.554 -0.0237 -0.2653 -0.0545
 1107YOPC   C1A12737   3.803  12.554   6.913 -0.1309  0.2330  0.2880
 1107YOPC   D2A12738   3.934  12.758   7.276 -0.3035 -0.0062  0.0092
 1107YOPC   C3A12739   3.864  12.922   7.639  0.1027  0.0244  0.1105
 1107YOPC   C4A12740   3.740  13.183   8.023 -0.2767 -0.0952 -0.1979
 1107YOPC   C1B12741   4.058  13.023   6.900 -0.0122  0.2907  0.4120
 1107YOPC   C2B12742   4.097  13.310   7.279  0.1619  0.1168 -0.1265
 1107YOPC   D3B12743   4.458  13.418   7.488 -0.0787  0.2713  0.1157
 1107YOPC   C4B12744   4.766  13.582   7.732 -0.0378  0.1094 -0.0954
 1108YOPC   NC312745   4.069   7.083   6.449 -0.0374  0.1244  0.0706
 1108YOPC   PO412746   3.663   6.947   6.597 -0.2741 -0.1850  0.0438
 1108YOPC   GL112747   3.853   6.820   6.947 -0.1732  0.2240 -0.2222
 1108YOPC   GL212748   4.053   6.989   6.976 -0.2510 -0.1613  0.2857
 1108YOPC   C1A12749   4.152   6.692   7.377 -0.0056  0.0349 -0.1906
 1108YOPC   D2A12750   4.474   6.531   7.494  0.2870  0.0486 -0.1583
 1108YOPC   C3A12751   4.531   6.658   7.960  0.3250  0.3280  0.0265
 1108YOPC   C4A12752   4.791   6.547   8.400  0.1335  0.0904 -0.1083
 1108YOPC   C1B12753   4.505   7.042   7.232  0.3361  0.4028  0.4118
 1108YOPC   C2B12754   4.729   7.232   7.419 -0.0992 -0.1005 -0.1325
 1108YOPC   D3B12755   4.530   7.544   7.715 -0.3766 -0.1405  0.0612
 1108YOPC   C4B12756   4.338   7.557   8.093  0.0448 -0.0710 -0.1403
 1109YOPC   NC312757  15.518   4.092   6.510 -0.2224 -0.0721  0.0167
 1109YOPC   PO412758  15.926   3.891   6.595 -0.3910 -0.2343 -0.3028
 1109YOPC   GL112759  15.922   4.011   7.010 -0.1492 -0.0142  0.1404
 1109YOPC   GL212760  16.149   4.275   6.933  0.0196 -0.0664 -0.2307
 1109YOPC   C1A12761  15.966   4.409   7.369  0.2009  0.3676 -0.0569
 1109YOPC   D2A12762  16.009   4.407   7.719  0.0175 -0.0085 -0.1502
 1109YOPC   C3A12763  16.007   4.341   8.124  0.0033  0.1600 -0.1003
 1109YOPC   C4A12764  16.022   4.218   8.673  0.1756 -0.0329  0.1246
 1109YOPC   C1B12765  16.443   4.168   7.315  0.1723 -0.2106  0.3800
 1109YOPC   C2B12766  16.479   4.489   7.591 -0.3944  0.1335  0.2720
 1109YOPC   D3B12767  16.459   4.506   7.960  0.0952 -0.1176 -0.1638
 1109YOPC   C4B12768  16.431   4.389   8.366  0.1302  0.1025 -0.0650
 1110YOPC   NC312769   1.535  17.158   6.290  0.0366  0.2153 -0.0494
 1110YOPC   PO412770   1.246  16.945   6.487 -0.1998 -0.0777  0.0821
 1110YOPC   GL112771   1.385  17.089   6.865 -0.1636  0.0572 -0.0015
 1110YOPC   GL212772   1.691  17.290   6.758  0.2688 -0.1532  0.0588
 1110YOPC   C1A12773   1.459  17.328   7.262  0.2583  0.1659 -0.0053
 1110YOPC   D2A12774   1.422  17.610   7.446 -0.0700 -0.0954  0.1890
 1110YOPC   C3A12775   1.419  17.416   7.853  0.0204 -0.2953 -0.4066
 1110YOPC   C4A12776   1.282  17.504   8.199 -0.1276  0.2270 -0.0209
 1110YOPC   C1B12777   1.689  17.716   6.955  0.0593  0.2894 -0.0795
 1110YOPC   C2B12778   1.618  18.052   7.149  0.1620  0.1868  0.0326
 1110YOPC   D3B12779   1.209  18.084   7.332  0.0650 -0.2761  0.0579
 1110YOPC   C4B12780   0.958  17.862   7.419  0.0751 -0.3303 -0.2686
 1111YOPC   NC312781  17.258  14.256   5.829 -0.2477 -0.0145 -0.0322
 1111YOPC   PO412782  17.243  13.801   5.731 -0.2393 -0.1712  0.0797
 1111YOPC   GL112783  17.223  13.804   6.153  0.1011  0.0436 -0.4311
 1111YOPC   GL212784  17.074  13.579   6.457  0.2225 -0.2528  0.1488
 1111YOPC   C1A12785  17.449  13.908   6.621  0.2543 -0.0445  0.0312
 1111YOPC   D2A12786  17.610  14.233   6.799  0.1672 -0.2980 -0.3487
 1111YOPC   C3A12787  17.668  14.317   7.222  0.2898  0.1051 -0.1222
 1111YOPC   C4A12788  17.746  14.601   7.522 -0.0994  0.1394 -0.1244
 1111YOPC   C1B12789  16.999  13.747   6.872  0.0931  0.0255 -0.1901
 1111YOPC   C2B12790  17.070  13.648   7.247  0.1057 -0.1348 -0.2766
 1111YOPC   D3B12791  16.964  13.741   7.604  0.1596 -0.1919  0.1724
 1111YOPC   C4B12792  17.052  13.608   7.983 -0.0261  0.1295  0.0037
 1112YOPC   NC312793  14.698  11.211   5.709  0.0093 -0.2015  0.1341
 1112YOPC   PO412794  14.563  10.977   5.934  0.1679  0.0506 -0.0167
 1112YOPC   GL112795  14.688  11.196   6.271  0.0731  0.0763 -0.1756
 1112YOPC   GL212796  14.860  11.485   6.395 -0.1052  0.0195  0.1557
 1112YOPC   C1A12797  14.525  11.269   6.732  0.0458 -0.1737  0.3058
 1112YOPC   D2A12798  14.560  11.050   7.071  0.0576 -0.2573  0.0819
 1112YOPC   C3A12799  14.613  11.181   7.498  0.0835 -0.4643 -0.2893
 1112YOPC   C4A12800  14.411  11.217   7.830  0.3427  0.0981  0.0143
 1112YOPC   C1B12801  15.107  11.624   6.780 -0.3092  0.0132  0.1601
 1112YOPC   C2B12802  15.329  11.684   7.147 -0.3251 -0.0448  0.0740
 1112YOPC   D3B12803  15.186  11.465   7.510 -0.0050  0.0388  0.1454
 1112YOPC   C4B12804  15.288  11.472   7.923 -0.2729  0.0701 -0.2580
 1113YOPC   NC312805   9.702   9.968   6.197  0.0112  0.0035  0.2494
 1113YOPC   PO412806  10.114  10.171   6.200  0.0195  0.1477  0.2475
 1113YOPC   GL112807  10.022   9.989   6.593 -0.0470  0.2043 -0.2005
 1113YOPC   GL212808   9.961  10.293   6.786 -0.1003  0.3462 -0.2347
 1113YOPC   C1A12809  10.137   9.735   6.917 -0.2813 -0.3036  0.1065
 1113YOPC   D2A12810  10.461   9.834   7.177 -0.1019  0.1304  0.3856
 1113YOPC   C3A12811  10.533   9.817   7.515 -0.0725  0.1706  0.0404
 1113YOPC   C4A12812  10.775   9.711   7.876  0.2198 -0.1561 -0.0944
 1113YOPC   C1B12813  10.037  10.118   7.170  0.0091  0.0490 -0.2010
 1113YOPC   C2B12814  10.040   9.861   7.432 -0.0659  0.3533 -0.0769
 1113YOPC   D3B12815  10.104   9.988   7.742 -0.1811  0.2470  0.1635
 1113YOPC   C4B12816  10.340   9.902   8.110 -0.3106  0.1193  0.0738
 1114YOPC   NC312817   1.430   9.276   6.181 -0.1399  0.0264  0.2460
 1114YOPC   PO412818   0.951   9.243   6.244  0.0854  0.0380  0.1186
 1114YOPC   GL112819   1.148   9.492   6.536  0.0461 -0.0944  0.1649
 1114YOPC   GL212820   1.469   9.568   6.539  0.1626 -0.1318 -0.0434
 1114YOPC   C1A12821   0.977   9.709   6.918 -0.1178  0.0578  0.2405
 1114YOPC   D2A12822   1.226   9.868   7.233  0.0265 -0.0208 -0.1109
 1114YOPC   C3A12823   1.136   9.801   7.660 -0.3001 -0.0402 -0.4161
 1114YOPC   C4A12824   1.045   9.819   8.070 -0.0818 -0.2487 -0.1924
 1114YOPC   C1B12825   1.656   9.672   6.962 -0.1421  0.2137 -0.0453
 1114YOPC   C2B12826   1.667   9.802   7.475  0.3018  0.0658 -0.0393
 1114YOPC   D3B12827   1.515   9.912   8.005  0.1433  0.3399  0.1039
 1114YOPC   C4B12828   1.773  10.074   8.368  0.2589 -0.0252  0.2444
 1115YOPC   NC312829   8.188  10.794   6.210 -0.1787 -0.2436 -0.1217
 1115YOPC   PO412830   8.559  10.944   6.393  0.1602  0.1660 -0.1670
 1115YOPC   GL112831   8.760  11.196   6.616  0.0181 -0.0011 -0.3142
 1115YOPC   GL212832   8.660  11.455   6.814 -0.2408  0.0602  0.1071
 1115YOPC   C1A12833   9.085  11.179   6.948  0.3914 -0.0574  0.1194
 1115YOPC   D2A12834   9.273  11.321   7.335  0.0290 -0.0239 -0.2092
 1115YOPC   C3A12835   9.661  11.599   7.359 -0.1143 -0.2022 -0.0466
 1115YOPC   C4A12836   9.917  11.821   7.454  0.2106  0.1040  0.2449
 1115YOPC   C1B12837   8.742  11.349   7.214  0.0111  0.1547 -0.0423
 1115YOPC   C2B12838   8.855  11.312   7.713  0.0733  0.0003 -0.2329
 1115YOPC   D3B12839   9.216  11.550   7.788  0.2433 -0.0322 -0.1582
 1115YOPC   C4B12840   9.538  11.777   7.878 -0.1757  0.0708 -0.1950
 1116YOPC   NC312841  10.296   0.390   5.941 -0.1775  0.0788 -0.2784
 1116YOPC   PO412842  10.531   0.036   5.775 -0.0712  0.3100 -0.0227
 1116YOPC   GL112843  10.670   0.272   6.275 -0.0718  0.0392  0.3277
 1116YOPC   GL212844  10.984   0.489   6.389  0.1149 -0.0091  0.2075
 1116YOPC   C1A12845  10.609   0.342   6.669  0.0491  0.1202  0.1374
 1116YOPC   D2A12846  10.537   0.581   7.137 -0.0358 -0.0619  0.1724
 1116YOPC   C3A12847  10.493   0.561   7.495 -0.1203  0.0188  0.1411
 1116YOPC   C4A12848  10.262   0.532   7.815  0.0284 -0.1250 -0.1507
 1116YOPC   C1B12849  11.058   0.578   6.717  0.2357  0.4938  0.0100
 1116YOPC   C2B12850  11.357   0.585   7.073 -0.1879  0.0515 -0.2246
 1116YOPC   D3B12851  11.216   0.779   7.554  0.2050 -0.0737  0.0552
 1116YOPC   C4B12852  11.159   0.919   8.028  0.0211  0.0272 -0.0526
 1117YOPC   NC312853   3.958   9.488   6.346 -0.0060  0.2563 -0.0255
 1117YOPC   PO412854   3.910   8.999   6.391  0.0448 -0.0406 -0.2529
 1117YOPC   GL112855   3.508   8.863   6.730 -0.0513  0.2504  0.1243
 1117YOPC   GL212856   3.441   8.574   6.847  0.2672  0.2125 -0.0460
 1117YOPC   C1A12857   3.159   9.036   6.964  0.0425 -0.0291  0.1265
 1117YOPC   D2A12858   2.848   9.079   7.249  0.0607 -0.1253 -0.1785
 1117YOPC   C3A12859   2.819   9.101   7.598 -0.0403 -0.0504 -0.1748
 1117YOPC   C4A12860   2.889   9.397   7.888  0.1223  0.0549 -0.4243
 1117YOPC   C1B12861   3.504   8.664   7.220 -0.0917  0.0379  0.0289
 1117YOPC   C2B12862   3.310   8.917   7.423 -0.0152 -0.1708  0.1814
 1117YOPC   D3B12863   3.297   9.039   7.769 -0.2761 -0.0845 -0.0902
 1117YOPC   C4B12864   3.343   8.987   8.246 -0.2160 -0.0469 -0.1853
 1118YOPC   NC312865   6.164  13.064   5.970 -0.0070  0.2632  0.1869
 1118YOPC   PO412866   6.546  12.820   5.838 -0.4305  0.1505  0.2204
 1118YOPC   GL112867   6.363  12.666   6.225 -0.1579 -0.0490 -0.0326
 1118YOPC   GL212868   6.636  12.702   6.410  0.1670  0.0998  0.0864
 1118YOPC   C1A12869   6.339  13.137   6.535 -0.1286  0.1431 -0.0814
 1118YOPC   D2A12870   6.069  13.356   6.791  0.0389 -0.0983 -0.1243
 1118YOPC   C3A12871   6.174  13.428   7.279  0.2051  0.3096  0.0717
 1118YOPC   C4A12872   6.390  13.529   7.642 -0.0903  0.1260  0.0658
 1118YOPC   C1B12873   6.622  12.714   6.765 -0.3301 -0.0817  0.1641
 1118YOPC   C2B12874   6.486  13.066   7.013 -0.0470 -0.1866  0.0116
 1118YOPC   D3B12875   6.559  13.094   7.434 -0.2026  0.2463 -0.0893
 1118YOPC   C4B12876   6.671  13.161   7.840 -0.2595 -0.1918  0.3555
 1119YOPC   NC312877   0.265  11.199   5.726  0.1206  0.1371  0.0202
 1119YOPC   PO412878   0.549  11.223   5.495 -0.1257  0.0228  0.4910
 1119YOPC   GL112879   0.729  11.027   5.899 -0.0783  0.0384  0.0782
 1119YOPC   GL212880   0.560  11.202   6.139 -0.1826  0.0132  0.0259
 1119YOPC   C1A12881   0.905  10.888   6.328 -0.3136 -0.1342  0.0819
 1119YOPC   D2A12882   0.968  10.466   6.497 -0.2097 -0.1524  0.1422
 1119YOPC   C3A12883   1.142  10.075   6.498 -0.2430  0.1737 -0.3208
 1119YOPC   C4A12884   1.601  10.068   6.597 -0.0702 -0.1448 -0.0716
 1119YOPC   C1B12885   0.497  11.229   6.599  0.1269 -0.1362 -0.1055
 1119YOPC   C2B12886   0.657  11.397   6.995 -0.2176  0.1431 -0.0597
 1119YOPC   D3B12887   0.413  11.306   7.408  0.0375  0.2495  0.2660
 1119YOPC   C4B12888   0.396  11.474   7.717 -0.2670  0.1783  0.1765
 1120YOPC   NC312889   5.655   9.969   6.428  0.0357  0.0673 -0.4542
 1120YOPC   PO412890   5.270  10.067   6.277  0.2290  0.0843  0.1868
 1120YOPC   GL112891   5.262  10.176   6.748 -0.1680  0.3490  0.0654
 1120YOPC   GL212892   5.557  10.121   6.943 -0.0102 -0.1085  0.0690
 1120YOPC   C1A12893   5.094   9.872   7.090 -0.1278  0.1019  0.1571
 1120YOPC   D2A12894   5.057   9.733   7.464 -0.5441 -0.0217 -0.1692
 1120YOPC   C3A12895   5.117   9.676   7.931 -0.0837  0.3060  0.2579
 1120YOPC   C4A12896   5.100   9.660   8.396 -0.1368 -0.5130  0.0063
 1120YOPC   C1B12897   5.426  10.075   7.385  0.1516 -0.0274 -0.0095
 1120YOPC   C2B12898   5.441  10.206   7.761  0.2162  0.1183 -0.0503
 1120YOPC   D3B12899   5.484   9.982   8.059  0.0225  0.1535  0.0445
 1120YOPC   C4B12900   5.553   9.550   8.236 -0.0372 -0.0825  0.1877
 1121YOPC   NC312901  12.727  17.976   6.253  0.0896 -0.0628 -0.1792
 1121YOPC   PO412902  12.735  17.588   6.402  0.1560  0.0410  0.0016
 1121YOPC   GL112903  12.676  17.482   6.800 -0.0802 -0.0732 -0.2213
 1121YOPC   GL212904  12.345  17.291   6.853  0.1984 -0.0221 -0.2634
 1121YOPC   C1A12905  12.606  17.418   7.236 -0.0701  0.0500 -0.3416
 1121YOPC   D2A12906  12.681  17.533   7.649 -0.1616 -0.0755 -0.4158
 1121YOPC   C3A12907  13.031  17.553   7.891  0.0598 -0.1940 -0.0236
 1121YOPC   C4A12908  13.231  17.922   7.911 -0.0898 -0.0870 -0.1394
 1121YOPC   C1B12909  12.357  16.949   7.183 -0.0989  0.1908 -0.0070
 1121YOPC   C2B12910  12.349  16.687   7.472 -0.1456  0.2927 -0.2524
 1121YOPC   D3B12911  12.284  16.849   7.854 -0.0842  0.0980  0.0083
 1121YOPC   C4B12912  12.314  16.924   8.281  0.2192 -0.3575  0.1351
 1122YOPC   NC312913   4.027   4.970   6.070 -0.1487 -0.0490 -0.0418
 1122YOPC   PO412914   3.679   4.855   6.511 -0.0991 -0.2326  0.3054
 1122YOPC   GL112915   3.858   4.851   6.938 -0.4793 -0.2517 -0.5398
 1122YOPC   GL212916   3.923   5.211   6.990  0.1466  0.0938 -0.3869
 1122YOPC   C1A12917   4.133   4.634   7.225 -0.3889 -0.0638  0.2291
 1122YOPC   D2A12918   4.080   4.389   7.642  0.0432 -0.0067 -0.2738
 1122YOPC   C3A12919   4.393   4.395   7.937 -0.3382 -0.1234  0.1079
 1122YOPC   C4A12920   4.529   4.477   8.352 -0.0639 -0.0690  0.0188
 1122YOPC   C1B12921   4.279   5.220   7.137 -0.2462 -0.1327 -0.2026
 1122YOPC   C2B12922   4.539   5.272   7.472 -0.0338 -0.0125 -0.0013
 1122YOPC   D3B12923   4.478   5.347   7.819  0.2097 -0.2016  0.0364
 1122YOPC   C4B12924   4.163   5.513   8.127  0.0204 -0.0042  0.0040
 1123YOPC   NC312925  13.088  16.520   6.316  0.0273  0.2177  0.4433
 1123YOPC   PO412926  13.319  16.362   6.636  0.1854 -0.0082 -0.3038
 1123YOPC   GL112927  13.321  15.930   6.837  0.0780  0.1422  0.1533
 1123YOPC   GL212928  13.530  16.036   7.084 -0.1818  0.0650 -0.1054
 1123YOPC   C1A12929  13.357  15.539   7.160 -0.2703  0.0591  0.0780
 1123YOPC   D2A12930  13.366  15.491   7.629 -0.0384  0.2536 -0.0549
 1123YOPC   C3A12931  13.054  15.710   8.015 -0.0755  0.2310  0.3852
 1123YOPC   C4A12932  12.990  15.392   8.342 -0.3120  0.0606 -0.1034
 1123YOPC   C1B12933  13.484  16.401   7.373 -0.1032  0.0010 -0.1559
 1123YOPC   C2B12934  13.283  16.633   7.604  0.3030 -0.0725  0.0021
 1123YOPC   D3B12935  13.620  16.961   7.773 -0.2375  0.1017  0.3338
 1123YOPC   C4B12936  13.988  17.099   7.730 -0.0780 -0.3107 -0.1686
 1124YOPC   NC312937   0.608   9.624   6.296 -0.0695 -0.3701 -0.0644
 1124YOPC   PO412938   0.250   9.967   6.331  0.1095  0.0459  0.2574
 1124YOPC   GL112939   0.077  10.101   6.749 -0.0405  0.1643 -0.4453
 1124YOPC   GL212940  -0.209  10.034   6.855  0.2989  0.0484  0.0518
 1124YOPC   C1A12941   0.190  10.027   7.152  0.0689 -0.0550  0.0794
 1124YOPC   D2A12942  -0.129   9.990   7.540  0.4772  0.1552  0.1606
 1124YOPC   C3A12943  -0.086   9.992   8.021  0.2087  0.1822 -0.1088
 1124YOPC   C4A12944   0.082   9.996   8.300  0.0589  0.0926  0.1039
 1124YOPC   C1B12945  -0.057   9.562   7.104 -0.4745 -0.1464 -0.0172
 1124YOPC   C2B12946   0.236   9.603   7.428  0.1477  0.1727 -0.0976
 1124YOPC   D3B12947   0.312   9.838   7.706 -0.0924  0.2868  0.0883
 1124YOPC   C4B12948   0.538   9.980   8.075 -0.0255  0.1009  0.1548
 1125YOPC   NC312949   6.285  11.622   6.183  0.5232 -0.3764  0.3424
 1125YOPC   PO412950   6.741  11.665   6.262 -0.0103  0.2317 -0.0369
 1125YOPC   GL112951   6.827  11.751   6.685 -0.1618  0.0473 -0.0016
 1125YOPC   GL212952   6.789  11.478   6.727  0.3164 -0.3467  0.0190
 1125YOPC   C1A12953   6.593  11.858   7.134  0.1284  0.1036 -0.0486
 1125YOPC   D2A12954   6.491  12.168   7.447 -0.0344 -0.1313 -0.2200
 1125YOPC   C3A12955   6.505  12.124   7.881  0.3420 -0.0138  0.0804
 1125YOPC   C4A12956   6.270  12.015   8.234  0.0872  0.0085 -0.1446
 1125YOPC   C1B12957   6.869  11.406   7.140  0.1629  0.1062  0.1148
 1125YOPC   C2B12958   7.056  11.405   7.483 -0.0054 -0.3775  0.1981
 1125YOPC   D3B12959   6.816  11.193   7.862  0.1203  0.2334 -0.0513
 1125YOPC   C4B12960   6.743  10.993   8.120  0.1459  0.0710  0.0222
 1126YOPC   NC312961  11.026   6.547   5.954 -0.1329 -0.1385  0.0555
 1126YOPC   PO412962  10.787   6.371   6.269 -0.0001 -0.1666  0.1051
 1126YOPC   GL112963  10.676   6.385   6.679 -0.4102 -0.0813  0.1704
 1126YOPC   GL212964  10.344   6.481   6.817 -0.4032  0.0672 -0.2368
 1126YOPC   C1A12965  10.647   6.204   7.063 -0.0720 -0.1872  0.2124
 1126YOPC   D2A12966  10.627   5.947   7.418  0.2348  0.1713 -0.1873
 1126YOPC   C3A12967  10.747   6.056   7.854  0.0552  0.0260 -0.1508
 1126YOPC   C4A12968  10.409   5.976   8.220  0.0521 -0.2463 -0.2284
 1126YOPC   C1B12969  10.223   6.361   7.206  0.1421  0.1082  0.0443
 1126YOPC   C2B12970  10.016   6.597   7.567  0.1083  0.2250  0.0551
 1126YOPC   D3B12971   9.992   6.313   8.033 -0.1771  0.1966 -0.0024
 1126YOPC   C4B12972   9.745   6.387   8.421 -0.1296 -0.1100  0.3961
 1127YOPC   NC312973  14.867   2.993   6.606  0.1603 -0.1742  0.2029
 1127YOPC   PO412974  14.675   3.347   6.605  0.2060  0.1958 -0.1959
 1127YOPC   GL112975  14.418   3.417   7.006  0.0509 -0.3330  0.0549
 1127YOPC   GL212976  14.093   3.298   7.118 -0.1869 -0.0064  0.3112
 1127YOPC   C1A12977  14.434   3.535   7.462 -0.0282  0.0250  0.1094
 1127YOPC   D2A12978  14.300   3.594   7.906  0.1441 -0.3626  0.4437
 1127YOPC   C3A12979  14.389   3.920   8.188  0.1842  0.0839 -0.2300
 1127YOPC   C4A12980  14.612   4.027   8.557  0.0391  0.0139  0.0653
 1127YOPC   C1B12981  14.249   3.043   7.421  0.1104  0.2348  0.0088
 1127YOPC   C2B12982  14.324   3.013   7.784  0.0101 -0.3506 -0.0582
 1127YOPC   D3B12983  14.031   3.026   8.006 -0.1311 -0.1455 -0.2455
 1127YOPC   C4B12984  13.835   2.871   8.292 -0.0292 -0.2954  0.2218
 1128YOPC   NC312985  17.695   7.022   7.004  0.0079 -0.0802  0.4246
 1128YOPC   PO412986  17.455   7.371   7.221  0.3676 -0.3188  0.0368
 1128YOPC   GL112987  17.383   7.130   7.604  0.2720  0.0934  0.0324
 1128YOPC   GL212988  17.581   6.824   7.546 -0.0261 -0.0602  0.0391
 1128YOPC   C1A12989  17.250   7.201   7.892  0.2900 -0.0458  0.0211
 1128YOPC   D2A12990  16.979   7.363   8.186 -0.0041 -0.2373  0.1095
 1128YOPC   C3A12991  17.224   7.471   8.565 -0.0912  0.1081  0.0627
 1128YOPC   C4A12992  17.267   7.114   8.876  0.0550 -0.0565 -0.2294
 1128YOPC   C1B12993  17.609   6.901   7.974 -0.1169  0.0166 -0.1573
 1128YOPC   C2B12994  17.690   6.709   8.356  0.1005  0.2559 -0.0129
 1128YOPC   D3B12995  17.698   6.931   8.693 -0.1822  0.0577  0.3105
 1128YOPC   C4B12996  18.076   6.953   9.109 -0.1505  0.0136 -0.0997
 1129YOPC   NC312997   2.673  14.855   6.383  0.3198  0.3395 -0.0368
 1129YOPC   PO412998   2.812  15.260   6.352  0.1682  0.0108 -0.1527
 1129YOPC   GL112999   2.882  15.256   6.793 -0.0481  0.0628  0.2327
 1129YOPC   GL213000   3.045  15.431   6.954 -0.1383 -0.2752  0.2164
 1129YOPC   C1A13001   2.961  14.917   7.170 -0.1812  0.1617 -0.0074
 1129YOPC   D2A13002   3.256  15.010   7.552  0.0437  0.1134  0.0852
 1129YOPC   C3A13003   3.144  14.897   7.888  0.2605  0.1404 -0.0075
 1129YOPC   C4A13004   3.131  14.491   8.076 -0.0776  0.2586  0.1420
 1129YOPC   C1B13005   2.973  15.403   7.399 -0.2552 -0.0184 -0.0577
 1129YOPC   C2B13006   3.017  15.532   7.736 -0.2103 -0.2081  0.0192
 1129YOPC   D3B13007   3.015  15.310   8.078 -0.4710  0.1479 -0.1416
 1129YOPC   C4B13008   2.867  15.516   8.486  0.1152  0.1426  0.0394
 1130YOPC   NC313009   9.867  14.593   5.970  0.1265 -0.2156 -0.1585
 1130YOPC   PO413010   9.452  14.824   6.015 -0.1368  0.1062  0.1624
 1130YOPC   GL113011   9.673  14.720   6.383 -0.1537  0.0283  0.2421
 1130YOPC   GL213012   9.881  15.020   6.346 -0.0517  0.0159  0.3209
 1130YOPC   C1A13013   9.718  14.817   6.825  0.3876  0.0254 -0.1864
 1130YOPC   D2A13014   9.624  14.752   7.284 -0.0751  0.1726  0.1035
 1130YOPC   C3A13015   9.956  14.954   7.660 -0.2133  0.1207  0.2052
 1130YOPC   C4A13016  10.303  15.107   7.951  0.0594  0.1438 -0.0928
 1130YOPC   C1B13017  10.233  14.910   6.653 -0.1445 -0.0201  0.0902
 1130YOPC   C2B13018  10.702  14.778   6.805  0.1955 -0.1265  0.1939
 1130YOPC   D3B13019  10.776  14.610   7.189  0.1531  0.0397 -0.2084
 1130YOPC   C4B13020  10.889  14.457   7.599  0.0115  0.0355 -0.3408
 1131YOPC   NC313021   9.830  16.060   6.166  0.0533 -0.0937  0.1962
 1131YOPC   PO413022   9.890  15.597   6.038  0.0312  0.1398 -0.3201
 1131YOPC   GL113023   9.774  15.662   6.474  0.0397  0.3106 -0.1071
 1131YOPC   GL213024   9.571  15.432   6.599  0.1265 -0.3489  0.3828
 1131YOPC   C1A13025   9.827  15.729   7.013 -0.1298  0.0621 -0.0212
 1131YOPC   D2A13026  10.158  15.668   7.141  0.2113  0.0532  0.0944
 1131YOPC   C3A13027  10.316  15.871   7.427  0.0196  0.0698  0.1522
 1131YOPC   C4A13028  10.398  16.164   7.796 -0.2329 -0.0693  0.1864
 1131YOPC   C1B13029   9.462  15.239   6.936  0.0191  0.0659  0.0506
 1131YOPC   C2B13030   9.408  15.433   7.285  0.0937  0.1904  0.0556
 1131YOPC   D3B13031   9.471  15.132   7.634 -0.3341 -0.4396  0.0013
 1131YOPC   C4B13032   9.491  14.798   7.819  0.0015 -0.0115  0.1917
 1132YOPC   NC313033   0.178  17.736   6.339  0.0521  0.3050  0.1352
 1132YOPC   PO413034   0.389  17.990   6.644 -0.1266  0.1476  0.0406
 1132YOPC   GL113035   0.143  18.103   7.104 -0.0495 -0.1845 -0.2767
 1132YOPC   GL213036   0.051  18.436   7.180  0.2057  0.0973  0.0225
 1132YOPC   C1A13037   0.025  17.958   7.511 -0.1324  0.1177 -0.3192
 1132YOPC   D2A13038  -0.223  17.636   7.673  0.0687  0.0431 -0.0498
 1132YOPC   C3A13039  -0.134  17.640   8.046 -0.1062  0.1881 -0.1545
 1132YOPC   C4A13040   0.041  17.847   8.404 -0.0205 -0.1151  0.0546
 1132YOPC   C1B13041   0.040  18.449   7.679 -0.2556  0.0330 -0.0986
 1132YOPC   C2B13042   0.030  18.126   7.998  0.2278  0.0666  0.1791
 1132YOPC   D3B13043  -0.418  18.046   8.208  0.4216 -0.1733 -0.3562
 1132YOPC   C4B13044  -0.490  17.962   8.571 -0.2367 -0.0996  0.0639
 1133YOPC   NC313045  15.771   6.129   6.163  0.1299 -0.0760  0.2361
 1133YOPC   PO413046  15.730   5.836   6.525 -0.0905  0.0138  0.4686
 1133YOPC   GL113047  15.886   5.827   6.987  0.0696 -0.0409 -0.1289
 1133YOPC   GL213048  15.628   5.784   7.157 -0.1523  0.3376 -0.3268
 1133YOPC   C1A13049  16.182   5.705   7.287  0.0257 -0.1997 -0.1443
 1133YOPC   D2A13050  16.290   5.382   7.558  0.1324 -0.0158  0.1633
 1133YOPC   C3A13051  16.258   5.432   7.974 -0.0939  0.1026  0.0712
 1133YOPC   C4A13052  16.209   5.401   8.372  0.0000 -0.2534  0.0748
 1133YOPC   C1B13053  15.700   5.884   7.673 -0.2797 -0.0084 -0.1033
 1133YOPC   C2B13054  15.888   5.841   8.043  0.0062  0.0320 -0.1033
 1133YOPC   D3B13055  15.747   5.636   8.366  0.1567  0.1847  0.0509
 1133YOPC   C4B13056  15.865   5.451   8.748  0.0755  0.0023  0.0199
 1134YOPC   NC313057  12.414  10.312   6.128  0.0098 -0.0380 -0.2656
 1134YOPC   PO413058  12.436   9.871   6.178 -0.0619  0.2011 -0.0716
 1134YOPC   GL113059  12.220  10.068   6.548  0.0230 -0.3513  0.1727
 1134YOPC   GL213060  12.001  10.246   6.458  0.1791  0.0675 -0.1355
 1134YOPC   C1A13061  12.083   9.956   6.972  0.0825  0.1184 -0.1838
 1134YOPC   D2A13062  11.928   9.866   7.315 -0.2430  0.0881 -0.0452
 1134YOPC   C3A13063  12.055   9.896   7.647  0.3993  0.1834  0.0882
 1134YOPC   C4A13064  12.120   9.873   8.014 -0.1012  0.3322 -0.0877
 1134YOPC   C1B13065  11.862  10.376   6.909  0.0095  0.1766 -0.0646
 1134YOPC   C2B13066  11.962  10.385   7.369  0.3117  0.1163 -0.2150
 1134YOPC   D3B13067  12.149  10.381   7.759  0.2421  0.3175 -0.3698
 1134YOPC   C4B13068  12.050  10.444   8.141  0.0947 -0.5280 -0.1107
 1135YOPC   NC313069  12.898  14.590   5.937  0.2673  0.0056  0.3248
 1135YOPC   PO413070  12.757  14.687   6.356 -0.0373  0.0325 -0.0751
 1135YOPC   GL113071  12.743  14.333   6.534 -0.0554 -0.1539 -0.2300
 1135YOPC   GL213072  12.360  14.289   6.559 -0.0978 -0.0333  0.1352
 1135YOPC   C1A13073  12.943  14.320   6.994  0.0515  0.0669  0.1755
 1135YOPC   D2A13074  13.209  14.359   7.398  0.1834 -0.0296  0.1433
 1135YOPC   C3A13075  13.137  14.724   7.741 -0.0839 -0.0734 -0.1430
 1135YOPC   C4A13076  13.082  15.172   7.901  0.0711  0.0053  0.0459
 1135YOPC   C1B13077  12.333  14.208   6.914  0.0073  0.2174  0.1833
 1135YOPC   C2B13078  12.386  14.267   7.283  0.0282  0.0189 -0.1647
 1135YOPC   D3B13079  12.089  14.036   7.647 -0.2401  0.1017 -0.2841
 1135YOPC   C4B13080  12.064  14.138   8.109  0.1517  0.0691 -0.0167
 1136YOPC   NC313081  14.671   5.599   6.729 -0.1182  0.1062 -0.3395
 1136YOPC   PO413082  14.429   5.203   6.786 -0.0284 -0.2205 -0.2337
 1136YOPC   GL113083  14.119   5.255   7.090  0.0266  0.0629  0.3590
 1136YOPC   GL213084  14.139   5.460   7.365  0.1087 -0.1470 -0.0335
 1136YOPC   C1A13085  13.814   5.098   7.447 -0.0175 -0.2032 -0.2059
 1136YOPC   D2A13086  13.603   5.127   7.868 -0.0584 -0.1337  0.1412
 1136YOPC   C3A13087  13.709   4.809   8.202 -0.0446  0.3310  0.3323
 1136YOPC   C4A13088  13.781   4.675   8.570  0.0375 -0.3005 -0.1764
 1136YOPC   C1B13089  14.034   5.427   7.839 -0.0739 -0.0093  0.1105
 1136YOPC   C2B13090  13.903   5.271   8.227  0.1142 -0.0353 -0.1358
 1136YOPC   D3B13091  13.777   5.229   8.666  0.2053  0.0565  0.0254
 1136YOPC   C4B13092  13.597   4.916   9.025  0.2025  0.1360 -0.2557
 1137YOPC   NC313093  17.780   4.327   6.634 -0.1546  0.2572 -0.2590
 1137YOPC   PO413094  17.752   4.821   6.724  0.0491 -0.2394  0.0717
 1137YOPC   GL113095  17.816   4.659   7.106  0.1916 -0.0656 -0.0729
 1137YOPC   GL213096  17.430   4.789   7.201  0.0213  0.1928  0.0673
 1137YOPC   C1A13097  17.605   4.387   7.383  0.1645  0.1779 -0.1066
 1137YOPC   D2A13098  17.381   4.107   7.686 -0.0734  0.4287  0.1496
 1137YOPC   C3A13099  17.417   4.213   8.172 -0.1952  0.4299  0.1886
 1137YOPC   C4A13100  17.329   4.261   8.549  0.0420 -0.2132 -0.0248
 1137YOPC   C1B13101  17.475   4.834   7.625 -0.0557  0.1369  0.2095
 1137YOPC   C2B13102  17.517   4.812   8.059  0.0908 -0.2584 -0.0076
 1137YOPC   D3B13103  17.702   4.574   8.368 -0.0349  0.0945  0.3233
 1137YOPC   C4B13104  17.721   4.341   8.822 -0.0854 -0.3034  0.1577
 1138YOPC   NC313105  11.673   3.612   6.035 -0.2050  0.2595  0.0976
 1138YOPC   PO413106  11.350   3.395   6.234 -0.0601  0.0517 -0.0739
 1138YOPC   GL113107  11.357   3.079   6.556  0.3319  0.2705 -0.2034
 1138YOPC   GL213108  11.414   3.187   6.929 -0.0471  0.2501 -0.2691
 1138YOPC   C1A13109  11.084   2.808   6.936 -0.1369 -0.1648  0.0584
 1138YOPC   D2A13110  10.787   2.706   7.181 -0.1867 -0.1287  0.1167
 1138YOPC   C3A13111  10.776   2.482   7.552 -0.1129 -0.0372  0.1400
 1138YOPC   C4A13112  10.510   2.210   7.900 -0.1158 -0.2079 -0.3515
 1138YOPC   C1B13113  11.563   3.304   7.321  0.2473  0.1466 -0.2071
 1138YOPC   C2B13114  11.838   3.585   7.569 -0.1431  0.4238  0.0038
 1138YOPC   D3B13115  11.812   3.658   7.988 -0.1361 -0.0679 -0.0050
 1138YOPC   C4B13116  11.863   3.714   8.444  0.0768 -0.0277 -0.2502
 1139YOPC   NC313117   5.406  16.883   6.189  0.1628 -0.0774  0.0901
 1139YOPC   PO413118   5.611  17.226   6.430  0.3256 -0.3803 -0.1250
 1139YOPC   GL113119   5.833  16.929   6.743  0.1148 -0.1241  0.2772
 1139YOPC   GL213120   5.866  17.260   6.866  0.0256  0.0838 -0.0827
 1139YOPC   C1A13121   6.215  16.850   7.026  0.1576  0.0778  0.0236
 1139YOPC   D2A13122   6.537  16.837   7.250  0.1990  0.1862 -0.0046
 1139YOPC   C3A13123   6.612  16.820   7.679 -0.0659 -0.0290  0.3369
 1139YOPC   C4A13124   6.892  16.789   8.072 -0.0926 -0.0750 -0.2577
 1139YOPC   C1B13125   5.931  17.173   7.324 -0.1172 -0.1102  0.3317
 1139YOPC   C2B13126   5.954  17.147   7.716 -0.2105  0.1773 -0.0807
 1139YOPC   D3B13127   6.173  16.999   7.994 -0.1038  0.0334  0.0841
 1139YOPC   C4B13128   6.479  16.872   8.335 -0.3239  0.0311  0.0542
 1140YOPC   NC313129  13.094   5.064   6.539 -0.0349  0.1585 -0.3117
 1140YOPC   PO413130  12.987   5.588   6.643  0.2800  0.0376  0.2229
 1140YOPC   GL113131  12.785   5.427   6.959 -0.2724  0.0283 -0.0524
 1140YOPC   GL213132  12.525   5.468   7.011 -0.2178 -0.1660  0.0824
 1140YOPC   C1A13133  12.845   5.235   7.298  0.0241 -0.2956  0.0326
 1140YOPC   D2A13134  12.988   5.105   7.739 -0.3323  0.3039  0.2029
 1140YOPC   C3A13135  13.165   5.101   8.146 -0.1814  0.0543 -0.0473
 1140YOPC   C4A13136  13.363   4.965   8.517  0.1517  0.2937 -0.0230
 1140YOPC   C1B13137  12.392   5.517   7.417  0.1035 -0.0116 -0.2494
 1140YOPC   C2B13138  12.574   5.418   7.734 -0.0873  0.1271 -0.1376
 1140YOPC   D3B13139  12.663   5.284   8.213 -0.0821  0.1778  0.1831
 1140YOPC   C4B13140  12.842   5.218   8.630  0.0805  0.1152 -0.0262
 1141ERGO   ROH13141  17.655   5.496   7.376  0.2318  0.0818  0.1200
 1141ERGO    R113142  17.721   5.484   7.651 -0.0050  0.0056  0.1755
 1141ERGO    R213143  17.542   5.395   7.843 -0.1380 -0.1456 -0.0131
 1141ERGO    R313144  17.744   5.225   7.906 -0.1187 -0.0820  0.0982
 1141ERGO    R413145  17.619   5.289   8.163 -0.0545  0.1611  0.0720
 1141ERGO    R513146  17.830   5.308   8.113 -0.0675  0.1191 -0.0011
 1141ERGO    C113147  17.853   5.067   8.408  0.0123  0.3994  0.2259
 1141ERGO    C213148  17.954   4.939   8.656  0.0904  0.1623 -0.2855
 1142ERGO   ROH13149  14.301   6.208   7.221 -0.1475 -0.1805 -0.0714
 1142ERGO    R113150  14.100   6.125   7.402 -0.1807 -0.0567 -0.0535
 1142ERGO    R213151  14.157   5.989   7.636 -0.2484 -0.1614 -0.1080
 1142ERGO    R313152  14.014   6.191   7.750 -0.0618 -0.0754 -0.0171
 1142ERGO    R413153  13.987   5.966   7.936 -0.3790 -0.2036 -0.1832
 1142ERGO    R513154  13.825   6.081   7.847 -0.2263  0.0525 -0.1667
 1142ERGO    C113155  13.754   6.141   8.217 -0.2798 -0.1473 -0.1417
 1142ERGO    C213156  13.775   6.222   8.588  0.2208  0.1586  0.2660
 1143ERGO   ROH13157   1.691   6.847   6.916  0.0074  0.0273  0.0373
 1143ERGO    R113158   1.666   6.941   7.181  0.0670 -0.0229  0.0612
 1143ERGO    R213159   1.755   6.797   7.400  0.0317 -0.1075  0.0215
 1143ERGO    R313160   1.891   7.026   7.455  0.1247 -0.1712  0.0603
 1143ERGO    R413161   1.848   6.901   7.716 -0.1043 -0.0958  0.0582
 1143ERGO    R513162   1.795   7.104   7.659  0.0425 -0.0779 -0.0142
 1143ERGO    C113163   2.029   7.176   7.952 -0.0961 -0.1488  0.1158
 1143ERGO    C213164   2.120   7.229   8.297  0.1259  0.3885  0.2284
 1144ERGO   ROH13165  14.759   7.195   7.163 -0.0764  0.0310 -0.0044
 1144ERGO    R113166  14.939   7.124   7.369 -0.0938 -0.0202 -0.0068
 1144ERGO    R213167  15.096   7.310   7.500  0.0268 -0.0759 -0.0699
 1144ERGO    R313168  14.981   7.203   7.722 -0.0110  0.0439 -0.0311
 1144ERGO    R413169  15.177   7.395   7.826  0.1733 -0.1117 -0.0959
 1144ERGO    R513170  15.160   7.184   7.879  0.0091 -0.0915 -0.0711
 1144ERGO    C113171  15.115   7.344   8.223  0.2231 -0.0200 -0.0747
 1144ERGO    C213172  15.176   7.515   8.430 -0.0199 -0.2016  0.0133
 1145ERGO   ROH13173  13.060   7.479   6.814 -0.0454  0.0846 -0.0445
 1145ERGO    R113174  12.925   7.500   7.061 -0.0035 -0.0562 -0.0093
 1145ERGO    R213175  13.034   7.413   7.299  0.1920  0.1469 -0.0270
 1145ERGO    R313176  12.980   7.667   7.380 -0.1445  0.0907 -0.0584
 1145ERGO    R413177  12.958   7.505   7.623  0.4545  0.1236  0.0441
 1145ERGO    R513178  12.808   7.641   7.544  0.1032 -0.1589  0.1803
 1145ERGO    C113179  12.863   7.797   7.888  0.2916  0.0573  0.0561
 1145ERGO    C213180  12.703   7.994   8.183  0.0768  0.0536  0.0292
 1146ERGO   ROH13181   0.644  12.737   6.788 -0.2406 -0.3350 -0.1411
 1146ERGO    R113182   0.614  12.686   7.065  0.0407 -0.2064 -0.0816
 1146ERGO    R213183   0.376  12.598   7.175  0.0575  0.1050  0.2409
 1146ERGO    R313184   0.533  12.399   7.273 -0.0409 -0.0519  0.1029
 1146ERGO    R413185   0.280  12.370   7.417 -0.0448 -0.0130  0.0902
 1146ERGO    R513186   0.478  12.388   7.505 -0.0315 -0.1813  0.0974
 1146ERGO    C113187   0.371  12.051   7.650 -0.1967 -0.2288 -0.1270
 1146ERGO    C213188   0.387  11.907   7.951  0.0316  0.0575  0.0827
 1147ERGO   ROH13189  17.664   8.183   7.336  0.0688 -0.2343 -0.0701
 1147ERGO    R113190  17.543   8.255   7.581  0.1751 -0.1505 -0.0401
 1147ERGO    R213191  17.267   8.261   7.616  0.1793  0.1132  0.0033
 1147ERGO    R313192  17.324   8.096   7.824  0.0544  0.0246 -0.0334
 1147ERGO    R413193  17.095   8.253   7.915  0.1893  0.1921  0.0100
 1147ERGO    R513194  17.284   8.229   8.019  0.1737  0.0156 -0.0051
 1147ERGO    C113195  17.047   8.093   8.285  0.0780  0.1550 -0.0203
 1147ERGO    C213196  16.807   7.832   8.389  0.1742 -0.0684  0.0028
 1148ERGO   ROH13197   5.686  12.275   6.457  0.2208  0.0998  0.0400
 1148ERGO    R113198   5.658  12.296   6.738  0.2962  0.0748  0.0490
 1148ERGO    R213199   5.448  12.181   6.876  0.1528  0.3390  0.0547
 1148ERGO    R313200   5.648  12.066   7.021  0.0178  0.0205 -0.0020
 1148ERGO    R413201   5.428  12.098   7.211  0.1864  0.5754  0.1174
 1148ERGO    R513202   5.632  12.169   7.236  0.3524  0.1847 -0.0491
 1148ERGO    C113203   5.603  11.943   7.542  0.0793  0.4139  0.1006
 1148ERGO    C213204   5.564  11.848   7.838 -0.2190 -0.2359  0.4173
 1149ERGO   ROH13205  14.257  16.235   6.811 -0.1500  0.2584  0.0576
 1149ERGO    R113206  14.265  16.317   7.082 -0.1958  0.2648  0.0584
 1149ERGO    R213207  14.121  16.534   7.175 -0.2500  0.2422  0.0418
 1149ERGO    R313208  14.026  16.352   7.354 -0.2345  0.2233  0.0287
 1149ERGO    R413209  13.925  16.610   7.450 -0.1909  0.2131  0.0906
 1149ERGO    R513210  14.038  16.464   7.565 -0.1857  0.1846  0.0436
 1149ERGO    C113211  13.722  16.484   7.777 -0.1418  0.1786  0.1067
 1149ERGO    C213212  13.469  16.519   8.039  0.0650 -0.0518  0.0392
 1150ERGO   ROH13213   8.209  15.380   6.547  0.0873  0.0599 -0.0717
 1150ERGO    R113214   8.187  15.214   6.775  0.0458  0.0318 -0.0968
 1150ERGO    R213215   8.361  15.230   6.989  0.0374 -0.0295 -0.0873
 1150ERGO    R313216   8.132  15.261   7.131  0.0355 -0.0095 -0.0926
 1150ERGO    R413217   8.345  15.256   7.333  0.0139 -0.2199 -0.0721
 1150ERGO    R513218   8.167  15.131   7.329 -0.0425 -0.1399 -0.1628
 1150ERGO    C113219   8.120  15.301   7.667 -0.0014 -0.3119 -0.0683
 1150ERGO    C213220   7.912  15.302   7.992 -0.0816  0.0074  0.0215
 1151ERGO   ROH13221  10.675  16.230   6.521 -0.1242  0.0003  0.0924
 1151ERGO    R113222  10.572  16.357   6.752  0.0323  0.1708  0.0703
 1151ERGO    R213223  10.523  16.220   6.988 -0.1160  0.2774  0.1003
 1151ERGO    R313224  10.683  16.412   7.095  0.1124  0.1174  0.0539
 1151ERGO    R413225  10.569  16.272   7.326 -0.0924  0.3297  0.0893
 1151ERGO    R513226  10.564  16.487   7.288  0.1782  0.3293  0.0167
 1151ERGO    C113227  10.746  16.483   7.624  0.1357  0.2100  0.0394
 1151ERGO    C213228  10.888  16.429   7.883 -0.3162 -0.2186 -0.0308
 1152ERGO   ROH13229   2.586  17.729   7.002 -0.1787  0.2304  0.0027
 1152ERGO    R113230   2.473  17.614   7.234 -0.1723  0.1985 -0.0109
 1152ERGO    R213231   2.622  17.554   7.459 -0.1585  0.1169 -0.0476
 1152ERGO    R313232   2.436  17.707   7.584 -0.1126  0.1211  0.0177
 1152ERGO    R413233   2.563  17.555   7.800 -0.0218  0.1231 -0.0227
 1152ERGO    R513234   2.350  17.567   7.758 -0.0433  0.1202  0.0571
 1152ERGO    C113235   2.354  17.701   8.115  0.1008  0.1305  0.0531
 1152ERGO    C213236   2.416  17.734   8.371  0.1646 -0.0990  0.0675
 1153ERGO   ROH13237   1.732   8.805   6.589  0.1653  0.0198  0.2459
 1153ERGO    R113238   1.848   8.890   6.832  0.0614  0.1139  0.2634
 1153ERGO    R213239   1.845   9.154   6.915 -0.0670  0.1293  0.2112
 1153ERGO    R313240   1.733   9.049   7.139 -0.0903  0.1289  0.1993
 1153ERGO    R413241   1.841   9.307   7.224 -0.0204  0.0896  0.2315
 1153ERGO    R513242   1.881   9.113   7.315 -0.0696  0.0668  0.2050
 1153ERGO    C113243   1.734   9.298   7.615 -0.0153  0.0662  0.2321
 1153ERGO    C213244   1.637   9.464   7.933  0.0489 -0.1472  0.2609
 1154ERGO   ROH13245   8.357   7.847   6.585 -0.0217 -0.2778  0.1615
 1154ERGO    R113246   8.316   7.904   6.859 -0.1379 -0.2419  0.1364
 1154ERGO    R213247   8.267   7.706   7.046  0.1028 -0.2483  0.1873
 1154ERGO    R313248   8.479   7.818   7.173 -0.0656  0.0816  0.1931
 1154ERGO    R413249   8.295   7.742   7.388  0.1519 -0.4900  0.2114
 1154ERGO    R513250   8.382   7.939   7.355 -0.2574 -0.2669  0.3401
 1154ERGO    C113251   8.511   7.868   7.707  0.0223 -0.3210  0.2308
 1154ERGO    C213252   8.525   7.897   8.030  0.1403 -0.3306 -0.0669
 1155ERGO   ROH13253   8.191  10.251   6.700 -0.0003 -0.0350  0.1161
 1155ERGO    R113254   8.265  10.224   6.972 -0.2477  0.0772  0.1970
 1155ERGO    R213255   8.471  10.369   7.085 -0.1251 -0.1272  0.2317
 1155ERGO    R313256   8.280  10.440   7.264 -0.1642  0.2963  0.0353
 1155ERGO    R413257   8.521  10.395   7.426 -0.4230 -0.3138  0.2929
 1155ERGO    R513258   8.325  10.304   7.456 -0.6903  0.1393  0.0660
 1155ERGO    C113259   8.370  10.476   7.793 -0.6331 -0.0249  0.1441
 1155ERGO    C213260   8.469  10.510   8.200  0.3425  0.0227 -0.1537
 1156ERGO   ROH13261   0.057   6.850   7.659  0.1288  0.1002 -0.0547
 1156ERGO    R113262   0.027   6.848   7.940  0.0270  0.0269 -0.0652
 1156ERGO    R213263   0.242   6.876   8.112 -0.0429  0.0467  0.0196
 1156ERGO    R313264   0.091   7.079   8.214 -0.1361 -0.0183  0.0121
 1156ERGO    R413265   0.267   6.999   8.434 -0.0528  0.1156 -0.0059
 1156ERGO    R513266   0.050   7.014   8.441 -0.0601 -0.0026  0.0303
 1156ERGO    C113267   0.140   7.261   8.717 -0.1461  0.0947 -0.0278
 1156ERGO    C213268   0.274   7.578   8.710 -0.1959  0.0524  0.0298
 1157ERGO   ROH13269   8.117   4.933   6.230  0.0632  0.0263  0.0630
 1157ERGO    R113270   7.963   4.943   6.468 -0.0754 -0.1551 -0.0165
 1157ERGO    R213271   7.871   4.716   6.596  0.2968 -0.2784  0.0405
 1157ERGO    R313272   7.998   4.825   6.810 -0.0108  0.0684  0.0566
 1157ERGO    R413273   7.792   4.651   6.926  0.2571 -0.2838  0.0302
 1157ERGO    R513274   7.823   4.862   6.970 -0.1695 -0.1931 -0.0467
 1157ERGO    C113275   7.865   4.715   7.319 -0.0548  0.0385  0.0394
 1157ERGO    C213276   8.028   4.512   7.549 -0.0927  0.1767 -0.1471
 1158ERGO   ROH13277   8.630   6.397   6.520 -0.1314  0.0533 -0.0314
 1158ERGO    R113278   8.601   6.402   6.802 -0.0097  0.3432 -0.0208
 1158ERGO    R213279   8.695   6.200   6.965 -0.3847  0.2575  0.0955
 1158ERGO    R313280   8.822   6.405   7.091  0.1214  0.0904 -0.1151
 1158ERGO    R413281   8.814   6.189   7.289 -0.5440  0.3342  0.1584
 1158ERGO    R513282   8.744   6.393   7.317 -0.0134  0.5790 -0.1240
 1158ERGO    C113283   9.003   6.375   7.596 -0.1618  0.2220 -0.0027
 1158ERGO    C213284   9.075   6.193   7.747 -0.0101  0.0020  0.1667
 1159ERGO   ROH13285   2.209  17.468   6.876 -0.0273  0.0258  0.0481
 1159ERGO    R113286   2.040  17.396   7.091 -0.0923  0.2120  0.0603
 1159ERGO    R213287   2.124  17.233   7.297 -0.3372 -0.1070 -0.0897
 1159ERGO    R313288   2.040  17.439   7.453  0.1366 -0.0409  0.0951
 1159ERGO    R413289   2.032  17.205   7.629 -0.4732 -0.2229 -0.1358
 1159ERGO    R513290   1.868  17.344   7.590 -0.1362  0.2306 -0.0397
 1159ERGO    C113291   1.900  17.383   7.969 -0.1075 -0.2277  0.0109
 1159ERGO    C213292   2.021  17.349   8.272 -0.1188 -0.0539 -0.1492
 1160ERGO   ROH13293   3.985  11.426   6.705 -0.1124 -0.3220  0.3444
 1160ERGO    R113294   4.022  11.607   6.919  0.1097 -0.2149  0.2197
 1160ERGO    R213295   3.830  11.650   7.113  0.0472  0.3497  0.0539
 1160ERGO    R313296   4.033  11.588   7.282 -0.1955  0.0582  0.2468
 1160ERGO    R413297   3.862  11.772   7.434 -0.0020  0.4168  0.0331
 1160ERGO    R513298   4.077  11.792   7.399  0.0664  0.0289  0.2007
 1160ERGO    C113299   4.072  11.785   7.781 -0.2585  0.1821  0.2020
 1160ERGO    C213300   4.073  11.940   8.098 -0.0738  0.3740  0.0380
 1161ERGO   ROH13301   2.583   4.497   7.134  0.2044 -0.0278 -0.2542
 1161ERGO    R113302   2.751   4.417   7.348  0.1829 -0.0936 -0.2609
 1161ERGO    R213303   2.725   4.520   7.603  0.3270  0.0266 -0.2910
 1161ERGO    R313304   2.708   4.258   7.672  0.1117  0.0651 -0.1921
 1161ERGO    R413305   2.742   4.400   7.927  0.1601  0.1332 -0.2418
 1161ERGO    R513306   2.863   4.234   7.854  0.0501  0.0139 -0.1487
 1161ERGO    C113307   2.736   4.084   8.180 -0.1393  0.2313 -0.1204
 1161ERGO    C213308   2.742   4.091   8.483  0.1911  0.0642 -0.1779
 1162ERGO   ROH13309   4.834  17.340   7.074  0.0056 -0.1255  0.0292
 1162ERGO    R113310   4.903  17.364   7.347  0.0422 -0.1839  0.0248
 1162ERGO    R213311   4.720  17.441   7.540  0.1189 -0.0208  0.0325
 1162ERGO    R313312   4.800  17.210   7.660 -0.0775 -0.0921  0.0315
 1162ERGO    R413313   4.739  17.393   7.882  0.1972  0.0010  0.0323
 1162ERGO    R513314   4.925  17.284   7.851  0.0724 -0.1994 -0.0239
 1162ERGO    C113315   4.824  17.150   8.194  0.0584 -0.0530  0.0311
 1162ERGO    C213316   4.626  17.143   8.456  0.0912 -0.2331  0.1638
 1163ERGO   ROH13317   0.906  15.771   7.088  0.1473 -0.0447  0.1177
 1163ERGO    R113318   0.944  15.573   7.286 -0.0084 -0.1144  0.0795
 1163ERGO    R213319   0.944  15.631   7.557  0.1611 -0.1433  0.0867
 1163ERGO    R313320   0.753  15.438   7.565 -0.0642  0.0753  0.1352
 1163ERGO    R413321   0.831  15.476   7.844  0.0712 -0.0284  0.1146
 1163ERGO    R513322   0.827  15.287   7.735 -0.1824 -0.0220  0.1039
 1163ERGO    C113323   0.587  15.203   8.019 -0.1926  0.2439  0.1763
 1163ERGO    C213324   0.645  15.095   8.255  0.0253  0.1792  0.1641
 1164ERGO   ROH13325  15.608  10.575   6.583  0.2419  0.0704 -0.0088
 1164ERGO    R113326  15.623  10.556   6.865  0.1798  0.0309 -0.0074
 1164ERGO    R213327  15.760  10.739   7.019  0.0850  0.0524  0.0563
 1164ERGO    R313328  15.523  10.760   7.149  0.0453 -0.0448 -0.0005
 1164ERGO    R413329  15.726  10.787   7.359 -0.0169  0.1825  0.0283
 1164ERGO    R513330  15.559  10.646   7.357  0.0771  0.0728  0.0573
 1164ERGO    C113331  15.483  10.834   7.680 -0.1134  0.1669 -0.0413
 1164ERGO    C213332  15.489  10.960   7.949 -0.1044  0.0925  0.2849
 1165ERGO   ROH13333  17.881  16.112   7.076  0.0524  0.0464  0.0487
 1165ERGO    R113334  17.925  15.927   7.287  0.0318  0.0034  0.0167
 1165ERGO    R213335  18.130  15.956   7.470  0.0577 -0.0696  0.0062
 1165ERGO    R313336  17.927  15.936   7.650  0.0664 -0.0506  0.0168
 1165ERGO    R413337  18.162  15.838   7.793  0.0352 -0.1801 -0.0324
 1165ERGO    R513338  17.972  15.734   7.770 -0.0015 -0.1010 -0.0481
 1165ERGO    C113339  17.990  15.750   8.150  0.0302 -0.2265 -0.0451
 1165ERGO    C213340  18.143  15.960   8.535  0.0967  0.3205  0.1341
 1166ERGO   ROH13341   0.108  11.101   6.406 -0.0417  0.0280  0.0933
 1166ERGO    R113342   0.008  11.039   6.664 -0.0567  0.0067  0.0826
 1166ERGO    R213343   0.164  10.925   6.861 -0.0795 -0.0520  0.0690
 1166ERGO    R313344   0.080  11.138   7.006 -0.0433 -0.0579  0.0982
 1166ERGO    R413345   0.057  10.911   7.189 -0.1115 -0.0810  0.0571
 1166ERGO    R513346  -0.100  11.053   7.139 -0.0735 -0.0376  0.0682
 1166ERGO    C113347  -0.084  11.103   7.517 -0.0962 -0.1035  0.0776
 1166ERGO    C213348  -0.124  11.138   7.861 -0.0280  0.1041  0.2443
 1167ERGO   ROH13349   3.438  17.973   7.128 -0.2576 -0.0355  0.0803
 1167ERGO    R113350   3.503  18.050   7.393 -0.2747 -0.1288  0.1125
 1167ERGO    R213351   3.555  17.867   7.593 -0.0293 -0.2003 -0.0117
 1167ERGO    R313352   3.785  18.008   7.619 -0.1718  0.0311  0.0159
 1167ERGO    R413353   3.767  17.853   7.866  0.0462 -0.1392 -0.0675
 1167ERGO    R513354   3.793  18.068   7.850 -0.1857 -0.0969  0.0512
 1167ERGO    C113355   4.106  17.978   8.049 -0.0437  0.1133 -0.0741
 1167ERGO    C213356   4.471  18.097   8.181  0.1123  0.0020 -0.2341
 1168ERGO   ROH13357  17.937  12.311   6.505 -0.3922  0.1959  0.0359
 1168ERGO    R113358  17.885  12.212   6.765 -0.1915  0.0460  0.0205
 1168ERGO    R213359  18.076  12.078   6.914  0.0080  0.1945 -0.0997
 1168ERGO    R313360  18.017  12.267   7.100 -0.1264  0.0659 -0.0076
 1168ERGO    R413361  18.076  12.027   7.256  0.0484  0.0297 -0.1230
 1168ERGO    R513362  17.897  12.149   7.270 -0.0418 -0.1038 -0.0615
 1168ERGO    C113363  18.021  12.174   7.630 -0.0543 -0.1869 -0.0501
 1168ERGO    C213364  17.981  12.047   7.951  0.2854 -0.0013  0.0335
 1169ERGO   ROH13365  16.686   5.823   7.316  0.0021 -0.0357 -0.0546
 1169ERGO    R113366  16.817   5.929   7.544  0.0972  0.1134 -0.1742
 1169ERGO    R213367  16.778   6.189   7.631 -0.2392  0.0370 -0.0516
 1169ERGO    R313368  16.717   6.067   7.865  0.2322 -0.1526 -0.0175
 1169ERGO    R413369  16.772   6.345   7.939 -0.1318 -0.1014  0.0201
 1169ERGO    R513370  16.863   6.167   8.025  0.2551  0.0161 -0.1520
 1169ERGO    C113371  16.710   6.320   8.339  0.3733 -0.3599  0.0939
 1169ERGO    C213372  16.742   6.541   8.596  0.2154 -0.1664  0.0562
 1170ERGO   ROH13373   2.762   4.908   7.312  0.3673  0.0935 -0.1775
 1170ERGO    R113374   2.874   5.035   7.539  0.2527  0.0810 -0.1125
 1170ERGO    R213375   2.893   5.310   7.562  0.1205  0.0857 -0.0284
 1170ERGO    R313376   2.761   5.266   7.796  0.0802 -0.0448 -0.0750
 1170ERGO    R413377   2.848   5.545   7.811 -0.2234  0.0467 -0.0483
 1170ERGO    R513378   2.886   5.390   7.959 -0.1122  0.0930 -0.0317
 1170ERGO    C113379   2.699   5.642   8.176 -0.4615 -0.0983 -0.1036
 1170ERGO    C213380   2.679   5.972   8.373  0.1083 -0.2753 -0.0033
 1171ERGO   ROH13381   8.411   6.794   6.566  0.0114 -0.2114 -0.1302
 1171ERGO    R113382   8.399   6.868   6.839  0.1239  0.0164 -0.1846
 1171ERGO    R213383   8.251   6.727   7.025  0.0049  0.3071 -0.0481
 1171ERGO    R313384   8.488   6.719   7.158  0.0184  0.1731 -0.0810
 1171ERGO    R413385   8.286   6.701   7.368  0.0459  0.1452 -0.0644
 1171ERGO    R513386   8.450   6.843   7.358  0.0876  0.0954 -0.0215
 1171ERGO    C113387   8.529   6.677   7.692  0.0825 -0.0748 -0.1048
 1171ERGO    C213388   8.706   6.732   8.059  0.4357  0.0382  0.0720
 1172ERGO   ROH13389  15.121   3.341   6.892 -0.1146  0.1945 -0.0345
 1172ERGO    R113390  15.112   3.534   7.098  0.1903  0.1495  0.0237
 1172ERGO    R213391  14.980   3.492   7.337  0.0337  0.3215 -0.0382
 1172ERGO    R313392  15.221   3.557   7.445  0.1293 -0.1648  0.0682
 1172ERGO    R413393  15.030   3.583   7.666  0.0068  0.4900 -0.0787
 1172ERGO    R513394  15.171   3.735   7.598  0.4358  0.1036 -0.1224
 1172ERGO    C113395  15.285   3.697   7.960  0.0809  0.1317 -0.0025
 1172ERGO    C213396  15.363   3.761   8.293 -0.3286  0.1946  0.0868
 1173ERGO   ROH13397   1.996   5.380   7.601 -0.2700 -0.0633  0.0423
 1173ERGO    R113398   1.952   5.647   7.683 -0.2078 -0.0032 -0.1171
 1173ERGO    R213399   1.701   5.744   7.745 -0.1481  0.0076  0.1024
 1173ERGO    R313400   1.821   5.815   7.979  0.1183  0.2158 -0.0898
 1173ERGO    R413401   1.613   6.017   7.939 -0.2772 -0.1077  0.2087
 1173ERGO    R513402   1.824   6.054   7.974 -0.2652  0.2292 -0.1292
 1173ERGO    C113403   1.674   6.241   8.271 -0.1024  0.0205  0.0902
 1173ERGO    C213404   1.650   6.380   8.705 -0.3212 -0.1697 -0.0620
 1174ERGO   ROH13405   0.539  17.708   7.058  0.0395  0.0640 -0.0873
 1174ERGO    R113406   0.409  17.743   7.306  0.0986  0.0417 -0.0533
 1174ERGO    R213407   0.324  17.531   7.462  0.0112  0.0297 -0.1207
 1174ERGO    R313408   0.472  17.654   7.653  0.1066 -0.1211 -0.0947
 1174ERGO    R413409   0.289  17.480   7.802 -0.2083  0.1664 -0.1207
 1174ERGO    R513410   0.317  17.694   7.832  0.0783  0.1435 -0.1699
 1174ERGO    C113411   0.408  17.566   8.180 -0.2465  0.1045 -0.0961
 1174ERGO    C213412   0.508  17.656   8.488  0.0717 -0.3304  0.4245
 1175ERGO   ROH13413   5.373   7.544   6.918  0.3504 -0.2839  0.0174
 1175ERGO    R113414   5.242   7.478   7.160  0.3231 -0.0550  0.0661
 1175ERGO    R213415   5.259   7.228   7.276  0.1726  0.0047  0.2156
 1175ERGO    R313416   5.340   7.369   7.493  0.2730  0.0849  0.1280
 1175ERGO    R413417   5.262   7.107   7.600  0.1770  0.1700  0.2786
 1175ERGO    R513418   5.190   7.302   7.668  0.2723  0.2392  0.1910
 1175ERGO    C113419   5.340   7.170   7.993  0.2739  0.3416  0.2331
 1175ERGO    C213420   5.562   7.132   8.267 -0.0734  0.4226 -0.0265
 1176ERGO   ROH13421   2.672  10.880   6.333  0.1867  0.0681 -0.1104
 1176ERGO    R113422   2.457  10.823   6.508  0.1473  0.0241 -0.1725
 1176ERGO    R213423   2.459  10.606   6.680  0.1787  0.0709 -0.1134
 1176ERGO    R313424   2.410  10.796   6.868  0.0293  0.1022 -0.1816
 1176ERGO    R413425   2.422  10.544   7.018  0.1689  0.1582 -0.0980
 1176ERGO    R513426   2.260  10.690   7.022  0.0743  0.0565 -0.1694
 1176ERGO    C113427   2.355  10.686   7.391  0.0230  0.2384 -0.1531
 1176ERGO    C213428   2.210  10.561   7.644 -0.2087 -0.1600  0.0329
 1177ERGO   ROH13429  12.037   5.668   7.085 -0.2106  0.0468 -0.1750
 1177ERGO    R113430  12.023   5.844   7.307  0.0726  0.0276 -0.1388
 1177ERGO    R213431  11.842   5.810   7.513  0.0572  0.2408 -0.1172
 1177ERGO    R313432  12.066   5.819   7.667  0.0999 -0.0996 -0.1497
 1177ERGO    R413433  11.848   5.903   7.845  0.2541  0.3229 -0.1421
 1177ERGO    R513434  12.033   6.011   7.807  0.4423  0.0006 -0.1960
 1177ERGO    C113435  12.061   5.966   8.184  0.4088  0.0511 -0.1870
 1177ERGO    C213436  11.987   6.091   8.486 -0.0237  0.2015 -0.2430
 1178ERGO   ROH13437  13.410  12.957   6.516  0.0157  0.0998  0.1024
 1178ERGO    R113438  13.277  12.941   6.765 -0.0617  0.2562  0.0702
 1178ERGO    R213439  13.367  12.784   6.973 -0.3754  0.0312  0.0355
 1178ERGO    R313440  13.355  13.017   7.113  0.0038  0.0135  0.1119
 1178ERGO    R413441  13.337  12.806   7.317 -0.7131 -0.0569  0.0170
 1178ERGO    R513442  13.198  12.972   7.288 -0.3122  0.2882 -0.0811
 1178ERGO    C113443  13.308  13.038   7.648 -0.5538 -0.1249  0.0778
 1178ERGO    C213444  13.366  12.930   7.930 -0.3866  0.0188  0.0623
 1179ERGO   ROH13445   3.217   9.559   6.458 -0.0561  0.1541 -0.0235
 1179ERGO    R113446   3.334   9.397   6.659  0.1139  0.0586 -0.1966
 1179ERGO    R213447   3.597   9.427   6.739  0.0410  0.3599 -0.0602
 1179ERGO    R313448   3.485   9.451   6.986 -0.0964 -0.1461 -0.0623
 1179ERGO    R413449   3.764   9.376   7.038  0.0331  0.3008 -0.0653
 1179ERGO    R513450   3.586   9.275   7.114  0.1825 -0.1257 -0.2444
 1179ERGO    C113451   3.756   9.368   7.443 -0.1005 -0.2087 -0.0702
 1179ERGO    C213452   3.896   9.396   7.666 -0.2204  0.2665  0.1664
 1180ERGO   ROH13453  17.937   5.022   7.398 -0.1106  0.1202  0.1303
 1180ERGO    R113454  18.010   5.029   7.671 -0.0888 -0.0261  0.1287
 1180ERGO    R213455  17.952   4.823   7.846  0.0130 -0.1633  0.0006
 1180ERGO    R313456  18.220   4.832   7.894  0.0142 -0.0836 -0.0165
 1180ERGO    R413457  18.101   4.741   8.147  0.0672 -0.2900 -0.0599
 1180ERGO    R513458  18.237   4.910   8.120 -0.0025 -0.2152  0.0329
 1180ERGO    C113459  18.439   4.701   8.367  0.1000 -0.2890 -0.1112
 1180ERGO    C213460  18.584   4.567   8.687 -0.0251  0.0830 -0.0894
 1181ERGO   ROH13461   7.858   7.230   6.652  0.0585 -0.1602  0.0304
 1181ERGO    R113462   7.949   7.305   6.909  0.1901 -0.0824 -0.0373
 1181ERGO    R213463   7.853   7.189   7.141 -0.1222  0.3822  0.0842
 1181ERGO    R313464   8.117   7.143   7.188 -0.2230 -0.1733  0.1645
 1181ERGO    R413465   8.002   7.195   7.453 -0.1870  0.1061  0.1221
 1181ERGO    R513466   8.173   7.295   7.364  0.0568 -0.2672  0.1570
 1181ERGO    C113467   8.336   7.154   7.679 -0.3192 -0.5761  0.2195
 1181ERGO    C213468   8.378   7.156   7.999 -0.1227 -0.1756 -0.1656
 1182ERGO   ROH13469   5.819   6.717   6.596  0.0475  0.1292  0.0003
 1182ERGO    R113470   5.868   6.556   6.823 -0.0878  0.1096  0.0167
 1182ERGO    R213471   6.103   6.569   6.967 -0.0389 -0.1328 -0.0328
 1182ERGO    R313472   5.935   6.611   7.177  0.0473  0.0945 -0.0070
 1182ERGO    R413473   6.190   6.537   7.300  0.0001 -0.1155 -0.0415
 1182ERGO    R513474   5.997   6.444   7.337 -0.0815  0.0842  0.0298
 1182ERGO    C113475   6.083   6.558   7.691  0.1038  0.1079 -0.0225
 1182ERGO    C213476   6.332   6.667   8.056  0.0360  0.0478 -0.1241
 1183ERGO   ROH13477   6.240   1.031   6.879  0.0769  0.0805 -0.0768
 1183ERGO    R113478   6.350   0.851   7.068  0.1963  0.0848 -0.1408
 1183ERGO    R213479   6.617   0.855   7.140  0.1787  0.2988 -0.0692
 1183ERGO    R313480   6.516   0.876   7.391  0.0887  0.0776 -0.0856
 1183ERGO    R413481   6.805   0.870   7.429  0.0797  0.3499 -0.0074
 1183ERGO    R513482   6.660   0.741   7.525  0.1840  0.1593 -0.1098
 1183ERGO    C113483   6.819   0.899   7.833 -0.0625  0.1721  0.0132
 1183ERGO    C213484   6.832   0.736   8.200 -0.0499 -0.1480  0.3268
 1184ERGO   ROH13485   2.438   1.717   7.040  0.1284  0.1766 -0.0655
 1184ERGO    R113486   2.349   1.600   7.282  0.1276  0.0573 -0.1224
 1184ERGO    R213487   2.521   1.479   7.460  0.1488  0.1006 -0.1094
 1184ERGO    R313488   2.408   1.651   7.637  0.0046 -0.0104 -0.0928
 1184ERGO    R413489   2.472   1.413   7.796 -0.0775 -0.0831 -0.1766
 1184ERGO    R513490   2.277   1.510   7.781 -0.0779 -0.1020 -0.2573
 1184ERGO    C113491   2.336   1.536   8.157 -0.3446 -0.2944 -0.2001
 1184ERGO    C213492   2.181   1.494   8.540  0.1793  0.0740  0.0860
 1185ERGO   ROH13493  15.877   0.485   7.253 -0.0413  0.0996  0.2114
 1185ERGO    R113494  15.889   0.233   7.381 -0.2632  0.0243  0.0883
 1185ERGO    R213495  15.970   0.202   7.643 -0.0079 -0.2014 -0.0128
 1185ERGO    R313496  15.732   0.074   7.668 -0.1745  0.1329  0.1987
 1185ERGO    R413497  15.878   0.007   7.913  0.1596 -0.4545 -0.1347
 1185ERGO    R513498  15.787  -0.134   7.774 -0.3028 -0.1170 -0.1997
 1185ERGO    C113499  15.601  -0.228   8.093  0.1006 -0.2881 -0.0072
 1185ERGO    C213500  15.370  -0.471   8.242 -0.0761  0.1163 -0.1604
 1186ERGO   ROH13501  12.957   5.887   7.082 -0.1077 -0.1740 -0.0246
 1186ERGO    R113502  12.763   5.837   7.282 -0.1603 -0.0264 -0.0372
 1186ERGO    R213503  12.821   5.843   7.552 -0.1841 -0.0278 -0.0325
 1186ERGO    R313504  12.615   6.020   7.559 -0.0749  0.1024 -0.0753
 1186ERGO    R413505  12.667   5.955   7.840 -0.1442  0.0974 -0.0596
 1186ERGO    R513506  12.476   5.942   7.738 -0.1435  0.2059 -0.0805
 1186ERGO    C113507  12.384   6.186   8.016 -0.0185  0.2926 -0.1154
 1186ERGO    C213508  12.339   6.400   8.195 -0.2003 -0.2112 -0.2500
 1187ERGO   ROH13509   9.162   1.009   7.996 -0.0424  0.0408  0.0577
 1187ERGO    R113510   9.115   0.735   8.051 -0.0392  0.0493  0.1061
 1187ERGO    R213511   9.009   0.562   7.864 -0.1694  0.0445  0.1791
 1187ERGO    R313512   9.231   0.415   7.921 -0.1486  0.0288  0.0597
 1187ERGO    R413513   9.047   0.225   7.794 -0.1782  0.0698  0.0510
 1187ERGO    R513514   9.145   0.202   7.988 -0.1197  0.0041  0.0105
 1187ERGO    C113515   9.277  -0.108   7.808 -0.1639  0.0698 -0.1357
 1187ERGO    C213516   9.481  -0.337   7.934  0.0323  0.0758 -0.0762
 1188ERGO   ROH13517   2.713   4.024   7.147  0.1917 -0.1608 -0.2015
 1188ERGO    R113518   2.683   3.920   7.409  0.1133 -0.2333 -0.2394
 1188ERGO    R213519   2.790   3.677   7.485  0.4845 -0.0472 -0.1530
 1188ERGO    R313520   2.904   3.826   7.682  0.0146  0.1524 -0.0176
 1188ERGO    R413521   2.847   3.568   7.808  0.3655  0.0206 -0.1081
 1188ERGO    R513522   2.785   3.764   7.880 -0.0759 -0.0929 -0.1420
 1188ERGO    C113523   2.987   3.644   8.181 -0.1449  0.2474  0.0453
 1188ERGO    C213524   2.952   3.588   8.600 -0.4637 -0.0694 -0.0050
 1189ERGO   ROH13525   9.339  10.927   6.613 -0.0596 -0.0758  0.0790
 1189ERGO    R113526   9.313  10.745   6.829 -0.0614 -0.1087  0.0524
 1189ERGO    R213527   9.524  10.678   6.994 -0.0509 -0.1670  0.0205
 1189ERGO    R313528   9.353  10.756   7.191 -0.0191 -0.1733  0.0492
 1189ERGO    R413529   9.554  10.593   7.327 -0.0449 -0.2441 -0.0006
 1189ERGO    R513530   9.338  10.566   7.335 -0.0485 -0.1996  0.0097
 1189ERGO    C113531   9.412  10.616   7.706 -0.0116 -0.2948  0.0142
 1189ERGO    C213532   9.342  10.589   8.057 -0.0382 -0.2617 -0.1688
 1190ERGO   ROH13533   8.150   1.262   6.285  0.0619 -0.1012  0.0234
 1190ERGO    R113534   7.949   1.330   6.472  0.0498 -0.1782  0.0380
 1190ERGO    R213535   7.876   1.162   6.678  0.1647 -0.1844  0.0715
 1190ERGO    R313536   7.928   1.380   6.832  0.0674 -0.1330  0.0335
 1190ERGO    R413537   7.836   1.176   7.022  0.1425 -0.1419  0.0675
 1190ERGO    R513538   7.757   1.378   6.999  0.0580 -0.1762  0.0262
 1190ERGO    C113539   7.863   1.389   7.365  0.0381 -0.0688  0.0294
 1190ERGO    C213540   7.739   1.189   7.628 -0.1849  0.1007 -0.2718
 1191ERGO   ROH13541  16.993  10.471   6.623 -0.0552 -0.1759  0.1639
 1191ERGO    R113542  17.052  10.615   6.860  0.0685 -0.1030  0.0905
 1191ERGO    R213543  16.876  10.629   7.073  0.0686  0.1789  0.0751
 1191ERGO    R313544  17.090  10.537   7.214 -0.0257  0.0500  0.1359
 1191ERGO    R413545  16.914  10.657   7.416  0.0966  0.3880  0.0556
 1191ERGO    R513546  17.125  10.702   7.383  0.1500  0.1409  0.0168
 1191ERGO    C113547  17.137  10.587   7.747  0.0244  0.3887  0.1014
 1191ERGO    C213548  17.180  10.634   8.054  0.0319  0.0737  0.1030
 1192ERGO   ROH13549   4.300   0.216   6.966 -0.2152  0.0275  0.0549
 1192ERGO    R113550   4.393   0.448   7.099 -0.1304  0.0531 -0.0466
 1192ERGO    R213551   4.223   0.622   7.232 -0.0568  0.1230 -0.0396
 1192ERGO    R313552   4.391   0.575   7.440  0.0070  0.1562 -0.0841
 1192ERGO    R413553   4.356   0.866   7.437 -0.0044  0.1528 -0.1094
 1192ERGO    R513554   4.545   0.759   7.434 -0.0020  0.1604 -0.1521
 1192ERGO    C113555   4.591   0.965   7.751  0.0858  0.2013 -0.1917
 1192ERGO    C213556   4.468   1.138   7.947 -0.0674  0.1938 -0.0657
 1193ERGO   ROH13557  13.964  14.867   6.703  0.1526 -0.0810 -0.1491
 1193ERGO    R113558  14.148  15.071   6.773  0.1094 -0.0829 -0.0303
 1193ERGO    R213559  14.087  15.268   6.956 -0.0178 -0.0679 -0.0899
 1193ERGO    R313560  14.316  15.182   7.076 -0.1065 -0.0654  0.0857
 1193ERGO    R413561  14.290  15.463   7.156 -0.0872 -0.0164 -0.0688
 1193ERGO    R513562  14.464  15.370   7.062 -0.0531 -0.1064  0.0766
 1193ERGO    C113563  14.623  15.497   7.385 -0.2108  0.0159  0.1084
 1193ERGO    C213564  14.732  15.537   7.737 -0.0291  0.0456  0.0215
 1194ERGO   ROH13565   4.135   2.916   6.828  0.0060 -0.0554 -0.1053
 1194ERGO    R113566   4.126   3.027   7.088 -0.1261 -0.0632 -0.1047
 1194ERGO    R213567   3.933   2.958   7.273 -0.0419 -0.3031 -0.0976
 1194ERGO    R313568   4.148   2.903   7.429  0.0342 -0.0387 -0.1059
 1194ERGO    R413569   3.919   2.903   7.614  0.0819 -0.0506 -0.0503
 1194ERGO    R513570   4.103   3.019   7.634  0.0094  0.0886 -0.1839
 1194ERGO    C113571   4.114   2.819   7.959  0.2254  0.3447 -0.0306
 1194ERGO    C213572   4.205   2.650   8.148  0.0001  0.0006 -0.2505
 1195ERGO   ROH13573  13.535   4.441   7.142  0.0825 -0.2009 -0.0589
 1195ERGO    R113574  13.451   4.438   7.412 -0.0881 -0.0332 -0.1070
 1195ERGO    R213575  13.217   4.316   7.493 -0.0156 -0.2068 -0.1453
 1195ERGO    R313576  13.382   4.185   7.664  0.0198  0.1280  0.0865
 1195ERGO    R413577  13.113   4.138   7.771 -0.0210 -0.2192 -0.1561
 1195ERGO    R513578  13.284   4.218   7.880 -0.2440  0.0950 -0.0261
 1195ERGO    C113579  13.208   3.911   8.093  0.0091  0.0878  0.0552
 1195ERGO    C213580  13.389   3.683   8.279  0.1447  0.0997  0.1700
 1196ERGO   ROH13581   6.561  13.722   6.439  0.0944  0.1978  0.0416
 1196ERGO    R113582   6.545  13.587   6.688  0.0402  0.0809 -0.0241
 1196ERGO    R213583   6.757  13.447   6.796  0.0210  0.0395 -0.0373
 1196ERGO    R313584   6.711  13.607   7.011 -0.0383 -0.0614  0.0258
 1196ERGO    R413585   6.860  13.379   7.119  0.2412  0.0554 -0.1032
 1196ERGO    R513586   6.669  13.455   7.191  0.1973 -0.1526  0.0070
 1196ERGO    C113587   6.878  13.490   7.508  0.3138 -0.0301 -0.0824
 1196ERGO    C213588   7.020  13.534   7.715 -0.2846 -0.2651  0.0132
 1197ERGO   ROH13589   5.758  14.168   6.835 -0.0058  0.0879  0.0893
 1197ERGO    R113590   5.658  14.277   7.077 -0.2863 -0.0421  0.0371
 1197ERGO    R213591   5.492  14.136   7.246  0.0066 -0.3679  0.0704
 1197ERGO    R313592   5.681  14.197   7.431 -0.1425  0.1360  0.0684
 1197ERGO    R413593   5.446  14.115   7.588  0.0807 -0.5354  0.0708
 1197ERGO    R513594   5.557  14.302   7.609 -0.4275 -0.2190  0.0871
 1197ERGO    C113595   5.597  14.161   7.961 -0.0161 -0.1598  0.0692
 1197ERGO    C213596   5.615  14.176   8.273 -0.1058  0.1782 -0.0436
 1198ERGO   ROH13597   7.569   8.556   6.821  0.1083 -0.0529  0.0434
 1198ERGO    R113598   7.577   8.641   7.091  0.1805 -0.0784  0.0492
 1198ERGO    R213599   7.352   8.648   7.251  0.1940  0.0542  0.0639
 1198ERGO    R313600   7.504   8.495   7.416  0.1073 -0.0577  0.0419
 1198ERGO    R413601   7.316   8.632   7.595  0.1935  0.0254  0.0630
 1198ERGO    R513602   7.533   8.630   7.612  0.1908 -0.1039  0.0600
 1198ERGO    C113603   7.437   8.479   7.949  0.1118 -0.0964  0.0418
 1198ERGO    C213604   7.358   8.402   8.303 -0.3698 -0.1711  0.0787
 1199ERGO   ROH13605   3.011   9.893   6.684 -0.2825  0.2968  0.2470
 1199ERGO    R113606   2.948   9.787   6.939 -0.2176  0.2318  0.2357
 1199ERGO    R213607   3.076   9.566   7.044 -0.2505  0.1562  0.1103
 1199ERGO    R313608   3.125   9.732   7.253 -0.1143  0.0675  0.1513
 1199ERGO    R413609   3.189   9.465   7.355 -0.0106  0.0205 -0.0173
 1199ERGO    R513610   3.053   9.609   7.445  0.0377 -0.0314  0.1498
 1199ERGO    C113611   3.300   9.563   7.732  0.2570 -0.1420 -0.0531
 1199ERGO    C213612   3.533   9.486   7.973  0.4066  0.2214 -0.0798
 1200ERGO   ROH13613  12.451   2.856   7.031 -0.2745 -0.0460  0.0079
 1200ERGO    R113614  12.281   2.714   7.207 -0.3132  0.0433  0.0428
 1200ERGO    R213615  12.375   2.586   7.434 -0.3009 -0.1749 -0.0819
 1200ERGO    R313616  12.186   2.737   7.558 -0.0630 -0.0336  0.1175
 1200ERGO    R413617  12.240   2.519   7.745 -0.1914 -0.1971 -0.0386
 1200ERGO    R513618  12.045   2.579   7.668 -0.1733  0.0609  0.1112
 1200ERGO    C113619  11.984   2.622   8.042  0.0959 -0.0773  0.1739
 1200ERGO    C213620  12.066   2.626   8.395  0.1289  0.1522 -0.0804
 1201ERGO   ROH13621   1.772   5.086   7.349 -0.0026 -0.1293 -0.1266
 1201ERGO    R113622   1.876   4.924   7.558  0.1893 -0.0012 -0.1182
 1201ERGO    R213623   1.948   5.028   7.805 -0.0515  0.0798 -0.0700
 1201ERGO    R313624   1.779   4.837   7.897  0.2125 -0.2065 -0.1654
 1201ERGO    R413625   1.965   4.883   8.118  0.0131  0.0957 -0.0678
 1201ERGO    R513626   1.917   4.692   8.027  0.3799  0.0185 -0.0957
 1201ERGO    C113627   1.815   4.620   8.388  0.2986 -0.1638 -0.1561
 1201ERGO    C213628   1.895   4.379   8.651  0.0456  0.1768  0.3763
 1202ERGO   ROH13629  16.138  12.632   6.246 -0.0295 -0.0789 -0.1059
 1202ERGO    R113630  16.163  12.515   6.502 -0.0881 -0.0874 -0.1027
 1202ERGO    R213631  16.405  12.489   6.631 -0.1067 -0.1399 -0.0673
 1202ERGO    R313632  16.277  12.620   6.832 -0.1094 -0.1120 -0.0888
 1202ERGO    R413633  16.444  12.421   6.968 -0.2018 -0.1639 -0.0620
 1202ERGO    R513634  16.229  12.449   6.993 -0.1949 -0.1012 -0.1065
 1202ERGO    C113635  16.346  12.505   7.352 -0.2594 -0.1517 -0.0792
 1202ERGO    C213636  16.573  12.430   7.542  0.1359 -0.0279 -0.1149
 1203ERGO   ROH13637  16.207   9.192   6.694  0.1716  0.1099  0.0365
 1203ERGO    R113638  16.269   9.268   6.959  0.0790  0.1006  0.0624
 1203ERGO    R213639  16.079   9.280   7.160  0.0115  0.0634  0.0073
 1203ERGO    R313640  16.252   9.115   7.289 -0.0070  0.0745  0.0447
 1203ERGO    R413641  16.104   9.248   7.503 -0.2013 -0.0942  0.0098
 1203ERGO    R513642  16.321   9.239   7.482 -0.1859  0.0064  0.1503
 1203ERGO    C113643  16.282   9.075   7.824 -0.3426 -0.1755  0.0463
 1203ERGO    C213644  16.293   8.996   8.144  0.4030  0.1173 -0.0571
 1204ERGO   ROH13645   5.354  12.762   6.399 -0.0860  0.1228  0.1084
 1204ERGO    R113646   5.514  12.729   6.631 -0.0257  0.0697  0.0599
 1204ERGO    R213647   5.469  12.869   6.864  0.1252  0.1260  0.0598
 1204ERGO    R313648   5.462  12.621   6.974  0.0301  0.1421  0.0904
 1204ERGO    R413649   5.515  12.801   7.200  0.0375  0.1486  0.0764
 1204ERGO    R513650   5.632  12.626   7.143 -0.0046  0.1092  0.1228
 1204ERGO    C113651   5.536  12.527   7.498 -0.1029  0.1769  0.1148
 1204ERGO    C213652   5.445  12.357   7.856 -0.0117  0.2205  0.0714
 1205ERGO   ROH13653   9.960   4.111   6.327  0.3328  0.1278 -0.0215
 1205ERGO    R113654   9.811   3.985   6.531  0.1509  0.0834 -0.1799
 1205ERGO    R213655   9.925   3.816   6.717 -0.0148  0.0334 -0.1213
 1205ERGO    R313656   9.808   3.984   6.895 -0.1621 -0.0054 -0.1799
 1205ERGO    R413657   9.877   3.745   7.052  0.3914  0.2532 -0.0086
 1205ERGO    R513658   9.680   3.839   7.038  0.2080 -0.1044  0.0638
 1205ERGO    C113659   9.738   3.862   7.414  0.4897  0.3448  0.0020
 1205ERGO    C213660   9.656   3.786   7.699  0.0198 -0.1844 -0.0681
 1206ERGO   ROH13661   7.691   7.686   6.647  0.1272 -0.1626  0.0725
 1206ERGO    R113662   7.712   7.754   6.921  0.0429 -0.0490  0.0516
 1206ERGO    R213663   7.627   7.586   7.123 -0.0610  0.0533  0.0952
 1206ERGO    R313664   7.880   7.620   7.214 -0.0862  0.0437  0.1691
 1206ERGO    R413665   7.724   7.555   7.453 -0.1704  0.1236  0.1348
 1206ERGO    R513666   7.854   7.728   7.426 -0.1404  0.0998  0.1334
 1206ERGO    C113667   8.020   7.569   7.731 -0.2578  0.1556  0.2272
 1206ERGO    C213668   8.166   7.592   8.002  0.0372  0.3177  0.4009
 1207ERGO   ROH13669   1.157   0.922   7.010 -0.1720 -0.0727 -0.0452
 1207ERGO    R113670   1.185   0.818   7.271 -0.1128 -0.1069 -0.0646
 1207ERGO    R213671   0.975   0.700   7.408 -0.1007 -0.0604 -0.0052
 1207ERGO    R313672   1.150   0.493   7.432 -0.1517 -0.1132 -0.0851
 1207ERGO    R413673   0.947   0.445   7.639 -0.0565 -0.0307  0.0326
 1207ERGO    R513674   1.163   0.455   7.669 -0.0349 -0.0961 -0.0873
 1207ERGO    C113675   1.095   0.102   7.797 -0.0787 -0.0630 -0.0204
 1207ERGO    C213676   1.229  -0.164   7.823 -0.0552  0.0173  0.2284
 1208ERGO   ROH13677   1.420  12.264   6.300  0.0236 -0.1212 -0.1936
 1208ERGO    R113678   1.515  12.144   6.538  0.1102  0.0287 -0.1504
 1208ERGO    R213679   1.648  12.286   6.734 -0.0444  0.2071 -0.1691
 1208ERGO    R313680   1.456  12.181   6.895  0.0320  0.0676 -0.1679
 1208ERGO    R413681   1.661  12.277   7.079 -0.0453  0.2294 -0.1688
 1208ERGO    R513682   1.577  12.077   7.073  0.1065  0.1658 -0.1621
 1208ERGO    C113683   1.489  12.173   7.431  0.0260  0.1113 -0.1676
 1208ERGO    C213684   1.318  12.418   7.714  0.1936 -0.1182 -0.2381
 1209ERGO   ROH13685   8.390   8.876   6.800  0.0588 -0.2752  0.0672
 1209ERGO    R113686   8.516   8.900   7.052  0.0597 -0.1983  0.0610
 1209ERGO    R213687   8.410   9.051   7.258  0.1229 -0.0304 -0.0213
 1209ERGO    R313688   8.434   8.818   7.397  0.0017  0.0306  0.1016
 1209ERGO    R413689   8.350   9.016   7.597 -0.0386  0.1409 -0.0316
 1209ERGO    R513690   8.523   8.884   7.609 -0.0799  0.1048  0.1099
 1209ERGO    C113691   8.337   8.777   7.924 -0.2466  0.2978  0.0777
 1209ERGO    C213692   8.152   8.843   8.248 -0.1902 -0.1043  0.1634
 1210ERGO   ROH13693  13.002  12.067   6.513 -0.0569  0.1335  0.0403
 1210ERGO    R113694  12.946  11.871   6.709 -0.0702  0.0754 -0.0217
 1210ERGO    R213695  13.129  11.796   6.902 -0.1212  0.0952  0.0315
 1210ERGO    R313696  12.927  11.859   7.073 -0.2062 -0.0065 -0.0299
 1210ERGO    R413697  13.125  11.720   7.239 -0.0617  0.3164  0.0837
 1210ERGO    R513698  12.914  11.671   7.220 -0.0116  0.0728  0.0966
 1210ERGO    C113699  12.933  11.735   7.596 -0.1068  0.3497  0.0565
 1210ERGO    C213700  13.073  11.708   7.854  0.0218 -0.0147 -0.2325
 1211ERGO   ROH13701   7.320   5.647   6.693  0.0162  0.0797  0.0607
 1211ERGO    R113702   7.394   5.562   6.953  0.0573  0.0676  0.0454
 1211ERGO    R213703   7.520   5.729   7.133  0.0047  0.0871  0.0665
 1211ERGO    R313704   7.314   5.657   7.295  0.0361 -0.0119  0.0622
 1211ERGO    R413705   7.507   5.785   7.474 -0.0195  0.0597  0.0698
 1211ERGO    R513706   7.420   5.587   7.498  0.0658  0.0207  0.0573
 1211ERGO    C113707   7.306   5.750   7.824 -0.0042 -0.0493  0.0677
 1211ERGO    C213708   7.475   5.857   8.137  0.0846 -0.3850 -0.0561
 1212ERGO   ROH13709   5.061  16.434   6.985 -0.2172 -0.1882  0.1441
 1212ERGO    R113710   5.114  16.311   7.234 -0.0262 -0.0567  0.1702
 1212ERGO    R213711   5.264  16.433   7.431 -0.1503  0.1878  0.1159
 1212ERGO    R313712   5.045  16.383   7.585 -0.0689 -0.0488  0.1606
 1212ERGO    R413713   5.274  16.319   7.757  0.0372  0.1331  0.0926
 1212ERGO    R513714   5.105  16.188   7.711  0.1467 -0.0196  0.1094
 1212ERGO    C113715   5.075  16.206   8.091  0.2227 -0.1208  0.1210
 1212ERGO    C213716   5.010  16.238   8.470 -0.0104  0.1788  0.1763
 1213ERGO   ROH13717   5.698  17.683   7.058 -0.0578 -0.1760  0.0486
 1213ERGO    R113718   5.629  17.647   7.331 -0.0027 -0.1678  0.0632
 1213ERGO    R213719   5.818  17.601   7.527  0.0544  0.0334  0.0555
 1213ERGO    R313720   5.700  17.815   7.646 -0.1102 -0.0340  0.0175
 1213ERGO    R413721   5.820  17.665   7.867  0.1699  0.1919  0.0265
 1213ERGO    R513722   5.612  17.729   7.851  0.0900 -0.0345  0.1058
 1213ERGO    C113723   5.710  17.903   8.176  0.0827  0.2211 -0.0260
 1213ERGO    C213724   5.886  18.109   8.380  0.0198 -0.0881  0.1708
 1214ERGO   ROH13725   2.349   5.674   7.432  0.1427  0.2265 -0.0322
 1214ERGO    R113726   2.436   5.555   7.674  0.0580  0.2245 -0.0028
 1214ERGO    R213727   2.296   5.582   7.911 -0.0680  0.1551 -0.0693
 1214ERGO    R313728   2.307   5.310   7.910  0.0142  0.1577 -0.0952
 1214ERGO    R413729   2.284   5.383   8.194 -0.1413  0.1202 -0.0964
 1214ERGO    R513730   2.436   5.255   8.104 -0.0596  0.1755 -0.0396
 1214ERGO    C113731   2.286   5.012   8.357 -0.1068  0.1022 -0.1364
 1214ERGO    C213732   2.144   4.888   8.650 -0.3116  0.1713 -0.0520
 1215ERGO   ROH13733  12.836   6.397   7.017  0.1021  0.2834  0.0316
 1215ERGO    R113734  12.762   6.358   7.288 -0.1307  0.3085 -0.0257
 1215ERGO    R213735  12.946   6.360   7.494 -0.2574 -0.0105  0.0986
 1215ERGO    R313736  12.780   6.550   7.597 -0.0604  0.1976  0.0393
 1215ERGO    R413737  12.932   6.452   7.827 -0.3680 -0.1088  0.1213
 1215ERGO    R513738  12.716   6.463   7.810 -0.3449  0.2129 -0.0369
 1215ERGO    C113739  12.769   6.684   8.117 -0.2473  0.0292  0.0788
 1215ERGO    C213740  12.998   6.832   8.340 -0.1687 -0.0173 -0.1983
 1216ERGO   ROH13741  16.923   7.190   7.486  0.0379 -0.0431 -0.0486
 1216ERGO    R113742  16.765   7.252   7.712  0.1138 -0.0203 -0.0014
 1216ERGO    R213743  16.525   7.125   7.765  0.0726  0.0683  0.0275
 1216ERGO    R313744  16.642   7.074   8.005  0.1060 -0.0258 -0.0078
 1216ERGO    R413745  16.364   6.991   8.040  0.0715  0.1106  0.0476
 1216ERGO    R513746  16.474   7.129   8.167  0.1731  0.0368  0.0412
 1216ERGO    C113747  16.380   6.866   8.426  0.1023  0.0469  0.0262
 1216ERGO    C213748  16.236   6.691   8.725  0.1012 -0.1935 -0.1052
 1217ERGO   ROH13749   8.785   0.539   6.342  0.0243 -0.0548 -0.0633
 1217ERGO    R113750   8.741   0.459   6.611 -0.0963 -0.0770 -0.0890
 1217ERGO    R213751   8.650   0.633   6.805  0.0230 -0.0385 -0.0682
 1217ERGO    R313752   8.459   0.443   6.839 -0.1543  0.1232 -0.1441
 1217ERGO    R413753   8.471   0.584   7.096 -0.0017 -0.0042 -0.0774
 1217ERGO    R513754   8.488   0.369   7.065 -0.2054 -0.0099 -0.1794
 1217ERGO    C113755   8.187   0.377   7.298 -0.1826  0.1675 -0.1541
 1217ERGO    C213756   8.172   0.455   7.597  0.0073 -0.1553 -0.2425
 1218ERGO   ROH13757  15.935  10.184   6.822 -0.0639  0.0258 -0.0635
 1218ERGO    R113758  15.940  10.325   7.068 -0.0113  0.0803 -0.0951
 1218ERGO    R213759  15.835  10.221   7.302  0.0090  0.1446 -0.0545
 1218ERGO    R313760  16.083  10.275   7.398  0.0304  0.1352 -0.1054
 1218ERGO    R413761  15.904  10.326   7.623  0.0860  0.0976 -0.0557
 1218ERGO    R513762  16.052  10.464   7.542  0.0626  0.1118 -0.0697
 1218ERGO    C113763  16.177  10.439   7.902  0.1511  0.0614 -0.1042
 1218ERGO    C213764  16.247  10.359   8.271  0.4299 -0.1300 -0.1864
 1219ERGO   ROH13765  16.462   1.594   7.219 -0.0353  0.1250  0.0015
 1219ERGO    R113766  16.309   1.547   7.452 -0.0455  0.1390 -0.0025
 1219ERGO    R213767  16.418   1.443   7.684 -0.0928 -0.0237 -0.0516
 1219ERGO    R313768  16.308   1.665   7.796  0.0665  0.0088  0.0432
 1219ERGO    R413769  16.394   1.500   8.024 -0.0293 -0.1382 -0.0271
 1219ERGO    R513770  16.195   1.583   7.990  0.0241  0.0112  0.0189
 1219ERGO    C113771  16.276   1.742   8.327  0.1572 -0.1743  0.0761
 1219ERGO    C213772  16.174   1.912   8.650 -0.2226  0.0672  0.0971
 1220ERGO   ROH13773  10.057   7.467   6.621 -0.0341 -0.2140  0.0693
 1220ERGO    R113774  10.082   7.712   6.760  0.0002 -0.1851  0.0126
 1220ERGO    R213775   9.874   7.824   6.904  0.0048 -0.1059 -0.0396
 1220ERGO    R313776  10.057   7.825   7.105 -0.0193 -0.0966 -0.0178
 1220ERGO    R413777   9.860   8.027   7.183 -0.0526 -0.1291 -0.0254
 1220ERGO    R513778  10.076   8.055   7.167 -0.0556 -0.0999  0.0024
 1220ERGO    C113779  10.024   8.147   7.534 -0.1087 -0.1340  0.0034
 1220ERGO    C213780  10.050   8.166   7.898  0.0281  0.2085 -0.0554
 1221ERGO   ROH13781  10.881   3.229   6.689  0.0908 -0.3066 -0.1493
 1221ERGO    R113782  10.924   3.329   6.950 -0.2867 -0.2544 -0.1011
 1221ERGO    R213783  10.822   3.205   7.175 -0.1590 -0.5289 -0.1854
 1221ERGO    R313784  11.081   3.209   7.256 -0.2034  0.0284 -0.0318
 1221ERGO    R413785  10.928   3.137   7.496 -0.1845 -0.4143 -0.1524
 1221ERGO    R513786  11.072   3.300   7.478 -0.5381 -0.0752 -0.0007
 1221ERGO    C113787  11.234   3.101   7.760 -0.2410  0.1757  0.0110
 1221ERGO    C213788  11.160   2.906   8.057  0.2709  0.0185  0.2830
 1222ERGO   ROH13789   6.142   8.830   6.706 -0.0862  0.1930  0.0463
 1222ERGO    R113790   6.255   8.776   6.960  0.2319  0.2991 -0.0661
 1222ERGO    R213791   6.396   8.965   7.103 -0.0924  0.5570 -0.0603
 1222ERGO    R313792   6.218   8.904   7.299  0.1751  0.0197  0.0335
 1222ERGO    R413793   6.441   9.033   7.439 -0.1519  0.7408 -0.0894
 1222ERGO    R513794   6.354   8.838   7.485  0.4716  0.4626 -0.0199
 1222ERGO    C113795   6.300   9.016   7.818  0.0645  0.3433 -0.0184
 1222ERGO    C213796   6.239   9.048   8.132 -0.1453  0.0073  0.1080
 1223ERGO   ROH13797   0.694   8.370   7.011  0.0170  0.1523  0.0581
 1223ERGO    R113798   0.716   8.223   7.253 -0.1089  0.1132  0.0466
 1223ERGO    R213799   0.890   8.296   7.455 -0.1050 -0.0059  0.0853
 1223ERGO    R313800   0.664   8.289   7.607 -0.1370  0.1035  0.0446
 1223ERGO    R413801   0.878   8.356   7.795 -0.1676  0.1985  0.0486
 1223ERGO    R513802   0.736   8.193   7.815 -0.1858  0.2204  0.1174
 1223ERGO    C113803   0.660   8.384   8.136 -0.2343  0.4202 -0.0109
 1223ERGO    C213804   0.807   8.305   8.417  0.0187 -0.0683 -0.0291
 1224ERGO   ROH13805  12.540  13.794   6.447 -0.3590 -0.0266 -0.0311
 1224ERGO    R113806  12.635  13.697   6.696 -0.4339 -0.1594 -0.0530
 1224ERGO    R213807  12.740  13.864   6.890 -0.0762 -0.3077 -0.1098
 1224ERGO    R313808  12.552  13.745   7.047 -0.2310  0.0309 -0.0289
 1224ERGO    R413809  12.717  13.902   7.232 -0.0419 -0.0388 -0.1354
 1224ERGO    R513810  12.670  13.690   7.248 -0.3050  0.0253  0.0129
 1224ERGO    C113811  12.527  13.813   7.579 -0.1673  0.4357 -0.0743
 1224ERGO    C213812  12.524  13.962   7.943 -0.1051 -0.0563 -0.1984
 1225ERGO   ROH13813   9.071   9.449   6.707 -0.0374  0.2110 -0.0319
 1225ERGO    R113814   9.179   9.522   6.958 -0.0061 -0.0250  0.0265
 1225ERGO    R213815   9.128   9.767   7.076  0.3720  0.0498  0.0538
 1225ERGO    R313816   9.048   9.613   7.285  0.0159  0.1399 -0.0105
 1225ERGO    R413817   9.130   9.867   7.407  0.3250  0.0020  0.0680
 1225ERGO    R513818   9.201   9.668   7.461 -0.0047 -0.1127  0.0873
 1225ERGO    C113819   9.056   9.780   7.796 -0.0367  0.0585  0.0160
 1225ERGO    C213820   9.059   9.979   8.134  0.2843 -0.0916 -0.2496
 1226ERGO   ROH13821  16.508   1.048   7.293  0.1942 -0.0448 -0.0290
 1226ERGO    R113822  16.535   0.915   7.541  0.1074 -0.0201 -0.0065
 1226ERGO    R213823  16.640   1.038   7.765  0.0280  0.0007  0.0154
 1226ERGO    R313824  16.407   0.956   7.879 -0.0105  0.0111 -0.0539
 1226ERGO    R413825  16.610   0.910   8.085 -0.0968  0.1771  0.0765
 1226ERGO    R513826  16.468   0.764   8.008 -0.0256  0.0973  0.0874
 1226ERGO    C113827  16.374   0.759   8.378 -0.2056  0.2895  0.0470
 1226ERGO    C213828  16.426   0.572   8.645  0.1890 -0.0944 -0.0871
 1227ERGO   ROH13829  15.345   2.931   6.972  0.0572  0.1834 -0.1099
 1227ERGO    R113830  15.216   3.006   7.212  0.0382  0.2163 -0.1299
 1227ERGO    R213831  15.256   2.874   7.451 -0.2245  0.0448 -0.1744
 1227ERGO    R313832  15.317   3.122   7.542  0.0327 -0.0689 -0.0257
 1227ERGO    R413833  15.258   2.967   7.784 -0.3912 -0.0847 -0.1354
 1227ERGO    R513834  15.168   3.157   7.726 -0.0853  0.0617 -0.1458
 1227ERGO    C113835  15.317   3.256   8.062 -0.2469 -0.2668  0.0270
 1227ERGO    C213836  15.369   3.284   8.369  0.0471  0.0525 -0.1148
 1228ERGO   ROH13837   2.686   8.323   6.597 -0.1087 -0.1431 -0.0286
 1228ERGO    R113838   2.772   8.321   6.867 -0.3185 -0.2218  0.0385
 1228ERGO    R213839   2.969   8.490   6.961 -0.1304 -0.5084  0.1471
 1228ERGO    R313840   2.779   8.555   7.145 -0.1670 -0.1732 -0.0019
 1228ERGO    R413841   3.029   8.539   7.298 -0.2654 -0.4712  0.1675
 1228ERGO    R513842   2.843   8.434   7.342 -0.4545 -0.2013  0.0877
 1228ERGO    C113843   2.886   8.630   7.666 -0.3784 -0.1347  0.0395
 1228ERGO    C213844   3.018   8.682   7.923 -0.2663  0.3041  0.2196
 1229ERGO   ROH13845   3.052  17.715   6.867 -0.0903 -0.0721  0.0734
 1229ERGO    R113846   2.980  17.676   7.138  0.0279 -0.0084  0.1150
 1229ERGO    R213847   3.147  17.741   7.347  0.0461  0.2185  0.0338
 1229ERGO    R313848   2.933  17.885   7.432 -0.0412  0.0884  0.0357
 1229ERGO    R413849   3.113  17.876   7.664  0.0264  0.3114 -0.0079
 1229ERGO    R513850   2.903  17.818   7.660  0.0692  0.1508  0.0685
 1229ERGO    C113851   2.892  18.090   7.927 -0.0671  0.2434 -0.0303
 1229ERGO    C213852   2.779  18.172   8.179 -0.1241 -0.1055  0.0649
 1230ERGO   ROH13853   7.739  13.039   6.589 -0.2094 -0.2170 -0.0512
 1230ERGO    R113854   7.798  12.934   6.845  0.0184 -0.1188 -0.0587
 1230ERGO    R213855   7.974  13.056   7.019 -0.0375  0.1093 -0.1415
 1230ERGO    R313856   7.763  13.044   7.190  0.0370 -0.1045 -0.0648
 1230ERGO    R413857   7.986  13.143   7.353 -0.0690  0.3229 -0.1962
 1230ERGO    R513858   7.859  12.972   7.397  0.2054  0.1636 -0.0528
 1230ERGO    C113859   7.794  13.182   7.708 -0.0173  0.2468 -0.1559
 1230ERGO    C213860   7.804  13.355   8.050  0.0155 -0.0367 -0.1136
 1231ERGO   ROH13861  16.624  13.317   6.505 -0.0773 -0.0128  0.0244
 1231ERGO    R113862  16.612  13.453   6.753 -0.0746  0.0214  0.0057
 1231ERGO    R213863  16.407  13.413   6.934  0.0018 -0.0612  0.0758
 1231ERGO    R313864  16.612  13.361   7.105  0.0848  0.0780  0.0207
 1231ERGO    R413865  16.395  13.455   7.277  0.0906 -0.0164  0.0741
 1231ERGO    R513866  16.598  13.533   7.270  0.0441  0.0941 -0.0015
 1231ERGO    C113867  16.580  13.430   7.637  0.2201  0.1405  0.0215
 1231ERGO    C213868  16.617  13.338   7.947 -0.0017  0.1417 -0.0445
 1232ERGO   ROH13869  17.316  17.959   6.931 -0.0648 -0.1449 -0.0675
 1232ERGO    R113870  17.230  17.954   7.201  0.0771 -0.0360 -0.0186
 1232ERGO    R213871  17.162  17.720   7.331 -0.1806  0.0490  0.0079
 1232ERGO    R313872  17.345  17.805   7.512  0.0450 -0.2144 -0.0916
 1232ERGO    R413873  17.182  17.609   7.657 -0.2778  0.1488  0.0482
 1232ERGO    R513874  17.225  17.813   7.719  0.1283  0.1012 -0.0528
 1232ERGO    C113875  17.367  17.623   8.018 -0.1229 -0.0407 -0.0217
 1232ERGO    C213876  17.509  17.441   8.295  0.1664 -0.2195 -0.0461
 1233ERGO   ROH13877   0.664  10.071   6.632  0.3101 -0.3017  0.1100
 1233ERGO    R113878   0.707  10.147   6.901  0.1271 -0.1864  0.1084
 1233ERGO    R213879   0.960  10.193   7.004  0.0587 -0.1620  0.2658
 1233ERGO    R313880   0.852  10.432   7.075  0.0276 -0.1211  0.0862
 1233ERGO    R413881   1.028  10.361   7.298  0.2051  0.1702  0.0483
 1233ERGO    R513882   0.818  10.414   7.311  0.1936  0.1129  0.1334
 1233ERGO    C113883   0.968  10.683   7.536  0.2611  0.4019 -0.2470
 1233ERGO    C213884   1.256  10.827   7.629 -0.1073 -0.1666 -0.0134
 1234ERGO   ROH13885   2.473   7.857   6.667 -0.0994 -0.0445  0.0299
 1234ERGO    R113886   2.407   8.012   6.895 -0.0039  0.0882 -0.0316
 1234ERGO    R213887   2.350   7.900   7.141 -0.1170  0.2182  0.0048
 1234ERGO    R313888   2.546   8.067   7.226  0.0054  0.0984 -0.0377
 1234ERGO    R413889   2.354   8.057   7.448  0.0746  0.1802  0.0225
 1234ERGO    R513890   2.430   8.237   7.350  0.1425  0.1490  0.0213
 1234ERGO    C113891   2.541   8.307   7.708  0.3011  0.0455 -0.0072
 1234ERGO    C213892   2.647   8.255   7.964  0.0378 -0.0289 -0.2960
 1235ERGO   ROH13893   9.566   9.162   6.679 -0.2451  0.2838  0.1054
 1235ERGO    R113894   9.627   9.189   6.954 -0.0540 -0.1031  0.1072
 1235ERGO    R213895   9.837   9.055   7.074  0.4187  0.1789 -0.3650
 1235ERGO    R313896   9.911   9.305   7.151 -0.1463  0.2361  0.0490
 1235ERGO    R413897  10.010   9.129   7.363  0.3375  0.0751 -0.2892
 1235ERGO    R513898   9.883   9.304   7.389 -0.0775 -0.2533  0.0669
 1235ERGO    C113899  10.180   9.407   7.605 -0.2402  0.0685  0.1437
 1235ERGO    C213900  10.377   9.429   7.788  0.0992  0.1391  0.0766
 1236ERGO   ROH13901  14.566   4.985   7.232  0.1945  0.1290 -0.0157
 1236ERGO    R113902  14.413   5.043   7.463  0.0796  0.0263 -0.0644
 1236ERGO    R213903  14.246   4.857   7.582  0.2340 -0.1166 -0.0664
 1236ERGO    R313904  14.391   4.918   7.804  0.1227  0.0748 -0.0436
 1236ERGO    R413905  14.138   4.812   7.907  0.1693 -0.0822 -0.0833
 1236ERGO    R513906  14.230   5.003   7.959  0.0091  0.0086 -0.1231
 1236ERGO    C113907  14.211   4.842   8.305  0.0270  0.1175 -0.0717
 1236ERGO    C213908  14.222   4.875   8.648 -0.0752 -0.1027 -0.1268
 1237ERGO   ROH13909   2.970  13.621   6.493  0.2809  0.0334  0.0131
 1237ERGO    R113910   2.959  13.750   6.745  0.0936  0.0088  0.0167
 1237ERGO    R213911   2.860  14.006   6.776  0.0022 -0.0290 -0.0216
 1237ERGO    R313912   2.699  13.887   6.960 -0.0732 -0.0836 -0.1201
 1237ERGO    R413913   2.737  14.159   7.060  0.0393 -0.1534  0.0636
 1237ERGO    R513914   2.773  13.974   7.170 -0.0528 -0.2492 -0.0506
 1237ERGO    C113915   2.515  14.136   7.398 -0.0098 -0.2771  0.0207
 1237ERGO    C213916   2.312  14.243   7.626 -0.0495  0.2856  0.0370
 1238ERGO   ROH13917   6.624   3.615   6.392 -0.3059 -0.3095 -0.0232
 1238ERGO    R113918   6.795   3.584   6.615 -0.2726 -0.2628 -0.0416
 1238ERGO    R213919   6.827   3.781   6.807 -0.1253 -0.1592 -0.1691
 1238ERGO    R313920   6.760   3.581   6.978 -0.1962 -0.0190 -0.0297
 1238ERGO    R413921   6.911   3.772   7.142 -0.0528  0.0003 -0.1823
 1238ERGO    R513922   6.951   3.558   7.121 -0.1747 -0.0362 -0.0608
 1238ERGO    C113923   6.897   3.579   7.498 -0.0770  0.2248 -0.0590
 1238ERGO    C213924   7.008   3.555   7.823  0.1353  0.0902  0.1278
 1239ERGO   ROH13925  17.298   1.616   7.209 -0.0601  0.3036  0.0402
 1239ERGO    R113926  17.375   1.502   7.456  0.0422  0.2111 -0.0332
 1239ERGO    R213927  17.581   1.604   7.609  0.0116  0.2421 -0.0115
 1239ERGO    R313928  17.392   1.610   7.804  0.0382  0.0329  0.0232
 1239ERGO    R413929  17.630   1.729   7.928 -0.0019  0.0763  0.0566
 1239ERGO    R513930  17.512   1.562   8.005  0.0921 -0.0284 -0.0238
 1239ERGO    C113931  17.480   1.807   8.296  0.0150 -0.2166  0.1289
 1239ERGO    C213932  17.601   1.847   8.582  0.1866  0.0025 -0.0058
 1240ERGO   ROH13933  14.079   1.505   6.678 -0.0502  0.0885 -0.0249
 1240ERGO    R113934  14.001   1.391   6.925 -0.1169  0.0925 -0.0447
 1240ERGO    R213935  14.165   1.393   7.148 -0.1348 -0.0003 -0.0337
 1240ERGO    R313936  13.949   1.509   7.265 -0.0965  0.0742 -0.0345
 1240ERGO    R413937  14.090   1.375   7.485 -0.1262  0.0473 -0.0285
 1240ERGO    R513938  13.880   1.351   7.432 -0.1373  0.1058 -0.0192
 1240ERGO    C113939  13.844   1.474   7.791 -0.0853  0.1450 -0.0262
 1240ERGO    C213940  13.795   1.586   8.157 -0.1042  0.0779 -0.0130
 1241ERGO   ROH13941   2.629   6.736   6.934  0.0623  0.1162  0.0903
 1241ERGO    R113942   2.528   6.657   7.187 -0.0825  0.0067  0.0010
 1241ERGO    R213943   2.603   6.421   7.310 -0.1396 -0.0416 -0.0489
 1241ERGO    R313944   2.667   6.586   7.516 -0.2697 -0.1175  0.0533
 1241ERGO    R413945   2.664   6.318   7.634  0.1928 -0.2208 -0.1635
 1241ERGO    R513946   2.553   6.493   7.705 -0.0265 -0.4407  0.0430
 1241ERGO    C113947   2.759   6.414   8.017  0.2644 -0.3965 -0.1342
 1241ERGO    C213948   3.083   6.415   8.166 -0.0667  0.0249  0.2005
 1242ERGO   ROH13949  11.321   9.459   6.729  0.0587  0.1395  0.1104
 1242ERGO    R113950  11.224   9.502   6.991 -0.0067  0.0500  0.1010
 1242ERGO    R213951  10.963   9.449   7.064 -0.0212  0.0184  0.0194
 1242ERGO    R313952  11.081   9.298   7.256 -0.0660 -0.0413  0.0006
 1242ERGO    R413953  10.834   9.399   7.381  0.0201  0.1197  0.0529
 1242ERGO    R513954  11.037   9.417   7.460  0.0534  0.0022  0.0038
 1242ERGO    C113955  10.870   9.227   7.746  0.0020  0.1229  0.0548
 1242ERGO    C213956  10.682   9.101   7.955  0.7004  0.0344 -0.1797
 1243ERGO   ROH13957  14.113  11.007   6.675  0.3049  0.2789  0.0769
 1243ERGO    R113958  13.971  10.964   6.916  0.0275  0.3573 -0.0683
 1243ERGO    R213959  14.098  10.935   7.160 -0.2143 -0.0630  0.0160
 1243ERGO    R313960  13.931  11.136   7.234  0.0958  0.1980  0.0287
 1243ERGO    R413961  14.049  11.043   7.485 -0.2259 -0.1757  0.0524
 1243ERGO    R513962  13.837  11.063   7.442 -0.1708  0.2335 -0.0747
 1243ERGO    C113963  13.864  11.294   7.744  0.0583  0.0038  0.0855
 1243ERGO    C213964  13.584  11.576   7.956 -0.0341  0.0669  0.3791
 1244ERGO   ROH13965  14.963   4.474   7.106 -0.1735 -0.1207 -0.0109
 1244ERGO    R113966  15.083   4.345   7.327 -0.1202  0.0009  0.0324
 1244ERGO    R213967  15.168   4.482   7.552 -0.2481  0.1010  0.0213
 1244ERGO    R313968  15.008   4.303   7.681 -0.1487  0.0163  0.0280
 1244ERGO    R413969  15.206   4.383   7.881 -0.1470  0.0740  0.0016
 1244ERGO    R513970  15.158   4.179   7.821 -0.0711  0.0615 -0.0152
 1244ERGO    C113971  15.080   4.157   8.193  0.0053 -0.0213 -0.0035
 1244ERGO    C213972  15.109   4.093   8.530  0.0753 -0.1930  0.2229
 1245ERGO   ROH13973   8.187  10.854   6.719 -0.0878 -0.2531  0.0611
 1245ERGO    R113974   8.304  10.804   6.972 -0.0065 -0.2038  0.0344
 1245ERGO    R213975   8.428  11.001   7.121 -0.0248 -0.1559 -0.0072
 1245ERGO    R313976   8.255  10.918   7.313  0.0470 -0.1971  0.0389
 1245ERGO    R413977   8.489  11.015   7.460 -0.0032 -0.0017 -0.0175
 1245ERGO    R513978   8.395  10.820   7.481  0.1218 -0.0512  0.0598
 1245ERGO    C113979   8.363  10.946   7.839  0.0766  0.0495  0.0197
 1245ERGO    C213980   8.254  10.973   8.068  0.0161 -0.0711  0.0125
 1246ERGO   ROH13981   1.107  14.877   6.776  0.1944 -0.1403 -0.1386
 1246ERGO    R113982   0.842  14.799   6.841  0.1624 -0.0780 -0.1924
 1246ERGO    R213983   0.775  14.538   6.903  0.0879 -0.0623 -0.2068
 1246ERGO    R313984   0.673  14.652   7.127  0.0689 -0.0394 -0.2272
 1246ERGO    R413985   0.503  14.418   7.078  0.0777 -0.0511 -0.2154
 1246ERGO    R513986   0.436  14.624   7.106  0.0706 -0.0484 -0.2431
 1246ERGO    C113987   0.248  14.455   7.391  0.0540 -0.0232 -0.2394
 1246ERGO    C213988   0.164  14.362   7.663  0.2253 -0.0277 -0.3275
 1247ERGO   ROH13989  13.334   9.945   6.917 -0.1075  0.0666  0.1500
 1247ERGO    R113990  13.498   9.897   7.142 -0.1004 -0.1462  0.1013
 1247ERGO    R213991  13.599  10.101   7.299  0.2297 -0.2735  0.0571
 1247ERGO    R313992  13.482   9.960   7.500  0.1008 -0.1006  0.1056
 1247ERGO    R413993  13.699  10.110   7.630  0.3915 -0.4043  0.0123
 1247ERGO    R513994  13.665   9.894   7.640  0.0757 -0.3659  0.0279
 1247ERGO    C113995  13.648   9.982   8.011  0.3646 -0.3182  0.0317
 1247ERGO    C213996  13.716   9.982   8.393  0.0023  0.0416 -0.0264
 1248ERGO   ROH13997   5.277   1.184   7.048 -0.0733  0.0601 -0.0015
 1248ERGO    R113998   5.459   1.081   7.239  0.0502  0.0483 -0.1242
 1248ERGO    R213999   5.538   1.225   7.461  0.1432  0.0096 -0.1334
 1248ERGO    R314000   5.453   1.004   7.595  0.2584 -0.0384 -0.1380
 1248ERGO    R414001   5.505   1.202   7.804 -0.2590  0.1365 -0.1578
 1248ERGO    R514002   5.586   1.000   7.794  0.0188  0.2300  0.0369
 1248ERGO    C114003   5.406   0.980   8.129 -0.3851  0.1655 -0.1765
 1248ERGO    C214004   5.307   1.088   8.436  0.3436 -0.2062 -0.1193
 1249ERGO   ROH14005   5.285   1.693   6.953  0.1752  0.1683 -0.0310
 1249ERGO    R114006   5.438   1.600   7.172  0.1156  0.1778  0.0152
 1249ERGO    R214007   5.691   1.697   7.229  0.1283  0.1319  0.0394
 1249ERGO    R314008   5.582   1.743   7.474  0.0950  0.2071  0.0109
 1249ERGO    R414009   5.869   1.705   7.525  0.0418 -0.0875  0.0989
 1249ERGO    R514010   5.704   1.598   7.621 -0.0970  0.0636  0.0315
 1249ERGO    C114011   5.870   1.752   7.928 -0.0400 -0.1447  0.1069
 1249ERGO    C214012   6.121   1.953   8.068  0.0121  0.1389 -0.0428
 1250ERGO   ROH14013   2.128  17.968   7.003  0.0515  0.0662  0.0476
 1250ERGO    R114014   2.120  17.866   7.267  0.1138  0.0893  0.0593
 1250ERGO    R214015   2.103  18.030   7.489  0.0293  0.1056  0.0448
 1250ERGO    R314016   1.887  17.876   7.546  0.1146 -0.0071  0.0625
 1250ERGO    R414017   1.978  17.976   7.806  0.0397  0.0935  0.0462
 1250ERGO    R514018   1.945  17.767   7.752  0.1624  0.0655  0.0854
 1250ERGO    C114019   1.703  17.799   8.045  0.1258 -0.0191  0.0637
 1250ERGO    C214020   1.696  17.774   8.337 -0.2642 -0.2049 -0.1779
 1251ERGO   ROH14021   1.991  10.249   6.382  0.1292 -0.0616  0.1914
 1251ERGO    R114022   2.095  10.266   6.644  0.1463 -0.0540  0.1838
 1251ERGO    R214023   1.971  10.410   6.844  0.1878 -0.0024  0.1734
 1251ERGO    R314024   1.985  10.174   6.979  0.1422  0.0089  0.1990
 1251ERGO    R414025   1.971  10.379   7.189 -0.0711  0.0102  0.1767
 1251ERGO    R514026   2.121  10.223   7.170 -0.0186  0.0490  0.3032
 1251ERGO    C114027   1.983  10.140   7.515 -0.2646  0.0282  0.2028
 1251ERGO    C214028   1.850  10.235   7.777 -0.0560 -0.3106  0.1463
 1252ERGO   ROH14029  11.977  11.820   6.655  0.0147  0.1369  0.0157
 1252ERGO    R114030  11.916  11.660   6.880  0.0182  0.0899 -0.0171
 1252ERGO    R214031  11.821  11.765   7.118  0.0099  0.0392  0.0017
 1252ERGO    R314032  11.622  11.584   7.080  0.0184  0.0372 -0.0366
 1252ERGO    R414033  11.611  11.647   7.366  0.0437 -0.0593 -0.0153
 1252ERGO    R514034  11.625  11.449   7.277  0.0483 -0.0287 -0.0824
 1252ERGO    C114035  11.301  11.410   7.475  0.0714 -0.1184 -0.0612
 1252ERGO    C214036  11.031  11.454   7.807 -0.2101 -0.0064  0.2183
 1253ERGO   ROH14037   1.829  16.354   7.080 -0.1147 -0.0331 -0.0911
 1253ERGO    R114038   1.759  16.409   7.349 -0.1316  0.0031 -0.1033
 1253ERGO    R214039   1.637  16.222   7.512 -0.0273 -0.0145 -0.0493
 1253ERGO    R314040   1.846  16.277   7.677 -0.0507  0.1374 -0.0691
 1253ERGO    R414041   1.639  16.167   7.853  0.0725 -0.1092 -0.0645
 1253ERGO    R514042   1.744  16.357   7.878 -0.0995 -0.0132 -0.0300
 1253ERGO    C114043   1.837  16.187   8.207  0.1087 -0.0219 -0.0920
 1253ERGO    C214044   2.047  16.204   8.519  0.1458  0.0454 -0.3357
 1254ERGO   ROH14045   1.671   7.327   6.915  0.1708 -0.1359  0.0322
 1254ERGO    R114046   1.884   7.309   7.101  0.2714  0.0971 -0.0535
 1254ERGO    R214047   2.049   7.524   7.160 -0.0282  0.3352 -0.0073
 1254ERGO    R314048   1.973   7.469   7.415  0.1318  0.0858 -0.0105
 1254ERGO    R414049   2.211   7.635   7.444  0.0213  0.2109  0.0125
 1254ERGO    R514050   2.178   7.441   7.535  0.1958  0.1262 -0.1256
 1254ERGO    C114051   2.234   7.649   7.849  0.2003 -0.0956  0.0210
 1254ERGO    C214052   2.363   7.634   8.126 -0.0922  0.0045 -0.0840
 1255ERGO   ROH14053   6.271   7.816   6.492 -0.1116 -0.0024 -0.2070
 1255ERGO    R114054   6.262   7.756   6.768 -0.0408  0.1055 -0.1806
 1255ERGO    R214055   6.024   7.720   6.905 -0.0028  0.0759 -0.1247
 1255ERGO    R314056   6.138   7.484   6.975  0.0931  0.1443 -0.0469
 1255ERGO    R414057   5.903   7.509   7.149 -0.0340  0.0167 -0.1911
 1255ERGO    R514058   6.108   7.473   7.213 -0.0485  0.1390 -0.0624
 1255ERGO    C114059   5.938   7.163   7.358  0.0377  0.0464 -0.1567
 1255ERGO    C214060   5.741   6.959   7.523  0.0835  0.0814  0.1819
 1256ERGO   ROH14061  15.303   6.082   7.383 -0.1077  0.2142 -0.1017
 1256ERGO    R114062  15.192   6.252   7.580 -0.0563  0.0843  0.0410
 1256ERGO    R214063  15.024   6.160   7.779 -0.0017 -0.0470  0.0237
 1256ERGO    R314064  15.204   6.280   7.943  0.0388 -0.1536  0.0589
 1256ERGO    R414065  14.971   6.228   8.114 -0.1201  0.1786 -0.0390
 1256ERGO    R514066  15.070   6.420   8.085  0.1023  0.0632 -0.0858
 1256ERGO    C114067  15.109   6.381   8.463 -0.1509  0.2099 -0.0423
 1256ERGO    C214068  15.134   6.264   8.762  0.0767  0.3538  0.3433
 1257ERGO   ROH14069  14.954  13.474   6.481  0.0550 -0.0842 -0.1365
 1257ERGO    R114070  15.144  13.439   6.688  0.0765  0.0174 -0.1387
 1257ERGO    R214071  15.268  13.652   6.813 -0.1130  0.0897 -0.0687
 1257ERGO    R314072  15.173  13.534   7.039 -0.0225 -0.0623 -0.1085
 1257ERGO    R414073  15.419  13.670   7.124 -0.0703  0.0078 -0.0841
 1257ERGO    R514074  15.370  13.460   7.154  0.0300 -0.0297 -0.1767
 1257ERGO    C114075  15.417  13.570   7.516  0.0394 -0.1827 -0.1305
 1257ERGO    C214076  15.493  13.462   7.891  0.0941 -0.0347 -0.0379
 1258ERGO   ROH14077   3.528  12.940   6.818 -0.1488  0.1405 -0.2375
 1258ERGO    R114078   3.596  13.015   7.082 -0.0248  0.0378 -0.2393
 1258ERGO    R214079   3.591  13.279   7.168  0.0801  0.0100 -0.1535
 1258ERGO    R314080   3.428  13.178   7.361  0.1292 -0.0050 -0.1194
 1258ERGO    R414081   3.518  13.436   7.467  0.0343  0.0657 -0.1938
 1258ERGO    R514082   3.532  13.243   7.567  0.1170  0.0945 -0.1413
 1258ERGO    C114083   3.322  13.433   7.822  0.0537  0.0840 -0.1853
 1258ERGO    C214084   3.163  13.465   8.160  0.1127 -0.0197 -0.0769
 1259ERGO   ROH14085  12.797  15.122   6.644 -0.0590  0.1346  0.0373
 1259ERGO    R114086  12.860  15.060   6.912 -0.0124  0.0803  0.0133
 1259ERGO    R214087  12.967  15.245   7.087 -0.1502  0.0939  0.0805
 1259ERGO    R314088  12.755  15.173   7.242 -0.0965 -0.1213  0.0584
 1259ERGO    R414089  12.906  15.362   7.407 -0.3046  0.0456  0.0704
 1259ERGO    R514090  12.845  15.161   7.464 -0.1048 -0.0216  0.0698
 1259ERGO    C114091  12.673  15.364   7.738 -0.3438 -0.1845  0.0438
 1259ERGO    C214092  12.494  15.475   7.981 -0.0836 -0.2375 -0.1315
 1260ERGO   ROH14093  16.074   3.556   7.168  0.1233  0.3188 -0.1480
 1260ERGO    R114094  16.167   3.756   7.345  0.1363  0.2300 -0.0542
 1260ERGO    R214095  16.042   3.812   7.585  0.1506  0.1138 -0.0210
 1260ERGO    R314096  16.291   3.769   7.687  0.1551  0.0606 -0.0532
 1260ERGO    R414097  16.139   3.887   7.908  0.1185 -0.1935  0.0640
 1260ERGO    R514098  16.329   3.958   7.830  0.1091 -0.0730  0.1419
 1260ERGO    C114099  16.428   3.892   8.192  0.1043 -0.4224  0.0832
 1260ERGO    C214100  16.429   3.857   8.586  0.0909  0.0618  0.1471
 1261ERGO   ROH14101  17.689   0.761   7.016  0.0138 -0.0285 -0.0503
 1261ERGO    R114102  17.687   0.783   7.299  0.0597 -0.0329 -0.0476
 1261ERGO    R214103  17.463   0.729   7.451  0.0184  0.1527 -0.0208
 1261ERGO    R314104  17.633   0.560   7.581 -0.1062  0.0026 -0.0543
 1261ERGO    R414105  17.473   0.683   7.794  0.1867  0.2812 -0.0089
 1261ERGO    R514106  17.690   0.677   7.782  0.1657  0.0108 -0.1422
 1261ERGO    C114107  17.638   0.499   8.115  0.1679  0.2152 -0.0334
 1261ERGO    C214108  17.448   0.469   8.357  0.2058  0.0068 -0.0413
 1262ERGO   ROH14109  11.597  13.567   6.511 -0.1268  0.0319  0.1633
 1262ERGO    R114110  11.552  13.706   6.754 -0.2766 -0.0665  0.1951
 1262ERGO    R214111  11.419  13.592   6.968  0.0152 -0.3348  0.2499
 1262ERGO    R314112  11.644  13.664   7.103 -0.0431  0.0625  0.1499
 1262ERGO    R414113  11.449  13.598   7.312  0.1295 -0.1487  0.2376
 1262ERGO    R514114  11.563  13.783   7.294 -0.1565  0.0176  0.1259
 1262ERGO    C114115  11.677  13.669   7.640  0.1414  0.3325  0.1366
 1262ERGO    C214116  11.506  13.356   7.859  0.5510 -0.0496 -0.1676
 1263ERGO   ROH14117  16.146  17.754   6.886 -0.0322  0.0487 -0.0593
 1263ERGO    R114118  16.225  17.696   7.152 -0.2224 -0.2569 -0.0645
 1263ERGO    R214119  16.280  17.893   7.337  0.3687 -0.4466 -0.0187
 1263ERGO    R314120  16.096  17.759   7.486 -0.0680  0.0676 -0.0615
 1263ERGO    R414121  16.284  17.871   7.682  0.3868 -0.6671 -0.0312
 1263ERGO    R514122  16.224  17.662   7.664 -0.3310 -0.4820 -0.1475
 1263ERGO    C114123  16.114  17.732   8.023 -0.0128 -0.3130 -0.0788
 1263ERGO    C214124  16.156  17.789   8.269  0.2802 -0.0132 -0.3335
 1264ERGO   ROH14125   4.830  10.260   7.011 -0.1433 -0.0891 -0.0239
 1264ERGO    R114126   4.739  10.278   7.279 -0.0534  0.0762 -0.0020
 1264ERGO    R214127   4.753  10.065   7.455 -0.2318  0.1007  0.0514
 1264ERGO    R314128   4.885  10.244   7.610  0.0054  0.0039 -0.0371
 1264ERGO    R414129   4.830  10.018   7.788 -0.0608  0.0709  0.0080
 1264ERGO    R514130   4.780  10.227   7.824  0.1285  0.1069  0.0271
 1264ERGO    C114131   5.000  10.159   8.128  0.2613 -0.0374 -0.1004
 1264ERGO    C214132   5.245  10.228   8.377 -0.0973  0.2635 -0.1747
 1265ERGO   ROH14133  17.591  13.402   6.318  0.0070 -0.1335  0.1235
 1265ERGO    R114134  17.643  13.414   6.596 -0.0729 -0.1178  0.1377
 1265ERGO    R214135  17.442  13.432   6.784 -0.1282 -0.1461  0.0804
 1265ERGO    R314136  17.565  13.213   6.889 -0.1215 -0.1231  0.1212
 1265ERGO    R414137  17.427  13.338   7.117 -0.0839 -0.0577  0.1079
 1265ERGO    R514138  17.639  13.285   7.106 -0.0875 -0.0685  0.0917
 1265ERGO    C114139  17.535  13.078   7.409 -0.0517  0.0153  0.1623
 1265ERGO    C214140  17.464  12.884   7.586 -0.3198  0.0592  0.4517
 1266ERGO   ROH14141   1.256  12.659   6.490  0.0209  0.0821  0.0631
 1266ERGO    R114142   1.262  12.545   6.749 -0.0537  0.0300  0.0416
 1266ERGO    R214143   1.136  12.661   6.965 -0.0729  0.0117  0.0359
 1266ERGO    R314144   1.019  12.416   6.987 -0.1261  0.0299 -0.0307
 1266ERGO    R414145   1.094  12.487   7.261 -0.2670  0.0201  0.0159
 1266ERGO    R514146   1.147  12.304   7.155 -0.2360  0.0093  0.0435
 1266ERGO    C114147   0.961  12.156   7.453 -0.4300  0.0420 -0.0582
 1266ERGO    C214148   0.915  12.181   7.769  0.0603  0.2215  0.0426
 1267ERGO   ROH14149   4.485  12.993   6.653 -0.0144 -0.0362 -0.0797
 1267ERGO    R114150   4.571  12.896   6.905  0.0182  0.1726 -0.0072
 1267ERGO    R214151   4.535  13.036   7.140 -0.2872  0.2053 -0.0679
 1267ERGO    R314152   4.416  12.806   7.221  0.0047  0.0585 -0.0466
 1267ERGO    R414153   4.498  12.937   7.469 -0.3787  0.3087 -0.0465
 1267ERGO    R514154   4.546  12.734   7.408 -0.0205  0.3483  0.0861
 1267ERGO    C114155   4.366  12.663   7.737 -0.1580  0.2310 -0.0141
 1267ERGO    C214156   4.125  12.576   8.058 -0.0129 -0.2118 -0.0499
 1268ERGO   ROH14157   5.979  17.830   6.703  0.0496  0.0714  0.2178
 1268ERGO    R114158   6.160  17.836   6.921  0.0956  0.0757  0.1797
 1268ERGO    R214159   6.109  17.978   7.152  0.0978 -0.0033  0.2285
 1268ERGO    R314160   6.155  17.738   7.271  0.2069 -0.0192  0.1554
 1268ERGO    R414161   6.188  17.934   7.486 -0.2431 -0.0888  0.3014
 1268ERGO    R514162   6.332  17.781   7.427 -0.0141  0.0869  0.3838
 1268ERGO    C114163   6.277  17.684   7.792 -0.3392 -0.1535  0.2753
 1268ERGO    C214164   6.217  17.514   8.161 -0.0665 -0.2001 -0.1450
 1269ERGO   ROH14165  14.332  10.492   7.003 -0.2105 -0.0636  0.1375
 1269ERGO    R114166  14.495  10.589   7.213 -0.1433  0.0278  0.0438
 1269ERGO    R214167  14.395  10.740   7.422 -0.0914  0.0454  0.0550
 1269ERGO    R314168  14.514  10.548   7.574  0.0298  0.1122  0.0459
 1269ERGO    R414169  14.435  10.756   7.765 -0.0419  0.0865  0.0474
 1269ERGO    R514170  14.634  10.671   7.741 -0.0022  0.1832  0.0183
 1269ERGO    C114171  14.570  10.586   8.107  0.1007  0.1733  0.0344
 1269ERGO    C214172  14.477  10.594   8.435  0.1421 -0.1839  0.0189
 1270ERGO   ROH14173  13.484   6.979   7.054  0.1924 -0.0333 -0.0273
 1270ERGO    R114174  13.672   6.908   7.253  0.3257  0.0731 -0.1125
 1270ERGO    R214175  13.854   7.089   7.358  0.0737  0.2628  0.0168
 1270ERGO    R314176  13.746   7.010   7.594  0.2108 -0.1040 -0.0337
 1270ERGO    R414177  13.999   7.137   7.667  0.0682  0.1258  0.0416
 1270ERGO    R514178  13.934   6.938   7.724  0.3189 -0.0118 -0.1413
 1270ERGO    C114179  13.983   7.092   8.070  0.1938 -0.2984  0.0086
 1270ERGO    C214180  14.230   6.926   8.405  0.1478 -0.1043  0.1328
 1271ERGO   ROH14181  14.150   4.756   7.143  0.1515 -0.1467  0.1258
 1271ERGO    R114182  13.943   4.647   7.304  0.0641 -0.1931 -0.0144
 1271ERGO    R214183  13.963   4.399   7.424  0.0999 -0.1312  0.1176
 1271ERGO    R314184  13.907   4.539   7.650 -0.1884 -0.0562  0.0034
 1271ERGO    R414185  13.859   4.259   7.722  0.0854 -0.0650  0.1430
 1271ERGO    R514186  13.720   4.425   7.746 -0.1153 -0.2072 -0.0364
 1271ERGO    C114187  13.746   4.309   8.108 -0.1939  0.0439  0.0506
 1271ERGO    C214188  13.558   4.240   8.374 -0.2582  0.1560  0.1339
 1272ERGO   ROH14189  12.453  10.528   6.604 -0.0478 -0.1616 -0.0403
 1272ERGO    R114190  12.377  10.416   6.853 -0.1809  0.0700  0.0253
 1272ERGO    R214191  12.504  10.197   6.963 -0.5575 -0.1378  0.0552
 1272ERGO    R314192  12.532  10.362   7.177 -0.1721 -0.1107 -0.0065
 1272ERGO    R414193  12.590  10.094   7.281 -0.4982 -0.1817  0.0258
 1272ERGO    R514194  12.445  10.235   7.361 -0.2439  0.0631  0.0864
 1272ERGO    C114195  12.666  10.188   7.668 -0.1018 -0.1818 -0.0492
 1272ERGO    C214196  12.722  10.249   8.023 -0.0330  0.2114  0.0979
 1273ERGO   ROH14197  12.401  12.765   6.504 -0.0037 -0.0251 -0.0369
 1273ERGO    R114198  12.291  12.810   6.761  0.0233  0.0500 -0.0378
 1273ERGO    R214199  12.243  12.605   6.940 -0.0465  0.0902 -0.0091
 1273ERGO    R314200  12.395  12.758   7.106  0.0188  0.0555 -0.0351
 1273ERGO    R414201  12.250  12.575   7.284  0.1143 -0.0121 -0.0204
 1273ERGO    R514202  12.256  12.793   7.298  0.1022 -0.0127  0.0403
 1273ERGO    C114203  12.398  12.700   7.640  0.2692 -0.1042 -0.0514
 1273ERGO    C214204  12.601  12.495   7.855 -0.3398  0.3264 -0.0963
 1274ERGO   ROH14205   2.030  13.319   6.508  0.0175 -0.0711 -0.1263
 1274ERGO    R114206   2.055  13.165   6.745 -0.2905 -0.0827 -0.0994
 1274ERGO    R214207   2.183  13.259   6.971 -0.0236 -0.3277 -0.1551
 1274ERGO    R314208   1.949  13.195   7.092 -0.1560  0.2369 -0.0789
 1274ERGO    R414209   2.152  13.157   7.299 -0.1090 -0.4654 -0.2039
 1274ERGO    R514210   2.004  13.011   7.235 -0.5675 -0.0318 -0.2331
 1274ERGO    C114211   1.914  13.037   7.604 -0.2830 -0.0156 -0.1609
 1274ERGO    C214212   1.764  13.125   7.873  0.2204 -0.1714 -0.0761
 1275ERGO   ROH14213   0.776  16.574   7.254 -0.2479  0.1830 -0.1150
 1275ERGO    R114214   0.650  16.575   7.508 -0.1876  0.1530 -0.0853
 1275ERGO    R214215   0.745  16.427   7.721 -0.1688  0.0866 -0.1429
 1275ERGO    R314216   0.741  16.668   7.848 -0.0892  0.0580 -0.0841
 1275ERGO    R414217   0.723  16.470   8.063  0.1915 -0.0014 -0.1041
 1275ERGO    R514218   0.588  16.637   8.029  0.1102 -0.0226  0.0787
 1275ERGO    C114219   0.706  16.721   8.381  0.4759 -0.0797 -0.0264
 1275ERGO    C214220   0.670  16.666   8.756 -0.1509 -0.0876  0.2208
 1276ERGO   ROH14221   1.001   3.578   7.187 -0.0437  0.1312 -0.3230
 1276ERGO    R114222   1.084   3.579   7.457 -0.2009 -0.0526 -0.2713
 1276ERGO    R214223   1.305   3.720   7.544 -0.1287 -0.2752 -0.0818
 1276ERGO    R314224   1.128   3.827   7.720 -0.1422 -0.1968 -0.1432
 1276ERGO    R414225   1.387   3.943   7.795 -0.1319 -0.2415 -0.1109
 1276ERGO    R514226   1.249   3.838   7.927 -0.1853 -0.1813 -0.1190
 1276ERGO    C114227   1.269   4.174   8.106 -0.1464 -0.1482 -0.1855
 1276ERGO    C214228   1.386   4.296   8.343  0.2667  0.0369 -0.0662
 1277ERGO   ROH14229  11.514   7.619   6.255 -0.1130  0.0049  0.0786
 1277ERGO    R114230  11.531   7.535   6.524 -0.2637 -0.1801  0.0328
 1277ERGO    R214231  11.557   7.270   6.596 -0.0312 -0.2109 -0.1484
 1277ERGO    R314232  11.774   7.361   6.732 -0.2518 -0.0640  0.1160
 1277ERGO    R414233  11.702   7.111   6.866  0.0231 -0.3487 -0.2568
 1277ERGO    R514234  11.729   7.306   6.960 -0.3253 -0.4264  0.0175
 1277ERGO    C114235  11.990   7.104   7.152 -0.1525 -0.2910 -0.0717
 1277ERGO    C214236  12.167   6.827   7.322 -0.2546 -0.1837  0.0225
 1278ERGO   ROH14237  12.341   9.575   6.566 -0.2168  0.0418  0.1156
 1278ERGO    R114238  12.299   9.556   6.846 -0.1567  0.0907  0.1285
 1278ERGO    R214239  12.490   9.453   7.018 -0.1343  0.0847  0.1020
 1278ERGO    R314240  12.456   9.690   7.146 -0.0659  0.1100  0.0726
 1278ERGO    R414241  12.525   9.500   7.358 -0.3364  0.0675  0.1264
 1278ERGO    R514242  12.351   9.631   7.353 -0.2475  0.1828  0.0033
 1278ERGO    C114243  12.514   9.750   7.677 -0.3897  0.0813  0.1130
 1278ERGO    C214244  12.592   9.746   7.964  0.0504  0.0572 -0.2595
 1279ERGO   ROH14245   1.118  13.669   6.712 -0.1866  0.1646  0.0028
 1279ERGO    R114246   1.124  13.546   6.967 -0.1295  0.0296 -0.0631
 1279ERGO    R214247   1.221  13.675   7.192 -0.0619 -0.0970 -0.0221
 1279ERGO    R314248   0.978  13.609   7.294 -0.0399 -0.1323  0.0107
 1279ERGO    R414249   1.118  13.736   7.516 -0.0509 -0.0403 -0.0287
 1279ERGO    R514250   1.023  13.541   7.518 -0.0041 -0.0665  0.0262
 1279ERGO    C114251   0.830  13.710   7.800 -0.0239 -0.0406 -0.0017
 1279ERGO    C214252   0.509  13.876   8.001  0.2636 -0.1381  0.0364
 1280ERGO   ROH14253   2.477   2.074   7.321 -0.0580 -0.0862 -0.0213
 1280ERGO    R114254   2.641   2.234   7.486 -0.0344 -0.1565  0.0243
 1280ERGO    R214255   2.593   2.502   7.528  0.1244 -0.1104 -0.0661
 1280ERGO    R314256   2.600   2.430   7.790 -0.0615 -0.0551 -0.0455
 1280ERGO    R414257   2.667   2.715   7.790  0.3107 -0.1436 -0.0905
 1280ERGO    R514258   2.783   2.554   7.882  0.0694 -0.2717 -0.0114
 1280ERGO    C114259   2.717   2.771   8.189  0.2447 -0.1110 -0.0855
 1280ERGO    C214260   2.670   2.799   8.547  0.0068 -0.3902  0.0604
 1281ERGO   ROH14261  16.393  14.493   6.703 -0.1938 -0.0777 -0.2130
 1281ERGO    R114262  16.329  14.550   6.972 -0.2057 -0.0498 -0.2217
 1281ERGO    R214263  16.094  14.466   7.091 -0.1720 -0.1128 -0.1979
 1281ERGO    R314264  16.264  14.359   7.275 -0.1265 -0.0173 -0.1839
 1281ERGO    R414265  16.018  14.415   7.424 -0.1391 -0.0785 -0.1851
 1281ERGO    R514266  16.219  14.482   7.476 -0.1619  0.0034 -0.2053
 1281ERGO    C114267  16.133  14.285   7.791 -0.0773  0.0311 -0.1645
 1281ERGO    C214268  16.026  14.153   8.112  0.1107 -0.2290 -0.0257
 1282ERGO   ROH14269  16.092  14.805   6.673  0.0582  0.0595  0.0947
 1282ERGO    R114270  16.066  14.955   6.912  0.1206  0.1070  0.0726
 1282ERGO    R214271  15.861  14.913   7.092  0.0110  0.3257  0.0054
 1282ERGO    R314272  16.065  14.884   7.269 -0.0769  0.1360  0.0781
 1282ERGO    R414273  15.823  14.844   7.429 -0.1674  0.3486 -0.0095
 1282ERGO    R514274  15.984  14.984   7.471 -0.0569  0.2016  0.0514
 1282ERGO    C114275  15.992  14.776   7.791 -0.3539  0.1839  0.0500
 1282ERGO    C214276  16.075  14.660   8.078 -0.2220 -0.0471  0.0697
 1283ERGO   ROH14277  17.829   3.729   7.325 -0.0699  0.1465 -0.0773
 1283ERGO    R114278  17.699   3.741   7.576 -0.0510  0.1335 -0.0675
 1283ERGO    R214279  17.776   3.585   7.791  0.0065  0.1707 -0.0637
 1283ERGO    R314280  17.791   3.825   7.918 -0.0439  0.1841 -0.0812
 1283ERGO    R414281  17.786   3.628   8.134  0.0508  0.1936 -0.0672
 1283ERGO    R514282  17.654   3.799   8.112 -0.0053  0.1540 -0.0563
 1283ERGO    C114283  17.807   3.878   8.453  0.0290  0.2195 -0.0858
 1283ERGO    C214284  18.053   3.701   8.666  0.0170  0.0353  0.0031
 1284ERGO   ROH14285  14.799   2.152   7.136 -0.4211  0.0583 -0.0370
 1284ERGO    R114286  14.742   2.062   7.399 -0.2227  0.0508  0.0053
 1284ERGO    R214287  14.899   2.129   7.616 -0.0953  0.1013 -0.1018
 1284ERGO    R314288  14.664   2.216   7.719 -0.0527  0.0401  0.0539
 1284ERGO    R414289  14.838   2.176   7.952  0.2260  0.4032 -0.0802
 1284ERGO    R514290  14.639   2.092   7.923  0.2483  0.2277  0.2139
 1284ERGO    C114291  14.580   2.287   8.245  0.4530  0.5216  0.0786
 1284ERGO    C214292  14.745   2.468   8.528  0.0181  0.0980  0.1873
 1285ERGO   ROH14293  10.622  12.010   6.753  0.0296  0.1123  0.0106
 1285ERGO    R114294  10.567  11.811   6.947  0.2498  0.0947  0.0573
 1285ERGO    R214295  10.671  11.821   7.203  0.1813  0.3105  0.0812
 1285ERGO    R314296  10.409  11.798   7.275  0.1905 -0.0148  0.0239
 1285ERGO    R414297  10.558  11.761   7.524  0.1756  0.3621  0.0888
 1285ERGO    R514298  10.408  11.626   7.441  0.3884  0.0921  0.1359
 1285ERGO    C114299  10.247  11.704   7.778  0.1809  0.0867  0.0395
 1285ERGO    C214300  10.149  11.712   8.074  0.2075 -0.0800 -0.1828
 1286ERGO   ROH14301   7.243   9.582   6.987  0.0500  0.3702 -0.1202
 1286ERGO    R114302   7.107   9.581   7.235  0.0911  0.1745 -0.0962
 1286ERGO    R214303   7.224   9.489   7.469  0.1743  0.1070 -0.1633
 1286ERGO    R314304   7.153   9.735   7.562  0.0716  0.0259 -0.0225
 1286ERGO    R414305   7.149   9.564   7.798  0.3779 -0.0631 -0.0765
 1286ERGO    R514306   6.988   9.691   7.728  0.2309 -0.1507  0.0937
 1286ERGO    C114307   7.039   9.838   8.076  0.4000 -0.2383  0.1061
 1286ERGO    C214308   7.167   9.911   8.344 -0.3427 -0.2708 -0.2596
 1287ERGO   ROH14309   5.892   8.444   6.782  0.0048 -0.1384 -0.0805
 1287ERGO    R114310   5.835   8.560   7.033 -0.1030 -0.1743 -0.0885
 1287ERGO    R214311   5.752   8.410   7.251  0.1584 -0.2558 -0.0434
 1287ERGO    R314312   5.963   8.532   7.373  0.0176  0.0673 -0.1117
 1287ERGO    R414313   5.790   8.443   7.593  0.2477 -0.2549 -0.0529
 1287ERGO    R514314   5.865   8.645   7.560 -0.0921 -0.1211 -0.0514
 1287ERGO    C114315   6.010   8.576   7.906  0.1674  0.0490 -0.1226
 1287ERGO    C214316   6.048   8.424   8.237  0.2939  0.0089  0.0449
 1288ERGO   ROH14317  12.126   8.151   6.800  0.1305  0.1562  0.0097
 1288ERGO    R114318  12.075   8.223   7.069 -0.1051  0.1351 -0.0267
 1288ERGO    R214319  11.821   8.279   7.163 -0.2400 -0.2319 -0.1551
 1288ERGO    R314320  11.883   8.089   7.347 -0.0324 -0.1049 -0.0908
 1288ERGO    R414321  11.791   8.317   7.505 -0.2419 -0.1377 -0.1656
 1288ERGO    R514322  11.979   8.210   7.529 -0.1334  0.0568 -0.1446
 1288ERGO    C114323  11.832   8.161   7.877 -0.0482  0.0365 -0.1115
 1288ERGO    C214324  11.618   8.047   8.158 -0.1807  0.0710  0.0862
 1289ERGO   ROH14325  13.774   1.128   6.529  0.0387 -0.0727 -0.0799
 1289ERGO    R114326  13.629   1.081   6.767  0.0034 -0.0301 -0.0925
 1289ERGO    R214327  13.720   0.911   6.966 -0.1017 -0.1198 -0.1183
 1289ERGO    R314328  13.684   1.129   7.124  0.0220 -0.1252 -0.0826
 1289ERGO    R414329  13.615   0.902   7.295 -0.2326 -0.1059 -0.1594
 1289ERGO    R514330  13.491   1.077   7.255 -0.0717  0.0069 -0.1663
 1289ERGO    C114331  13.520   1.101   7.635 -0.1927 -0.1029 -0.1497
 1289ERGO    C214332  13.410   1.252   8.018  0.2371  0.1070 -0.0623
 1290ERGO   ROH14333   6.050   9.804   6.911 -0.0082  0.0680 -0.0373
 1290ERGO    R114334   6.131   9.978   7.119  0.0515 -0.0548  0.0431
 1290ERGO    R214335   5.953  10.136   7.258  0.1305  0.0939 -0.0232
 1290ERGO    R314336   6.063  10.014   7.475 -0.1081 -0.0626  0.0141
 1290ERGO    R414337   5.892  10.225   7.586  0.2111  0.2363 -0.0459
 1290ERGO    R514338   6.103  10.193   7.629  0.1559 -0.1055 -0.0012
 1290ERGO    C114339   5.960  10.163   7.981  0.0340  0.1723 -0.0241
 1290ERGO    C214340   5.690  10.391   8.241 -0.0376  0.1713  0.0446
 1291ERGO   ROH14341  14.766  17.851   7.124 -0.1706 -0.1860 -0.1454
 1291ERGO    R114342  14.721  17.713   7.367  0.0115 -0.0747 -0.0457
 1291ERGO    R214343  14.804  17.811   7.612  0.0105  0.1408 -0.1272
 1291ERGO    R314344  14.543  17.775   7.678  0.0565 -0.0237 -0.0308
 1291ERGO    R414345  14.672  17.850   7.929  0.0953  0.0752 -0.0839
 1291ERGO    R514346  14.549  17.674   7.894  0.1969 -0.0052 -0.0272
 1291ERGO    C114347  14.350  17.839   8.175  0.1878 -0.1173  0.0320
 1291ERGO    C214348  14.133  17.992   8.141  0.2916 -0.3110  0.2522
 1292ERGO   ROH14349   5.568   9.548   6.870 -0.0741 -0.0575  0.0379
 1292ERGO    R114350   5.578   9.694   7.112  0.1225  0.1051 -0.0661
 1292ERGO    R214351   5.517   9.581   7.357 -0.0623  0.3688  0.0099
 1292ERGO    R314352   5.763   9.675   7.425  0.0742  0.0605 -0.0388
 1292ERGO    R414353   5.636   9.607   7.681 -0.1088  0.5359  0.0150
 1292ERGO    R514354   5.726   9.798   7.627  0.2091  0.3467 -0.1792
 1292ERGO    C114355   5.936   9.710   7.933 -0.0078  0.3436 -0.0277
 1292ERGO    C214356   6.194   9.546   8.113  0.0366 -0.0090 -0.4147
 1293ERGO   ROH14357   7.922   8.844   6.798  0.0060  0.0458 -0.1056
 1293ERGO    R114358   8.041   8.784   7.047  0.0430  0.0537 -0.1215
 1293ERGO    R214359   7.975   8.918   7.280  0.1402  0.1203 -0.1321
 1293ERGO    R314360   7.928   8.667   7.373  0.0778  0.1528 -0.0732
 1293ERGO    R414361   7.950   8.832   7.614  0.1688  0.1942 -0.1104
 1293ERGO    R514362   8.062   8.650   7.570  0.1055  0.1506 -0.0922
 1293ERGO    C114363   7.892   8.546   7.895  0.1269  0.2677 -0.0424
 1293ERGO    C214364   7.839   8.522   8.264  0.5013 -0.0203 -0.1093
 1294ERGO   ROH14365  10.827   4.054   6.548  0.0932 -0.2335 -0.1284
 1294ERGO    R114366  10.739   3.993   6.810  0.0871 -0.1160 -0.1025
 1294ERGO    R214367  10.729   3.735   6.908 -0.1034 -0.0924 -0.0527
 1294ERGO    R314368  10.882   3.839   7.107  0.0132 -0.1763 -0.0982
 1294ERGO    R414369  10.696   3.659   7.244 -0.1778  0.0713 -0.0224
 1294ERGO    R514370  10.730   3.869   7.290  0.0468  0.0556 -0.1050
 1294ERGO    C114371  10.820   3.712   7.626 -0.1116  0.0879 -0.0475
 1294ERGO    C214372  10.870   3.788   7.921  0.2668  0.1955 -0.1294
 1295ERGO   ROH14373   6.733   7.893   6.735  0.5702  0.0970 -0.0541
 1295ERGO    R114374   6.694   7.989   6.998  0.5453  0.0894 -0.0561
 1295ERGO    R214375   6.518   7.870   7.175  0.2751  0.2869 -0.1897
 1295ERGO    R314376   6.737   7.859   7.336  0.1695 -0.0512 -0.0566
 1295ERGO    R414377   6.510   7.833   7.519  0.0113  0.3239 -0.1888
 1295ERGO    R514378   6.672   7.978   7.533  0.2382  0.0708 -0.1050
 1295ERGO    C114379   6.711   7.801   7.869 -0.2416  0.0279 -0.0633
 1295ERGO    C214380   6.681   7.796   8.237  0.0548 -0.1615  0.4153
 1296ERGO   ROH14381   2.689  16.612   6.879 -0.1483  0.0831 -0.1696
 1296ERGO    R114382   2.796  16.567   7.137 -0.0427  0.1014 -0.2103
 1296ERGO    R214383   2.840  16.772   7.317 -0.1838  0.0865 -0.1622
 1296ERGO    R314384   2.688  16.617   7.481 -0.0022 -0.1020 -0.1653
 1296ERGO    R414385   2.899  16.724   7.654 -0.0185  0.0046 -0.2010
 1296ERGO    R514386   2.845  16.514   7.629  0.1404 -0.0338 -0.2627
 1296ERGO    C114387   2.789  16.551   8.004  0.2482 -0.2200 -0.2266
 1296ERGO    C214388   2.679  16.725   8.155  0.0235 -0.2464 -0.3226
 1297ERGO   ROH14389   7.015  12.228   6.461  0.0746  0.0025  0.0227
 1297ERGO    R114390   7.006  12.201   6.742 -0.1693 -0.0014  0.0156
 1297ERGO    R214391   7.147  12.367   6.912 -0.0015 -0.2510  0.1210
 1297ERGO    R314392   6.902  12.407   7.024 -0.0191  0.1612 -0.0446
 1297ERGO    R414393   7.092  12.451   7.243 -0.0800 -0.3093  0.1237
 1297ERGO    R514394   6.922  12.315   7.244 -0.3523  0.0069 -0.0693
 1297ERGO    C114395   6.831  12.538   7.541 -0.1422  0.0437 -0.0303
 1297ERGO    C214396   6.851  12.691   7.869 -0.0626 -0.3386 -0.0437
 1298ERGO   ROH14397   9.310  15.022   6.479  0.0297 -0.2213 -0.0133
 1298ERGO    R114398   9.160  14.903   6.688 -0.0378 -0.1430 -0.0162
 1298ERGO    R214399   9.169  14.633   6.742 -0.0542 -0.1240  0.0906
 1298ERGO    R314400   9.231  14.718   6.993 -0.1351 -0.0271  0.0775
 1298ERGO    R414401   9.120  14.449   7.031  0.0768 -0.1088  0.1224
 1298ERGO    R514402   9.055  14.632   7.130 -0.0740 -0.1418  0.0841
 1298ERGO    C114403   9.150  14.423   7.435  0.0772 -0.0089  0.1286
 1298ERGO    C214404   9.038  14.241   7.714 -0.2868 -0.0775 -0.2052
 1299ERGO   ROH14405   6.944   1.373   6.306  0.0009  0.2732 -0.0966
 1299ERGO    R114406   6.996   1.567   6.506  0.3016  0.1322 -0.0323
 1299ERGO    R214407   6.796   1.676   6.663  0.4206  0.5852 -0.1797
 1299ERGO    R314408   6.955   1.592   6.866  0.0706  0.1747 -0.0606
 1299ERGO    R414409   6.770   1.782   6.990  0.3698  0.5394 -0.1683
 1299ERGO    R514410   6.987   1.787   7.001  0.3797  0.0676  0.0248
 1299ERGO    C114411   6.904   1.765   7.373  0.0116  0.1274 -0.0498
 1299ERGO    C214412   6.836   1.926   7.657  0.0976  0.1231 -0.0734
 1300ERGO   ROH14413  14.737  10.696   6.758 -0.0651  0.1230 -0.1100
 1300ERGO    R114414  14.868  10.641   7.004 -0.4203 -0.0645  0.0431
 1300ERGO    R214415  15.043  10.818   7.122  0.0410 -0.4815  0.0079
 1300ERGO    R314416  14.878  10.788   7.336 -0.2383  0.2123 -0.0796
 1300ERGO    R414417  15.096  10.958   7.434  0.3286 -0.4749 -0.0410
 1300ERGO    R514418  15.027  10.772   7.524 -0.3984 -0.2089  0.0285
 1300ERGO    C114419  14.973  11.011   7.816  0.2336  0.1803 -0.1515
 1300ERGO    C214420  15.090  11.060   8.200  0.0829  0.0989 -0.1440
 1301ERGO   ROH14421   4.345   7.948   7.012  0.1507 -0.1513 -0.0355
 1301ERGO    R114422   4.315   8.074   7.264 -0.0297 -0.2279 -0.0166
 1301ERGO    R214423   4.210   7.943   7.484  0.1519 -0.4126 -0.0334
 1301ERGO    R314424   4.442   8.023   7.602  0.0434 -0.0995 -0.0251
 1301ERGO    R414425   4.252   7.992   7.824  0.0524 -0.2501 -0.0438
 1301ERGO    R514426   4.371   8.169   7.778 -0.1508 -0.1242 -0.0834
 1301ERGO    C114427   4.494   8.095   8.132 -0.1074  0.1385 -0.0421
 1301ERGO    C214428   4.449   8.088   8.429  0.0864  0.0907 -0.3904
 1302ERGO   ROH14429  10.339   1.247   6.488  0.1157 -0.1158 -0.0599
 1302ERGO    R114430  10.431   1.411   6.699 -0.0500 -0.0500 -0.0380
 1302ERGO    R214431  10.379   1.354   6.965 -0.0362 -0.1096 -0.0512
 1302ERGO    R314432  10.649   1.373   6.988 -0.0530  0.1196 -0.0108
 1302ERGO    R414433  10.550   1.379   7.264 -0.0934 -0.2591 -0.0051
 1302ERGO    R514434  10.683   1.524   7.170 -0.2166 -0.0325  0.1535
 1302ERGO    C114435  10.903   1.410   7.460 -0.1423 -0.1310  0.0597
 1302ERGO    C214436  10.917   1.402   7.841 -0.2015 -0.0514  0.0549
 1303ERGO   ROH14437   5.166   2.601   7.035  0.1375 -0.1106 -0.0757
 1303ERGO    R114438   5.043   2.487   7.263  0.1618 -0.1114 -0.0638
 1303ERGO    R214439   5.160   2.493   7.513  0.0964  0.0654 -0.0394
 1303ERGO    R314440   4.923   2.605   7.585 -0.0023 -0.0749 -0.1364
 1303ERGO    R414441   5.050   2.531   7.839  0.0523  0.2162 -0.0704
 1303ERGO    R514442   4.850   2.475   7.773  0.0976  0.0000 -0.0417
 1303ERGO    C114443   4.764   2.659   8.096 -0.0659  0.1722 -0.1794
 1303ERGO    C214444   4.664   2.634   8.445  0.1454  0.1431  0.1028
 1304ERGO   ROH14445   0.890   9.157   6.791 -0.0673 -0.2518 -0.0048
 1304ERGO    R114446   0.760   9.219   7.035  0.0284 -0.1344  0.0179
 1304ERGO    R214447   0.830   9.103   7.275 -0.0153 -0.1774  0.0117
 1304ERGO    R314448   0.853   9.362   7.356  0.2054 -0.1891 -0.0087
 1304ERGO    R414449   0.741   9.220   7.588 -0.0597 -0.0479 -0.0489
 1304ERGO    R514450   0.659   9.398   7.492  0.1706  0.0253 -0.1134
 1304ERGO    C114451   0.711   9.531   7.846  0.1216  0.0166 -0.1034
 1304ERGO    C214452   0.735   9.390   8.233  0.2622  0.2108 -0.1016
 1305ERGO   ROH14453  16.928  10.013   6.762 -0.1841  0.2641 -0.0902
 1305ERGO    R114454  16.887  10.117   7.022  0.0813  0.3044 -0.0625
 1305ERGO    R214455  16.842   9.956   7.242  0.0241  0.3494 -0.0472
 1305ERGO    R314456  17.052  10.094   7.345  0.2397  0.1108 -0.1536
 1305ERGO    R414457  16.928   9.967   7.577  0.1255  0.3451 -0.0719
 1305ERGO    R514458  16.972  10.179   7.554  0.3998  0.2881 -0.1565
 1305ERGO    C114459  17.175  10.104   7.868  0.3865  0.1188 -0.1863
 1305ERGO    C214460  17.097  10.102   8.158  0.0084  0.0663  0.0554
 1306ERGO   ROH14461   8.397   4.511   5.991  0.0588  0.0533  0.1029
 1306ERGO    R114462   8.452   4.418   6.253  0.1034  0.0885  0.1057
 1306ERGO    R214463   8.436   4.580   6.476 -0.1400  0.0470  0.1177
 1306ERGO    R314464   8.270   4.385   6.566  0.0625 -0.1576  0.0592
 1306ERGO    R414465   8.322   4.552   6.801 -0.2756 -0.0434  0.0636
 1306ERGO    R514466   8.349   4.337   6.786  0.0132 -0.0173  0.1110
 1306ERGO    C114467   8.099   4.353   7.074 -0.1644 -0.2880 -0.0229
 1306ERGO    C214468   7.866   4.186   7.148  0.0543 -0.1607 -0.0219
 1307ERGO   ROH14469   7.015   5.192   6.189  0.2639 -0.2233  0.1449
 1307ERGO    R114470   7.063   5.272   6.456  0.2714 -0.1868  0.1343
 1307ERGO    R214471   6.893   5.442   6.593  0.3784  0.0035  0.0518
 1307ERGO    R314472   6.893   5.241   6.776  0.1657  0.0477  0.1003
 1307ERGO    R414473   6.914   5.485   6.935  0.2693  0.0543  0.0513
 1307ERGO    R514474   7.047   5.312   6.944  0.1416 -0.0290  0.1460
 1307ERGO    C114475   6.926   5.321   7.306  0.0061  0.1254  0.0965
 1307ERGO    C214476   6.974   5.322   7.506 -0.1487 -0.0397 -0.1384
 1308ERGO   ROH14477   2.481  15.798   7.225 -0.0200 -0.1569 -0.0362
 1308ERGO    R114478   2.592  15.779   7.485 -0.0371 -0.0449 -0.0200
 1308ERGO    R214479   2.445  15.829   7.714 -0.0866 -0.0671 -0.0460
 1308ERGO    R314480   2.531  15.581   7.785  0.0292 -0.0100  0.0165
 1308ERGO    R414481   2.382  15.678   8.018 -0.1544 -0.0863 -0.0694
 1308ERGO    R514482   2.586  15.601   8.017 -0.1063  0.0395  0.0445
 1308ERGO    C114483   2.426  15.357   8.262 -0.0851 -0.0440 -0.0244
 1308ERGO    C214484   2.290  15.176   8.369  0.0696 -0.2087 -0.1559
 1309ERGO   ROH14485  11.806   6.502   6.478 -0.0567  0.0881 -0.0074
 1309ERGO    R114486  11.721   6.675   6.685  0.1488  0.2152 -0.0266
 1309ERGO    R214487  11.572   6.587   6.901 -0.0902  0.4412 -0.0980
 1309ERGO    R314488  11.771   6.703   7.044  0.0506  0.0942 -0.0014
 1309ERGO    R414489  11.577   6.615   7.245 -0.1633  0.3344 -0.0875
 1309ERGO    R514490  11.658   6.816   7.223  0.1603  0.2230 -0.0075
 1309ERGO    C114491  11.767   6.741   7.580 -0.0737 -0.0536  0.0093
 1309ERGO    C214492  11.926   6.572   7.808  0.3545 -0.1533 -0.1805
 1310ERGO   ROH14493   4.161  14.821   6.789 -0.1458 -0.0478  0.0486
 1310ERGO    R114494   4.033  14.723   7.022 -0.1688 -0.1912 -0.0231
 1310ERGO    R214495   4.049  14.458   7.100  0.1519 -0.1642  0.0269
 1310ERGO    R314496   4.136  14.565   7.334 -0.1546  0.0019  0.0707
 1310ERGO    R414497   3.998  14.319   7.412  0.1419 -0.1827  0.0167
 1310ERGO    R514498   3.960  14.519   7.490 -0.1948 -0.2203 -0.0392
 1310ERGO    C114499   4.050  14.338   7.813 -0.1516 -0.0376  0.0518
 1310ERGO    C214500   4.011  14.073   7.994 -0.0891 -0.0504  0.4328
 1311ERGO   ROH14501   8.883   3.235   6.448 -0.0324  0.1652 -0.1581
 1311ERGO    R114502   8.929   3.167   6.719  0.0997  0.1324 -0.1894
 1311ERGO    R214503   8.996   3.355   6.910  0.0080  0.1346 -0.1672
 1311ERGO    R314504   8.782   3.251   7.041  0.1284 -0.0656 -0.1218
 1311ERGO    R414505   8.911   3.425   7.238 -0.1522  0.3036 -0.2417
 1311ERGO    R514506   8.860   3.215   7.264  0.1456  0.2416 -0.0703
 1311ERGO    C114507   8.661   3.368   7.551 -0.1324  0.2142 -0.2425
 1311ERGO    C214508   8.498   3.302   7.942 -0.1336  0.1228 -0.1316
 1312ERGO   ROH14509   9.713  17.858   6.225  0.0756  0.1665 -0.0698
 1312ERGO    R114510   9.745  17.983   6.476  0.2214  0.0872 -0.0474
 1312ERGO    R214511   9.552  17.973   6.674  0.1773  0.3329 -0.0739
 1312ERGO    R314512   9.757  17.878   6.825  0.0264  0.0181 -0.0600
 1312ERGO    R414513   9.602  18.047   7.008  0.2403  0.2258 -0.0598
 1312ERGO    R514514   9.816  18.062   6.967  0.2722 -0.0767 -0.0321
 1312ERGO    C114515   9.824  18.001   7.344  0.1354 -0.1320 -0.0385
 1312ERGO    C214516   9.728  18.081   7.697  0.3111  0.1478  0.1275
 1313ERGO   ROH14517   6.902   9.236   6.967 -0.1016  0.0985  0.0213
 1313ERGO    R114518   6.757   9.232   7.210 -0.0439  0.0962  0.0561
 1313ERGO    R214519   6.873   9.162   7.451  0.0224  0.1261  0.0351
 1313ERGO    R314520   6.776   9.403   7.531  0.0117  0.1198  0.0399
 1313ERGO    R414521   6.810   9.251   7.779 -0.0101  0.1103  0.0330
 1313ERGO    R514522   6.628   9.350   7.712 -0.0035  0.1102  0.0226
 1313ERGO    C114523   6.682   9.529   8.045 -0.0391  0.0950  0.0362
 1313ERGO    C214524   6.739   9.577   8.421  0.0076 -0.3399 -0.0807
 1314ERGO   ROH14525  14.136   8.071   6.977  0.0067 -0.0510 -0.0633
 1314ERGO    R114526  14.034   8.222   7.193  0.0055 -0.1366 -0.0018
 1314ERGO    R214527  13.834   8.129   7.359 -0.0176 -0.1932 -0.0529
 1314ERGO    R314528  14.014   8.187   7.554 -0.0214 -0.2980 -0.0198
 1314ERGO    R414529  13.756   8.167   7.693 -0.1001  0.1223 -0.1056
 1314ERGO    R514530  13.896   8.334   7.702  0.1100 -0.0518 -0.1600
 1314ERGO    C114531  13.880   8.243   8.072 -0.1517  0.2076 -0.1053
 1314ERGO    C214532  13.702   8.038   8.255  0.1401 -0.0885 -0.1277
 1315ERGO   ROH14533   1.282   8.992   6.566  0.0960 -0.2079  0.0602
 1315ERGO    R114534   1.379   9.019   6.830  0.0431 -0.0408  0.0638
 1315ERGO    R214535   1.385   9.262   6.962 -0.1623  0.0133 -0.0177
 1315ERGO    R314536   1.244   9.126   7.151 -0.0814 -0.0332  0.0091
 1315ERGO    R414537   1.363   9.352   7.295 -0.1356  0.0054 -0.0140
 1315ERGO    R514538   1.379   9.141   7.348 -0.0537  0.0134 -0.0153
 1315ERGO    C114539   1.218   9.277   7.666 -0.0442 -0.0429  0.0133
 1315ERGO    C214540   1.161   9.358   7.915 -0.0171  0.3833  0.2182
 1316ERGO   ROH14541   2.451   0.871   6.740 -0.0524 -0.2570 -0.0962
 1316ERGO    R114542   2.477   0.800   7.013  0.0115 -0.1047 -0.0627
 1316ERGO    R214543   2.716   0.824   7.150  0.0549 -0.0846 -0.1523
 1316ERGO    R314544   2.565   0.969   7.323  0.1474  0.0526 -0.1828
 1316ERGO    R414545   2.784   0.865   7.486  0.1780  0.0754 -0.1945
 1316ERGO    R514546   2.571   0.844   7.527  0.1791  0.1553 -0.1156
 1316ERGO    C114547   2.682   1.025   7.845  0.3365  0.2974 -0.2478
 1316ERGO    C214548   2.814   1.088   8.140 -0.0314  0.3534 -0.0095
 1317ERGO   ROH14549   7.610  16.208   6.564  0.2206 -0.0703  0.0895
 1317ERGO    R114550   7.526  16.144   6.827  0.1303 -0.0374  0.0683
 1317ERGO    R214551   7.682  15.998   7.002  0.0567 -0.0391  0.1283
 1317ERGO    R314552   7.641  16.211   7.165  0.0298 -0.0223  0.1009
 1317ERGO    R414553   7.705  15.989   7.347 -0.2314 -0.0679  0.1491
 1317ERGO    R514554   7.530  16.119   7.356 -0.1777  0.0237  0.0077
 1317ERGO    C114555   7.679  16.185   7.701 -0.4245 -0.0688  0.1356
 1317ERGO    C214556   7.744  16.395   8.007 -0.2342 -0.1537 -0.1141
 1318ERGO   ROH14557  16.516  16.675   6.818  0.2059 -0.0995 -0.0699
 1318ERGO    R114558  16.400  16.583   7.060  0.1915 -0.0106 -0.0423
 1318ERGO    R214559  16.147  16.473   7.070  0.1797  0.0194 -0.0122
 1318ERGO    R314560  16.276  16.266   7.189  0.1562  0.0432  0.0563
 1318ERGO    R414561  16.002  16.250   7.292  0.0842 -0.0540 -0.1467
 1318ERGO    R514562  16.185  16.257   7.410 -0.0041 -0.0134 -0.0107
 1318ERGO    C114563  16.040  15.926   7.532  0.0065 -0.0742 -0.1606
 1318ERGO    C214564  15.743  15.804   7.710 -0.2623 -0.3048 -0.1027
 1319ERGO   ROH14565   0.658   5.705   7.505  0.1052 -0.0907 -0.0985
 1319ERGO    R114566   0.670   5.673   7.786  0.1369 -0.0540 -0.0961
 1319ERGO    R214567   0.717   5.884   7.958  0.0027 -0.0063 -0.1212
 1319ERGO    R314568   0.487   5.797   8.075  0.0642 -0.1469 -0.1004
 1319ERGO    R414569   0.599   5.991   8.265 -0.1234  0.0638 -0.1934
 1319ERGO    R514570   0.540   5.786   8.308  0.0531  0.0305 -0.0855
 1319ERGO    C114571   0.314   5.973   8.552 -0.1391 -0.0272 -0.2160
 1319ERGO    C214572   0.053   5.991   8.704  0.2760 -0.2100 -0.0223
 1320ERGO   ROH14573  12.895   2.112   6.714  0.3163  0.2706 -0.1400
 1320ERGO    R114574  12.942   2.010   6.974  0.0394  0.2136 -0.1099
 1320ERGO    R214575  13.185   2.041   7.104 -0.0371  0.0132  0.0736
 1320ERGO    R314576  13.030   2.148   7.299 -0.0986  0.1188 -0.0300
 1320ERGO    R414577  13.276   2.071   7.435 -0.2773 -0.1676  0.1607
 1320ERGO    R514578  13.074   2.014   7.492 -0.3909  0.0164 -0.0230
 1320ERGO    C114579  13.183   2.190   7.812 -0.4750 -0.1737  0.1141
 1320ERGO    C214580  13.214   2.383   8.095  0.1556  0.1573 -0.1436
 1321ERGO   ROH14581   1.254   1.703   6.930  0.2090 -0.1052  0.0147
 1321ERGO    R114582   1.294   1.593   7.187  0.3883 -0.2293 -0.0662
 1321ERGO    R214583   1.086   1.538   7.360  0.5379  0.1820  0.2474
 1321ERGO    R314584   1.197   1.290   7.364  0.0321 -0.0646  0.0364
 1321ERGO    R414585   1.028   1.299   7.603  0.6231  0.4023  0.4901
 1321ERGO    R514586   1.240   1.247   7.595  0.5280 -0.0526 -0.0333
 1321ERGO    C114587   1.099   0.927   7.748  0.1979  0.2990  0.4335
 1321ERGO    C214588   0.924   0.748   8.043  0.3266  0.1173  0.0167
 1322ERGO   ROH14589  11.002   5.964   6.796  0.0593  0.1027  0.1017
 1322ERGO    R114590  10.892   5.782   6.983 -0.0051  0.0383  0.0019
 1322ERGO    R214591  10.990   5.526   7.016  0.0627  0.0684  0.0331
 1322ERGO    R314592  11.008   5.601   7.277 -0.1422  0.0391  0.0580
 1322ERGO    R414593  10.984   5.309   7.285 -0.0357  0.0255 -0.0033
 1322ERGO    R514594  10.860   5.453   7.392 -0.1650 -0.0365 -0.0647
 1322ERGO    C114595  10.999   5.253   7.686 -0.2853 -0.0269 -0.0011
 1322ERGO    C214596  11.021   5.040   7.946 -0.2865  0.0434 -0.1956
 1323ERGO   ROH14597   7.995   1.741   6.084 -0.1951  0.1162 -0.0049
 1323ERGO    R114598   8.077   1.761   6.354 -0.1653 -0.1118  0.0041
 1323ERGO    R214599   7.992   1.965   6.521  0.2588  0.0453  0.0355
 1323ERGO    R314600   7.915   1.758   6.680 -0.1971  0.1713 -0.0057
 1323ERGO    R414601   7.980   1.975   6.867  0.3423 -0.0087  0.0407
 1323ERGO    R514602   8.060   1.772   6.870 -0.1209 -0.2088 -0.0246
 1323ERGO    C114603   7.901   1.787   7.217 -0.0368  0.0782  0.0051
 1323ERGO    C214604   7.874   1.894   7.530  0.2099  0.0833 -0.0694
 1324ERGO   ROH14605   6.968  17.329   6.655 -0.1434  0.1647 -0.0141
 1324ERGO    R114606   6.899  17.263   6.922 -0.1539 -0.0200 -0.0610
 1324ERGO    R214607   6.943  17.012   7.029  0.1450 -0.0042 -0.1328
 1324ERGO    R314608   7.076  17.152   7.220 -0.1103  0.1127 -0.0372
 1324ERGO    R414609   7.012  16.895   7.346  0.1828 -0.0134 -0.1446
 1324ERGO    R514610   6.965  17.093   7.424 -0.1093 -0.0992 -0.0970
 1324ERGO    C114611   7.177  16.958   7.711 -0.0349  0.0911 -0.0617
 1324ERGO    C214612   7.382  16.877   8.030 -0.1344 -0.1536  0.1225
 1325ERGO   ROH14613   6.192   2.716   6.285 -0.0837  0.0644  0.0734
 1325ERGO    R114614   6.382   2.768   6.488 -0.0256  0.0262  0.0290
 1325ERGO    R214615   6.478   3.021   6.541 -0.1153  0.0366  0.1393
 1325ERGO    R314616   6.395   2.965   6.793  0.0099 -0.1472  0.1422
 1325ERGO    R414617   6.538   3.220   6.817 -0.0623 -0.1092  0.2342
 1325ERGO    R514618   6.574   3.040   6.933  0.0482 -0.1719  0.1100
 1325ERGO    C114619   6.494   3.284   7.215  0.0862 -0.3665  0.2922
 1325ERGO    C214620   6.526   3.289   7.576  0.0002 -0.2257 -0.2144
 1326ERGO   ROH14621  16.841   4.484   7.134 -0.0762  0.0300  0.0399
 1326ERGO    R114622  17.024   4.523   7.347 -0.0676  0.1177  0.0174
 1326ERGO    R214623  16.980   4.705   7.550 -0.1480  0.0705  0.0445
 1326ERGO    R314624  17.020   4.487   7.709  0.0053  0.0757  0.0140
 1326ERGO    R414625  16.970   4.707   7.896 -0.0489  0.0324  0.0478
 1326ERGO    R514626  17.141   4.572   7.897  0.0176  0.1171 -0.0137
 1326ERGO    C114627  17.002   4.505   8.246  0.1527  0.0152  0.0211
 1326ERGO    C214628  16.875   4.544   8.566 -0.1125 -0.0895 -0.2678
 1327ERGO   ROH14629  16.689   2.391   7.237 -0.2587  0.0017 -0.0245
 1327ERGO    R114630  16.646   2.364   7.515 -0.1548  0.0575 -0.0032
 1327ERGO    R214631  16.853   2.354   7.698 -0.0885  0.0898 -0.0819
 1327ERGO    R314632  16.718   2.559   7.814 -0.0403  0.1142 -0.0657
 1327ERGO    R414633  16.895   2.460   8.024  0.0942  0.1878 -0.1350
 1327ERGO    R514634  16.680   2.486   8.039  0.0956  0.1739 -0.0192
 1327ERGO    C114635  16.792   2.713   8.323  0.2463  0.2678 -0.1507
 1327ERGO    C214636  16.866   2.850   8.638 -0.2834 -0.2572  0.1740
 1328ERGO   ROH14637   2.078   0.519   6.896 -0.2761  0.0278  0.0505
 1328ERGO    R114638   2.080   0.436   7.167 -0.2202  0.0498  0.0561
 1328ERGO    R214639   2.267   0.526   7.349 -0.1718  0.0471  0.0024
 1328ERGO    R314640   2.047   0.594   7.493 -0.1304  0.0770  0.0536
 1328ERGO    R414641   2.255   0.544   7.694 -0.1494 -0.1966  0.0183
 1328ERGO    R514642   2.057   0.453   7.686 -0.2089 -0.0741 -0.0467
 1328ERGO    C114643   2.040   0.619   8.030 -0.0974 -0.3104  0.0756
 1328ERGO    C214644   2.038   0.636   8.354  0.1405  0.0732 -0.2227
 1329ERGO   ROH14645  11.402  13.140   6.499  0.1745  0.1204  0.1011
 1329ERGO    R114646  11.331  13.041   6.754  0.3525  0.0147  0.1128
 1329ERGO    R214647  11.458  13.121   6.986  0.1246  0.3842  0.1239
 1329ERGO    R314648  11.205  13.180   7.066 -0.0461 -0.1869  0.0482
 1329ERGO    R414649  11.355  13.141   7.315  0.0453  0.4289  0.0953
 1329ERGO    R514650  11.170  13.041   7.258  0.2961 -0.1048  0.1730
 1329ERGO    C114651  11.057  13.208   7.582 -0.1611 -0.0811  0.0076
 1329ERGO    C214652  10.911  13.414   7.839  0.0476 -0.1287 -0.0304
 1330ERGO   ROH14653   3.409  10.495   6.673 -0.0155 -0.1692  0.1118
 1330ERGO    R114654   3.431  10.681   6.886  0.0814 -0.1143  0.0535
 1330ERGO    R214655   3.285  10.656   7.119  0.1394 -0.0159  0.0938
 1330ERGO    R314656   3.530  10.671   7.235  0.1712 -0.0335  0.0321
 1330ERGO    R414657   3.342  10.736   7.451  0.2253  0.0819  0.0570
 1330ERGO    R514658   3.513  10.855   7.387  0.2426  0.0255 -0.0240
 1330ERGO    C114659   3.606  10.796   7.753  0.3051  0.1225 -0.0223
 1330ERGO    C214660   3.649  10.944   8.097  0.2290  0.2970  0.3056
 1331ERGO   ROH14661   7.751  11.603   6.649  0.0945  0.0097 -0.1657
 1331ERGO    R114662   7.833  11.810   6.824  0.1652  0.1595 -0.3714
 1331ERGO    R214663   7.884  11.767   7.092 -0.3417  0.4954 -0.2020
 1331ERGO    R314664   8.123  11.882   7.031 -0.0343 -0.0136 -0.0242
 1331ERGO    R414665   8.054  11.988   7.296 -0.0286  0.1727 -0.1018
 1331ERGO    R514666   8.105  12.104   7.119  0.3673  0.0440 -0.0776
 1331ERGO    C114667   8.377  12.225   7.358  0.4422 -0.4933  0.1234
 1331ERGO    C214668   8.655  12.299   7.638 -0.0484 -0.0562  0.0159
 1332ERGO   ROH14669   6.421  10.143   6.733  0.1019 -0.1485  0.0335
 1332ERGO    R114670   6.509  10.222   6.990  0.0217 -0.0022  0.0160
 1332ERGO    R214671   6.468  10.477   7.089 -0.1188  0.0159 -0.0946
 1332ERGO    R314672   6.355  10.343   7.297 -0.0854  0.0461 -0.0552
 1332ERGO    R414673   6.510  10.557   7.423  0.0984 -0.0520 -0.1036
 1332ERGO    R514674   6.523  10.344   7.467  0.0070 -0.0683 -0.1412
 1332ERGO    C114675   6.429  10.477   7.812  0.2563 -0.0632 -0.0719
 1332ERGO    C214676   6.564  10.601   7.970 -0.2521  0.2436  0.2106
 1333ERGO   ROH14677   4.746  10.734   6.850  0.1315 -0.0954 -0.0153
 1333ERGO    R114678   4.793  10.720   7.128  0.0110  0.0118  0.0104
 1333ERGO    R214679   4.686  10.903   7.306 -0.1298  0.0336 -0.0985
 1333ERGO    R314680   4.591  10.679   7.428 -0.1094  0.0425 -0.0651
 1333ERGO    R414681   4.672  10.855   7.648 -0.1504  0.0967 -0.0899
 1333ERGO    R514682   4.735  10.649   7.617 -0.1189  0.0979 -0.0470
 1333ERGO    C114683   4.575  10.617   7.962 -0.1432  0.1417 -0.0535
 1333ERGO    C214684   4.684  10.516   8.234  0.0289  0.0518 -0.1034
 1334ERGO   ROH14685  14.447   2.438   7.058 -0.1222 -0.1605 -0.0271
 1334ERGO    R114686  14.424   2.362   7.329  0.0450  0.0361  0.0439
 1334ERGO    R214687  14.389   2.545   7.533 -0.1600  0.1647 -0.1103
 1334ERGO    R314688  14.173   2.390   7.592  0.0599 -0.0882  0.0754
 1334ERGO    R414689  14.252   2.510   7.848 -0.1208  0.3744 -0.0673
 1334ERGO    R514690  14.224   2.297   7.807  0.1962  0.2641  0.2069
 1334ERGO    C114691  13.970   2.345   8.087  0.1084  0.2592  0.1320
 1334ERGO    C214692  13.705   2.444   8.175 -0.0860 -0.0775 -0.2281
 1335ERGO   ROH14693  15.782   5.342   7.012  0.1046 -0.5772 -0.2008
 1335ERGO    R114694  15.870   5.291   7.276 -0.0022  0.0209 -0.0327
 1335ERGO    R214695  15.819   5.464   7.487 -0.7730  0.1507 -0.2817
 1335ERGO    R314696  15.715   5.241   7.601 -0.2095 -0.0604 -0.1452
 1335ERGO    R414697  15.772   5.419   7.826 -0.4632  0.1162 -0.2409
 1335ERGO    R514698  15.840   5.213   7.804 -0.0223  0.2594 -0.2199
 1335ERGO    C114699  15.647   5.183   8.131  0.2463 -0.1021 -0.0891
 1335ERGO    C214700  15.531   5.122   8.496 -0.1479  0.1231 -0.2313
 1336ERGO   ROH14701   7.119  14.641   6.383  0.0452 -0.1416  0.0996
 1336ERGO    R114702   7.225  14.539   6.625 -0.0725 -0.0280  0.2004
 1336ERGO    R214703   7.209  14.676   6.865 -0.2218  0.0684  0.1350
 1336ERGO    R314704   7.095  14.445   6.952 -0.2375  0.0889  0.1699
 1336ERGO    R414705   7.253  14.539   7.179  0.0487 -0.0640  0.0426
 1336ERGO    R514706   7.264  14.343   7.087 -0.1379 -0.0378 -0.0430
 1336ERGO    C114707   7.172  14.243   7.444  0.1915 -0.1220  0.0215
 1336ERGO    C214708   7.278  14.043   7.704  0.2632 -0.1438 -0.2407
 1337ERGO   ROH14709  15.667   2.833   7.313 -0.3015 -0.0454 -0.1361
 1337ERGO    R114710  15.758   2.778   7.575 -0.2206 -0.0597 -0.1665
 1337ERGO    R214711  15.702   2.942   7.790 -0.1325 -0.0584 -0.1426
 1337ERGO    R314712  15.607   2.712   7.899 -0.1201 -0.0496 -0.1174
 1337ERGO    R414713  15.682   2.877   8.129  0.0100 -0.0788 -0.1383
 1337ERGO    R514714  15.747   2.674   8.089 -0.0411 -0.0854 -0.1832
 1337ERGO    C114715  15.581   2.624   8.429  0.1048 -0.0823 -0.1121
 1337ERGO    C214716  15.398   2.825   8.629 -0.0948 -0.0134  0.0798
 1338ERGO   ROH14717  15.814   4.833   7.057  0.1023 -0.0330  0.1096
 1338ERGO    R114718  15.668   4.887   7.293  0.0708  0.0998  0.0607
 1338ERGO    R214719  15.574   4.686   7.459 -0.0675  0.1884  0.0900
 1338ERGO    R314720  15.710   4.826   7.649 -0.0461  0.1713  0.0879
 1338ERGO    R414721  15.566   4.618   7.798  0.0434  0.0968  0.0748
 1338ERGO    R514722  15.560   4.833   7.836  0.0035  0.0870  0.1323
 1338ERGO    C114723  15.688   4.709   8.173  0.1281  0.0274  0.0640
 1338ERGO    C214724  15.684   4.671   8.588  0.3152  0.0337 -0.2449
 1339ERGO   ROH14725  10.416  12.998   6.424  0.0723 -0.2836 -0.0749
 1339ERGO    R114726  10.411  13.013   6.706  0.0551 -0.2115 -0.0793
 1339ERGO    R214727  10.330  13.240   6.842 -0.0161 -0.2001 -0.1431
 1339ERGO    R314728  10.159  13.067   6.964  0.0280 -0.2170 -0.1039
 1339ERGO    R414729  10.223  13.266   7.170 -0.1845 -0.0332 -0.2093
 1339ERGO    R514730  10.242  13.050   7.188 -0.0647 -0.0122 -0.0505
 1339ERGO    C114731  10.000  13.119   7.475 -0.2411  0.0481 -0.2110
 1339ERGO    C214732   9.794  13.042   7.585 -0.0171  0.1018  0.1006
 1340ERGO   ROH14733   0.478  15.646   7.171  0.1862  0.0255  0.1164
 1340ERGO    R114734   0.360  15.625   7.427  0.1574  0.1430  0.1147
 1340ERGO    R214735   0.149  15.455   7.481  0.0242  0.2988  0.1281
 1340ERGO    R314736   0.314  15.364   7.676 -0.0435  0.2037  0.1401
 1340ERGO    R414737   0.044  15.303   7.773 -0.0546  0.0059 -0.0495
 1340ERGO    R514738   0.198  15.413   7.880 -0.1636 -0.0221  0.1227
 1340ERGO    C114739   0.138  15.128   8.126 -0.1639 -0.2536 -0.1417
 1340ERGO    C214740  -0.061  14.995   8.384  0.0050  0.1883  0.0547
 1341ERGO   ROH14741   9.308   8.177   6.878 -0.0738 -0.0159  0.0689
 1341ERGO    R114742   9.454   8.245   7.111 -0.1129  0.0899  0.0635
 1341ERGO    R214743   9.332   8.335   7.342 -0.1709 -0.0009  0.0718
 1341ERGO    R314744   9.470   8.130   7.456 -0.0150  0.0966  0.0606
 1341ERGO    R414745   9.383   8.295   7.682 -0.1485  0.0076  0.0692
 1341ERGO    R514746   9.587   8.231   7.639 -0.0988  0.1697  0.0716
 1341ERGO    C114747   9.542   8.079   7.986  0.0110  0.1040  0.0572
 1341ERGO    C214748   9.465   7.927   8.235  0.0492  0.1193  0.3821
 1342ERGO   ROH14749   1.396   4.532   7.544 -0.1742 -0.0322  0.0604
 1342ERGO    R114750   1.286   4.579   7.800  0.0718 -0.1333  0.1890
 1342ERGO    R214751   1.441   4.653   8.017  0.2412  0.1606 -0.0194
 1342ERGO    R314752   1.265   4.860   8.031 -0.0627 -0.0988  0.1345
 1342ERGO    R414753   1.437   4.892   8.267  0.2393  0.2760 -0.1299
 1342ERGO    R514754   1.219   4.883   8.265  0.2437 -0.0612  0.1926
 1342ERGO    C114755   1.271   5.226   8.425 -0.0471  0.0996 -0.0498
 1342ERGO    C214756   1.366   5.434   8.742  0.3040 -0.1859 -0.1274
 1343W        W14757  10.858   5.108  12.861 -0.2481 -0.3342  0.2766
 1344W        W14758   5.432  13.566  12.300 -0.2015 -0.0625  0.3013
 1345W        W14759   5.712   0.750   4.621  0.2171  0.0932 -0.0602
 1346W        W14760  16.070  16.818  12.284  0.0565  0.1917 -0.3193
 1347W        W14761  14.603  16.765  16.156 -0.1809 -0.0622  0.1352
 1348W        W14762  18.052  16.502   4.099  0.0065  0.1146 -0.1508
 1349W        W14763   7.739   2.563   3.271 -0.1267 -0.0853 -0.1258
 1350W        W14764  16.547   9.074   4.241 -0.0124 -0.1789 -0.1393
 1351W        W14765  14.482  15.336   1.988 -0.2175 -0.0028 -0.2135
 1352W        W14766   4.810   1.176  12.065  0.1651  0.2423  0.0847
 1353W        W14767   4.651  13.709  11.608 -0.0324 -0.1799  0.0314
 1354W        W14768  11.572   2.501   2.182  0.0457 -0.0319 -0.1711
 1355W        W14769  17.599   5.236   0.319 -0.1348 -0.0997  0.2178
 1356W        W14770   0.773   7.772  11.093 -0.2438 -0.0431 -0.3326
 1357W        W14771   7.323   2.198  15.056  0.1295 -0.1275 -0.1737
 1358W        W14772  17.069   8.523  16.681  0.0124  0.1950 -0.0917
 1359W        W14773   6.238   9.858   0.800  0.1563 -0.3172 -0.0953
 1360W        W14774  14.855   7.604  14.151 -0.0172 -0.4063 -0.1749
 1361W        W14775   2.357   8.082  14.500  0.0068  0.0901  0.1450
 1362W        W14776  13.625   3.306   2.262  0.2344  0.2084  0.1008
 1363W        W14777   0.202   3.698  11.553  0.0513 -0.1308 -0.1605
 1364W        W14778  14.483   5.299   3.997 -0.4149  0.0785 -0.0003
 1365W        W14779  13.929  11.086   0.496  0.0544  0.0587 -0.2767
 1366W        W14780   3.275   6.256   4.891 -0.1476  0.3082 -0.0791
 1367W        W14781   7.686   1.073  13.708  0.1138 -0.4322 -0.1287
 1368W        W14782   4.144  11.692   3.851  0.1673  0.1221  0.1200
 1369W        W14783   5.210   9.900   1.025 -0.2371  0.1408  0.3699
 1370W        W14784  12.800   5.071  12.320  0.0989  0.2384 -0.1293
 1371W        W14785   7.505  12.472   0.407  0.1870  0.3601  0.0736
 1372W        W14786  14.389   0.437  16.115  0.0883 -0.2086 -0.0120
 1373W        W14787  14.614  15.312   0.837 -0.0077 -0.3458 -0.0093
 1374W        W14788  10.678  10.783  13.996 -0.1199  0.0844 -0.3697
 1375W        W14789   8.785  17.657   1.355  0.1169  0.0167  0.1265
 1376W        W14790   1.609  15.436   3.521 -0.2443 -0.2515 -0.2895
 1377W        W14791  17.039   4.365  15.594  0.0459  0.2776  0.0473
 1378W        W14792  16.492  10.225   3.374 -0.1629 -0.2801 -0.0457
 1379W        W14793  15.383  14.183   6.175 -0.0466  0.0351  0.1544
 1380W        W14794   5.682   2.882   2.323  0.1384 -0.0550  0.1838
 1381W        W14795   5.554   0.878  12.980  0.4069  0.0909  0.3058
 1382W        W14796  14.757   7.828   1.073  0.1451  0.0130 -0.0677
 1383W        W14797  18.052   3.285  11.783 -0.2043  0.1648 -0.0610
 1384W        W14798  11.609   8.291   2.598  0.0725 -0.2938  0.0014
 1385W        W14799   8.724   4.011   4.192 -0.2878  0.1579  0.2929
 1386W        W14800   0.711   9.549  14.748 -0.0048  0.1979  0.1445
 1387W        W14801   7.190   0.788  13.394 -0.3233  0.1686 -0.0417
 1388W        W14802  11.428   9.479   3.996  0.2517  0.1339  0.2708
 1389W        W14803  13.876  17.941   1.437  0.0671 -0.2542  0.0269
 1390W        W14804   2.087   3.653   0.669 -0.1296 -0.0755  0.1125
 1391W        W14805  10.150  17.134  13.800 -0.2176  0.1348 -0.0436
 1392W        W14806   6.271   8.155   2.949 -0.1928  0.3650  0.3490
 1393W        W14807   3.762   8.821   5.929 -0.0557 -0.1807 -0.1020
 1394W        W14808   1.748   9.947   2.310  0.0960 -0.3552 -0.0999
 1395W        W14809  15.390   2.148  15.770 -0.0774 -0.4067 -0.3876
 1396W        W14810  10.522  17.815  13.821 -0.1041  0.2572 -0.0779
 1397W        W14811  17.392   1.097   0.183 -0.2055 -0.0017  0.0674
 1398W        W14812  17.540   4.686   2.980  0.1133 -0.1215 -0.0535
 1399W        W14813   2.941   1.172   3.976  0.0338  0.1839  0.1011
 1400W        W14814  12.124   5.631  15.357  0.5300  0.0899 -0.1635
 1401W        W14815   1.864  15.073   5.126  0.1446  0.0048 -0.1046
 1402W        W14816   5.365   8.337  11.155 -0.3106 -0.1131 -0.1541
 1403W        W14817   5.939  16.145   2.282 -0.2458 -0.0585  0.0663
 1404W        W14818   0.752  12.569   4.359 -0.0874  0.1557 -0.1475
 1405W        W14819   5.555   0.679   1.205  0.0643  0.0203 -0.2589
 1406W        W14820   0.229  13.906  13.949  0.2324  0.2528  0.0175
 1407W        W14821   7.554   9.990   1.596 -0.0569 -0.1621  0.1344
 1408W        W14822  17.883   8.087  16.476 -0.0495 -0.2422  0.0659
 1409W        W14823   1.138   9.655  11.466 -0.0040  0.1131 -0.0889
 1410W        W14824   9.451   1.329  13.346 -0.1734  0.0648  0.1896
 1411W        W14825   4.938   1.174   6.697 -0.2529 -0.1421 -0.0063
 1412W        W14826  15.498  14.815   0.019  0.4391 -0.3105  0.2485
 1413W        W14827  15.372  14.098   1.049  0.0539  0.0055  0.0470
 1414W        W14828  15.195   5.356   0.849 -0.0219  0.1530  0.2402
 1415W        W14829  14.450   3.019  16.246  0.2053  0.0328 -0.2707
 1416W        W14830  10.113   2.685   1.857  0.1612 -0.1806  0.2666
 1417W        W14831   1.824   8.572   4.250 -0.0331  0.2730  0.2837
 1418W        W14832   0.919   6.744   4.919 -0.0192  0.0268  0.1470
 1419W        W14833  11.651   6.253   2.688  0.0737 -0.1073 -0.1915
 1420W        W14834   3.561   1.934  15.266  0.2855 -0.0071 -0.1639
 1421W        W14835  15.334   3.108   5.376 -0.1831  0.3141  0.0118
 1422W        W14836   5.876  10.736   1.152 -0.1900 -0.3071 -0.0672
 1423W        W14837   7.805  12.721  13.276 -0.1439 -0.1562  0.1860
 1424W        W14838  12.697   7.846   4.244  0.0024 -0.1881  0.5016
 1425W        W14839   4.518   6.996   1.779  0.2326 -0.0326  0.0865
 1426W        W14840  16.366   0.224   2.906 -0.2645 -0.0475 -0.0654
 1427W        W14841  15.894   0.687   4.751 -0.2129 -0.1107  0.2748
 1428W        W14842   4.370   4.271   2.775 -0.3399 -0.3862 -0.0562
 1429W        W14843  15.699   7.399  13.761 -0.1537  0.4052  0.1856
 1430W        W14844  16.630  14.185   2.384  0.0684 -0.0334 -0.1667
 1431W        W14845   6.499  16.965   4.464 -0.3256  0.0997 -0.1277
 1432W        W14846  16.335  18.023   1.353  0.0754 -0.2199 -0.0003
 1433W        W14847  11.875   7.182  13.092  0.0088  0.2287 -0.0141
 1434W        W14848  14.134  10.165   1.628 -0.1456  0.0370  0.0796
 1435W        W14849  12.191   3.721   4.466 -0.3873 -0.2065  0.0738
 1436W        W14850  10.393   0.428   4.976  0.1533  0.0236  0.2755
 1437W        W14851   7.267  17.993  10.208 -0.0249 -0.1686 -0.3166
 1438W        W14852   1.055   3.296   3.575 -0.0403 -0.0681  0.0588
 1439W        W14853  11.151  12.707   1.619 -0.3878 -0.1704  0.0690
 1440W        W14854  16.509   5.781  13.513 -0.3437  0.0288  0.1300
 1441W        W14855  14.106  11.395   2.868 -0.0355  0.0964  0.0958
 1442W        W14856  14.745   7.784   0.090 -0.2934 -0.0611  0.4020
 1443W        W14857   5.876   1.075  14.202 -0.1993 -0.0252  0.0513
 1444W        W14858   7.381  16.198  11.217  0.0027 -0.0627  0.0892
 1445W        W14859  12.172  15.527  14.311  0.0900  0.0140 -0.1779
 1446W        W14860  11.609   6.623  12.340  0.0442  0.1551 -0.1894
 1447W        W14861  11.781   9.243   0.013  0.4284 -0.0053  0.0652
 1448W        W14862  14.600   5.945  14.757  0.0388 -0.1427 -0.1886
 1449W        W14863  15.494  13.778   4.385 -0.1380 -0.1109  0.2400
 1450W        W14864   9.655   1.822   2.996  0.1575  0.1772  0.0881
 1451W        W14865   1.819   1.957   2.452 -0.1080 -0.1056  0.0494
 1452W        W14866   3.129   6.384  15.265  0.2489 -0.1159  0.0207
 1453W        W14867  13.599  10.090  16.202 -0.2340  0.0163 -0.1918
 1454W        W14868   0.936   8.270   1.871 -0.0946  0.2321  0.0787
 1455W        W14869  12.820  12.080   4.435 -0.2854  0.1286 -0.2542
 1456W        W14870  14.695  10.087  12.863  0.3683 -0.1276  0.1096
 1457W        W14871  17.427   0.998  13.957  0.1023 -0.3859 -0.3448
 1458W        W14872  14.864  13.596  13.979 -0.0492  0.1193  0.1347
 1459W        W14873  16.799   2.952  15.326  0.0270  0.2636  0.0570
 1460W        W14874   9.356   3.927   2.315 -0.1522  0.2265  0.0738
 1461W        W14875   8.804   7.642  12.883  0.2488 -0.1954  0.0866
 1462W        W14876  14.031   6.577  15.961 -0.1018 -0.2094 -0.0498
 1463W        W14877   8.163   9.751   2.219  0.0770  0.0921 -0.0174
 1464W        W14878   2.494   7.489   0.347 -0.0234 -0.0497  0.0251
 1465W        W14879  13.057  15.044   4.724 -0.4676  0.0612  0.0209
 1466W        W14880   6.125   1.033   3.912 -0.1380  0.0169 -0.2311
 1467W        W14881   3.447  16.315   0.062  0.3021  0.3257  0.0761
 1468W        W14882   3.339  14.643  14.928 -0.0339 -0.0063  0.1632
 1469W        W14883  12.634  15.356   5.493 -0.1399 -0.2808  0.0812
 1470W        W14884   1.052   1.062  13.241  0.2714  0.1421  0.0523
 1471W        W14885   8.610  11.589   1.716  0.0926 -0.2482 -0.0064
 1472W        W14886   9.331  16.551   0.544 -0.0019  0.1694  0.2241
 1473W        W14887  16.383   8.560   0.080  0.2953  0.2175  0.2215
 1474W        W14888  12.938   1.104   4.017 -0.0340 -0.0330 -0.0127
 1475W        W14889   9.284  14.225   2.604  0.0820  0.2822 -0.3088
 1476W        W14890   9.767  11.721  11.379 -0.1829 -0.1056 -0.0616
 1477W        W14891  11.836   9.319  12.809  0.1589 -0.0387  0.3077
 1478W        W14892   9.983   0.581   0.159 -0.1529 -0.1139  0.2603
 1479W        W14893  11.125  12.746  11.162  0.0190 -0.0791 -0.0224
 1480W        W14894  11.321  16.575  14.175 -0.2624  0.1130  0.0023
 1481W        W14895   4.064   7.642  14.251  0.2626 -0.0911 -0.1371
 1482W        W14896  14.556   1.057  13.515  0.1146  0.1148  0.2541
 1483W        W14897   0.593   7.461   5.366 -0.0665  0.1969  0.2849
 1484W        W14898   7.915   1.524   0.795  0.0099 -0.3044  0.1559
 1485W        W14899  16.824   9.235   6.043 -0.0477  0.0084  0.0151
 1486W        W14900  11.549   6.940   3.332 -0.2358 -0.1290  0.1277
 1487W        W14901  16.850  17.053   5.521  0.2163  0.0791  0.2028
 1488W        W14902   8.315  15.861   0.627  0.0317  0.2625 -0.1621
 1489W        W14903   2.903  16.330  14.083 -0.1076 -0.0131 -0.2223
 1490W        W14904   1.987  16.021   5.151  0.1521 -0.0513  0.0905
 1491W        W14905  14.482   7.005   6.789  0.0805  0.0114  0.2150
 1492W        W14906  17.786  12.288  11.521  0.2070 -0.2861 -0.0415
 1493W        W14907   3.687   8.832   2.701 -0.0135  0.1214  0.4238
 1494W        W14908   4.871  12.185  12.421  0.1717  0.0397  0.1794
 1495W        W14909  14.135   7.599  12.195  0.2111  0.1130  0.1929
 1496W        W14910   2.410  10.169  13.433 -0.0954  0.2418  0.0082
 1497W        W14911  16.846   8.720   4.588 -0.0432 -0.0497 -0.4384
 1498W        W14912  13.576   1.353  16.526 -0.1627  0.0573  0.0296
 1499W        W14913  15.481   6.620   5.521  0.0941 -0.2507 -0.1107
 1500W        W14914  15.573   3.834   4.856  0.2399  0.0640  0.4286
 1501W        W14915   8.516  12.782   5.503 -0.0717 -0.0718 -0.0435
 1502W        W14916   1.698   5.705   4.430 -0.0136  0.0200 -0.1283
 1503W        W14917   2.765   9.644   6.286  0.2221  0.1684 -0.1426
 1504W        W14918  14.426  14.057  15.968 -0.2008 -0.1276  0.2750
 1505W        W14919   7.824   7.752  11.992 -0.2414 -0.1039 -0.1518
 1506W        W14920  12.440  10.410  11.965  0.1298 -0.0169 -0.0663
 1507W        W14921  13.922   3.445   3.175 -0.2250  0.0759  0.0723
 1508W        W14922  10.717   9.864   2.106 -0.0928 -0.2980 -0.1541
 1509W        W14923   6.281   9.818  12.031  0.1501 -0.0444 -0.0671
 1510W        W14924   2.822  16.554   4.735 -0.2910  0.2759 -0.0872
 1511W        W14925   8.422  16.608  14.379  0.0240 -0.2333 -0.2103
 1512W        W14926  11.647  14.482  15.443 -0.2912  0.1419 -0.0201
 1513W        W14927  13.791  11.451   0.130  0.0837 -0.0511 -0.3816
 1514W        W14928   5.435  13.904  16.256  0.1647  0.1778  0.0276
 1515W        W14929   4.009  15.116   0.181  0.3402  0.0126  0.4655
 1516W        W14930  17.270   4.389  13.531 -0.1040 -0.2572 -0.3885
 1517W        W14931  13.664  13.752   4.569 -0.1849 -0.0347 -0.0788
 1518W        W14932  15.843   8.713   0.159  0.3791  0.0939  0.0097
 1519W        W14933  14.562   0.578  15.137 -0.0411 -0.0941 -0.0368
 1520W        W14934  10.847  13.743  11.679 -0.1674  0.1633  0.0068
 1521W        W14935   8.907  17.588  13.442  0.0622 -0.1199  0.2963
 1522W        W14936   5.753   6.071  11.599  0.0998  0.0262 -0.0508
 1523W        W14937   7.682  10.483  11.090 -0.1563 -0.0250  0.1679
 1524W        W14938   0.449   0.163   5.252  0.0092  0.0609  0.1502
 1525W        W14939   6.194  11.996  15.489 -0.0440 -0.0106  0.0218
 1526W        W14940   0.362   5.133   6.476  0.0716  0.2360 -0.1486
 1527W        W14941   6.314   0.034   2.463  0.1341  0.1946 -0.0341
 1528W        W14942   2.679   2.053   5.317 -0.1377 -0.0770  0.0557
 1529W        W14943  10.499   3.890  15.282  0.2693 -0.2012  0.0528
 1530W        W14944   6.621  12.209  13.494  0.1128 -0.0368  0.0310
 1531W        W14945   5.757  14.853  15.205  0.0241  0.0304 -0.0652
 1532W        W14946  12.275  11.517  14.301 -0.1331  0.0429  0.1330
 1533W        W14947  13.605  16.288   6.244 -0.4642 -0.0145 -0.0276
 1534W        W14948   6.945  15.006   5.433  0.1835 -0.0221 -0.1714
 1535W        W14949  16.124  15.578  15.910 -0.1269 -0.1035 -0.3268
 1536W        W14950  12.603   1.632   3.275 -0.1468  0.0406 -0.1949
 1537W        W14951   3.374  17.114  12.020  0.1497 -0.1618  0.2688
 1538W        W14952  10.643  17.639   1.339 -0.1093 -0.1336 -0.1517
 1539W        W14953  14.805  10.479  13.667  0.3260  0.0083  0.2889
 1540W        W14954   5.672  12.128   4.688  0.0331 -0.1161  0.0244
 1541W        W14955  15.032   9.700   0.573 -0.1099  0.2675  0.1941
 1542W        W14956   4.092  13.122  13.561 -0.2692 -0.0684  0.2620
 1543W        W14957   0.236   0.366  13.078  0.2181 -0.2194  0.0948
 1544W        W14958  14.079   8.157  15.842 -0.2013 -0.3441 -0.0752
 1545W        W14959  16.183   7.360  13.135 -0.1517  0.0260  0.0106
 1546W        W14960   1.236  13.750   3.525  0.1675 -0.0603 -0.1480
 1547W        W14961  12.504   5.937  16.061  0.1411 -0.1221  0.0811
 1548W        W14962   0.567   1.439  13.221  0.0865  0.0558 -0.0136
 1549W        W14963   9.847  14.791  15.604  0.0905  0.0935 -0.4844
 1550W        W14964   4.761   0.327  11.624  0.0299  0.0453  0.2034
 1551W        W14965   0.916  12.829  12.818  0.0325 -0.0888  0.0199
 1552W        W14966   6.320  13.537  12.683  0.1955 -0.1420  0.0064
 1553W        W14967   0.087  17.488  15.985 -0.0135 -0.1422 -0.0947
 1554W        W14968  16.520  11.529   0.449 -0.1872 -0.2004 -0.0219
 1555W        W14969   5.159  15.636  12.671  0.0205  0.2289 -0.3973
 1556W        W14970  12.630   6.622   6.597  0.0512  0.3570 -0.0826
 1557W        W14971   2.271  11.838  11.232  0.0325  0.1117  0.2002
 1558W        W14972   7.701   4.670   2.522  0.0945 -0.2317 -0.0122
 1559W        W14973   7.832  17.346   4.396 -0.0873  0.2832  0.2002
 1560W        W14974  11.196  12.782  11.882 -0.3977  0.1141  0.0066
 1561W        W14975  10.453   8.715   5.766  0.1731  0.0209 -0.2205
 1562W        W14976   1.250   4.078  15.538  0.0751  0.0427  0.2168
 1563W        W14977   0.542  16.399  16.093 -0.1551 -0.0677 -0.0055
 1564W        W14978  14.933   4.789  14.870  0.2542  0.1381  0.1740
 1565W        W14979   3.254  10.727  15.100 -0.1173  0.1754 -0.0919
 1566W        W14980   4.059   7.135   1.748 -0.2644  0.1143 -0.1437
 1567W        W14981   0.501  10.475   0.940 -0.3018 -0.1033  0.0189
 1568W        W14982   5.468   2.915   1.045  0.1860  0.1128 -0.1164
 1569W        W14983   1.284  12.756   5.106  0.1083 -0.0586 -0.0902
 1570W        W14984  11.925   9.070  13.710 -0.1782  0.3690  0.1126
 1571W        W14985   5.782  10.199  15.676  0.0627 -0.0868  0.1843
 1572W        W14986  13.721  10.490  16.532  0.1619  0.4442 -0.3732
 1573W        W14987  14.431   4.892  15.152  0.2781 -0.0743 -0.2451
 1574W        W14988   0.491   2.258   1.495  0.1197  0.0287 -0.0932
 1575W        W14989   2.230  10.507  14.362  0.2765  0.1157 -0.1577
 1576W        W14990   8.569   0.502  13.150  0.0464  0.0217  0.0197
 1577W        W14991  16.641   4.265  16.274  0.1462 -0.0388  0.0732
 1578W        W14992  12.826  13.561   2.116  0.1050 -0.2024  0.1982
 1579W        W14993   3.779   6.833   5.628 -0.0398  0.3809  0.3411
 1580W        W14994  17.990   4.313   2.813  0.1534 -0.2658 -0.2304
 1581W        W14995  11.846   5.757  14.171 -0.1599  0.0003 -0.1947
 1582W        W14996   5.593   0.027  14.611 -0.1130  0.1033  0.1241
 1583W        W14997  16.092   7.764   0.843 -0.1001 -0.1509 -0.0483
 1584W        W14998  17.972   8.201   0.289 -0.1162 -0.3517  0.2615
 1585W        W14999   3.628  13.502   4.970  0.2081  0.0334  0.0398
 1586W        W15000   1.909  12.896  14.507  0.2595  0.1502  0.1322
 1587W        W15001   2.987   1.261   6.099 -0.2572 -0.0812 -0.2416
 1588W        W15002  10.500   5.743   5.851  0.1431  0.2112  0.0468
 1589W        W15003  10.757   6.359  10.813 -0.0560  0.0601 -0.1268
 1590W        W15004   4.203  16.166  12.223 -0.1456 -0.2923  0.0896
 1591W        W15005  10.140   9.128   4.342  0.0839 -0.2970 -0.2518
 1592W        W15006   6.731   1.124  14.823  0.2676 -0.1114  0.0864
 1593W        W15007  11.654  12.987   1.455  0.0582  0.0839 -0.2280
 1594W        W15008  10.726   3.782  15.844  0.0397 -0.1534 -0.1595
 1595W        W15009  17.963   8.621  12.570 -0.1646  0.3039 -0.1731
 1596W        W15010  11.238   7.316   4.961  0.1118 -0.3083 -0.2618
 1597W        W15011   4.081   3.034   3.690 -0.0069 -0.2223 -0.0419
 1598W        W15012   1.971  16.094  10.933 -0.0594  0.0568  0.0215
 1599W        W15013  17.965  11.448   4.434 -0.2917  0.0562  0.0377
 1600W        W15014  11.848   2.234   1.314 -0.0737  0.0814 -0.2028
 1601W        W15015  17.856  10.256  16.360  0.0517  0.2222  0.4114
 1602W        W15016   1.969  12.021   2.039 -0.1108 -0.1886 -0.1914
 1603W        W15017   0.214  16.134   0.446  0.0187 -0.0628 -0.3748
 1604W        W15018  12.886   8.665   2.795 -0.1545 -0.2462  0.0606
 1605W        W15019   8.356  14.775   2.931  0.1756 -0.0820  0.3127
 1606W        W15020  13.721  10.451   5.742  0.2408 -0.0059  0.0675
 1607W        W15021   9.058  11.363  10.090  0.1611  0.1673  0.1640
 1608W        W15022   8.695   9.777  15.578  0.2148  0.1422 -0.0463
 1609W        W15023   9.649   9.880  13.540 -0.0554 -0.2047 -0.1612
 1610W        W15024   6.979  12.614  14.228  0.0567 -0.1452  0.0504
 1611W        W15025   0.743   1.223   2.514 -0.2204 -0.1603 -0.2584
 1612W        W15026   7.847   7.931  13.638  0.1287  0.1481  0.0470
 1613W        W15027   3.157  14.296  12.726 -0.2410  0.0151 -0.0947
 1614W        W15028  10.907   2.064   0.359  0.3275  0.1545  0.0452
 1615W        W15029  17.134   4.186  16.021  0.2887  0.2391 -0.2670
 1616W        W15030  11.765   3.044   2.742 -0.3664 -0.1690 -0.1898
 1617W        W15031   5.709   7.603   2.378 -0.0412 -0.3281 -0.2324
 1618W        W15032   0.313   6.359  15.265 -0.0567 -0.3096 -0.0021
 1619W        W15033  14.600   6.833   1.020  0.0891  0.1315 -0.1525
 1620W        W15034   9.922   9.207   0.455  0.3043 -0.0670  0.0233
 1621W        W15035   3.342   4.122  14.141 -0.4667 -0.0737  0.1787
 1622W        W15036   7.712   4.466  12.426  0.2356  0.1668  0.6093
 1623W        W15037   5.614  10.103   1.877  0.3874 -0.3697 -0.1139
 1624W        W15038  11.859   1.423   2.691  0.0883 -0.0024 -0.0739
 1625W        W15039  11.996   5.387   4.539  0.2013  0.1173  0.2165
 1626W        W15040  14.352   7.060  11.492  0.2104  0.1637  0.0885
 1627W        W15041  17.411  16.143   0.361 -0.4668  0.0455  0.2241
 1628W        W15042  13.017   3.809   6.007 -0.2465 -0.1807  0.1421
 1629W        W15043   5.558  13.981  13.213 -0.0120  0.1707  0.0368
 1630W        W15044   6.947  17.536   4.915  0.1503 -0.0555  0.0679
 1631W        W15045  11.346  15.699   1.729 -0.3220 -0.1300 -0.1006
 1632W        W15046   9.802   9.857   4.018  0.3545 -0.0296 -0.1954
 1633W        W15047  12.159  17.959  14.852 -0.2418 -0.2039  0.0194
 1634W        W15048   5.502  15.109   0.982  0.0261  0.2941 -0.1972
 1635W        W15049   7.095   9.839  10.770  0.1286  0.1257 -0.0043
 1636W        W15050   6.575   0.252  13.291 -0.1134 -0.0114  0.3888
 1637W        W15051  14.163  10.130   2.173  0.3762  0.2027 -0.1219
 1638W        W15052  16.298   1.403   1.498 -0.0365 -0.0453 -0.0929
 1639W        W15053   2.771   2.950  14.533 -0.1457 -0.2327  0.1868
 1640W        W15054  14.889   7.410   6.189 -0.2063  0.1770  0.5473
 1641W        W15055   0.409   6.227   3.556 -0.2084  0.0609 -0.1754
 1642W        W15056   0.641  12.963   0.996  0.2537 -0.4065  0.0461
 1643W        W15057  12.341  17.011  14.765  0.0839 -0.1055  0.1940
 1644W        W15058   5.843   7.562  12.660 -0.3055  0.0680 -0.0651
 1645W        W15059   8.664   6.541  16.064 -0.2026 -0.0659 -0.1006
 1646W        W15060  13.525   2.798  11.828  0.0160 -0.0447  0.1545
 1647W        W15061  16.561  17.425   3.324 -0.1070  0.1283  0.3215
 1648W        W15062  17.035   6.832   0.742  0.0719  0.0235 -0.2680
 1649W        W15063   7.400   3.237   1.446  0.3270 -0.0021 -0.0745
 1650W        W15064  11.062  12.758  10.676  0.2130 -0.0108 -0.1562
 1651W        W15065  17.661   4.295   3.264 -0.0695 -0.3325 -0.1347
 1652W        W15066   4.220   4.929  14.737  0.1011 -0.2155  0.2246
 1653W        W15067   2.009   3.394   7.160  0.2645  0.0622  0.0577
 1654W        W15068  16.844  12.114   3.456  0.0243 -0.1287 -0.0587
 1655W        W15069  11.368  11.659   6.117  0.2474  0.1230 -0.1275
 1656W        W15070  17.996   4.208   7.097  0.2115 -0.3626  0.0522
 1657W        W15071   1.150  10.289   4.223  0.4021  0.1933 -0.2297
 1658W        W15072  15.978   8.310  14.732 -0.0069  0.0217  0.0065
 1659W        W15073   1.040  15.633   2.944 -0.0774 -0.0380 -0.2868
 1660W        W15074   0.046   0.404   5.491 -0.0858 -0.0332 -0.1429
 1661W        W15075   0.341   5.220  15.917 -0.1173  0.0962  0.0587
 1662W        W15076  11.812  10.713  15.671  0.0152  0.0172  0.0879
 1663W        W15077   9.290  17.397   2.372  0.0734  0.2511 -0.1584
 1664W        W15078   4.025   5.758   1.855  0.0446 -0.1911  0.1155
 1665W        W15079  15.048  11.017  13.447  0.0031 -0.1733  0.1450
 1666W        W15080  13.532   8.627   5.277  0.0178 -0.1973 -0.1858
 1667W        W15081   4.065   5.936  11.375 -0.0466  0.1344  0.2026
 1668W        W15082   5.437  14.030   4.964 -0.2005  0.4070 -0.2884
 1669W        W15083  10.186   9.966  14.137  0.0237 -0.2071  0.2842
 1670W        W15084   8.583   7.373  12.018  0.2213 -0.2031 -0.0222
 1671W        W15085  16.097   7.797  15.991  0.1465 -0.1474  0.0489
 1672W        W15086  15.851  16.480   5.066 -0.0976 -0.0159  0.2361
 1673W        W15087  17.686  13.536  16.578 -0.0546 -0.1826 -0.3118
 1674W        W15088   4.635   5.803  14.503  0.3090  0.2891 -0.0133
 1675W        W15089   0.973  16.915   5.104  0.1552 -0.0643  0.0374
 1676W        W15090   2.508   5.483  14.825 -0.2079  0.2105 -0.5175
 1677W        W15091  16.855   6.144   3.613 -0.0509 -0.0163 -0.0310
 1678W        W15092  10.885  14.907  14.156 -0.1197 -0.1810 -0.1028
 1679W        W15093   6.194  17.834  13.925  0.2130  0.2086 -0.0019
 1680W        W15094  17.282  16.894   1.431 -0.2289 -0.1050  0.3214
 1681W        W15095  13.426  17.589   1.693  0.0792 -0.0804  0.3010
 1682W        W15096  16.395   6.112   3.773 -0.2371  0.1948  0.1211
 1683W        W15097   7.188   2.720  11.480  0.3009  0.0310 -0.0925
 1684W        W15098  16.117   4.715   4.867 -0.2026 -0.2623  0.1335
 1685W        W15099   2.399   0.736   4.925  0.1001 -0.0815 -0.2071
 1686W        W15100  15.655   1.057  13.127  0.0842  0.3797  0.0175
 1687W        W15101   7.835   2.257  15.068 -0.0406 -0.1214 -0.0369
 1688W        W15102  12.855   2.412   2.011  0.2012 -0.0612  0.2034
 1689W        W15103  10.015  17.454  10.883  0.1975 -0.0899 -0.0941
 1690W        W15104   7.596   5.563   5.016  0.2339 -0.0959  0.2115
 1691W        W15105   2.017  12.689  13.596 -0.1924 -0.1385 -0.0885
 1692W        W15106  16.806  11.356   3.947 -0.0368 -0.1682  0.0423
 1693W        W15107  17.587   4.172  12.564  0.2032 -0.1756 -0.0492
 1694W        W15108  10.801   9.425   0.813  0.0788 -0.0966  0.3258
 1695W        W15109   1.747   1.443   3.663  0.0449  0.3753  0.0513
 1696W        W15110   7.994  10.258  11.459 -0.2333  0.0544  0.2709
 1697W        W15111  13.973   0.502  13.979  0.0042  0.0385 -0.1067
 1698W        W15112   5.226   1.568  11.233 -0.1932 -0.3319 -0.2705
 1699W        W15113  13.107  13.386  11.338 -0.1642  0.1649  0.2756
 1700W        W15114   6.851  13.996   2.282  0.1417  0.2321  0.0948
 1701W        W15115  13.572   9.071   3.192 -0.0918 -0.0291  0.1234
 1702W        W15116   1.972  16.408   6.482 -0.1899  0.2645 -0.1109
 1703W        W15117  13.756   7.803  15.826  0.0636  0.0805 -0.3330
 1704W        W15118  17.710  16.308   4.901 -0.0934  0.3393 -0.1679
 1705W        W15119  10.178  15.541  11.369  0.1048  0.4608  0.0800
 1706W        W15120   2.083   7.067   2.802 -0.0230  0.0845 -0.0256
 1707W        W15121  11.980   4.527   4.810  0.0412 -0.3844  0.0653
 1708W        W15122  18.048   2.814   3.067 -0.2241 -0.0419 -0.0732
 1709W        W15123  15.322   7.997  15.943 -0.3741 -0.1191 -0.1189
 1710W        W15124   4.992   9.497  10.212  0.3644 -0.1987 -0.0974
 1711W        W15125   9.350  11.496   3.845 -0.1379 -0.4238  0.3118
 1712W        W15126  10.543  17.462  15.917 -0.0688 -0.2690 -0.2159
 1713W        W15127   3.827  13.580  14.240 -0.3754 -0.0143 -0.0586
 1714W        W15128   3.647   5.667  13.076  0.0631  0.1102  0.1371
 1715W        W15129  16.277  10.027   4.475  0.1781  0.0536 -0.4311
 1716W        W15130   1.486   4.515  13.875 -0.1455 -0.0890 -0.0575
 1717W        W15131   0.723  15.031  14.864 -0.1537 -0.2175  0.3889
 1718W        W15132   7.756  11.152   1.679 -0.0873  0.2232 -0.0410
 1719W        W15133  11.075   2.048   2.658 -0.0683 -0.0177 -0.2935
 1720W        W15134   1.822  11.721   0.636 -0.0961 -0.0883  0.0547
 1721W        W15135  14.038   7.382   4.728 -0.1408  0.0772 -0.1712
 1722W        W15136   2.833   2.281  16.559 -0.0133 -0.0279  0.0115
 1723W        W15137   3.384   7.337   3.549  0.0518  0.1451 -0.3968
 1724W        W15138   1.956   7.379   5.660  0.0646  0.2547 -0.4415
 1725W        W15139  13.700  13.367   3.144  0.0475 -0.1095  0.2048
 1726W        W15140  17.759   3.617   3.919 -0.2340  0.0098 -0.2556
 1727W        W15141  14.156   4.915   2.322 -0.0830  0.0600  0.6485
 1728W        W15142   6.651  16.865  16.083  0.5616 -0.1259  0.0003
 1729W        W15143  17.140  13.024   5.143 -0.3781  0.0005  0.1131
 1730W        W15144  15.101  12.978   5.607  0.0298  0.1516 -0.4823
 1731W        W15145   2.014  17.636   5.066  0.1120 -0.0781  0.2165
 1732W        W15146   8.612  10.286  11.142 -0.1179 -0.2923 -0.2021
 1733W        W15147   1.478   9.370   5.246  0.3107  0.3531  0.1430
 1734W        W15148   8.357   9.271  14.908 -0.3981  0.0383 -0.1039
 1735W        W15149   0.499   2.007   3.352 -0.0633  0.2231 -0.0095
 1736W        W15150  10.914   2.723  13.691  0.1245  0.0378 -0.1352
 1737W        W15151  15.471  16.860  10.787  0.2249  0.1597  0.0407
 1738W        W15152  16.180  16.396  13.518 -0.3013  0.3894  0.0137
 1739W        W15153   3.630  11.119   4.347  0.2299 -0.1004 -0.2753
 1740W        W15154  13.735  12.864   4.235 -0.2439  0.1562  0.1806
 1741W        W15155   9.715  10.782  16.642 -0.0196 -0.2061  0.0294
 1742W        W15156   9.646   2.505   1.520  0.0879 -0.0568 -0.1981
 1743W        W15157   3.480   5.801   2.026 -0.0606 -0.3324 -0.0076
 1744W        W15158  17.723  17.131   5.193 -0.0610 -0.0619  0.1396
 1745W        W15159   1.269  10.990  16.479  0.0936  0.0709  0.0605
 1746W        W15160  14.168  11.206   6.197  0.1306  0.0639  0.1902
 1747W        W15161  12.986  11.672   2.243  0.2099  0.1945 -0.1719
 1748W        W15162   9.228   6.283  14.329  0.0505  0.1084  0.0295
 1749W        W15163   0.574  10.001   1.978 -0.1218  0.1051  0.2304
 1750W        W15164  17.534   4.061  14.101  0.0734  0.3195 -0.0690
 1751W        W15165   9.868   0.549  12.768 -0.2239  0.0012 -0.3909
 1752W        W15166   3.942  17.381  14.970  0.1566  0.0600  0.2498
 1753W        W15167  13.505  11.724  15.085  0.1491  0.0283  0.2398
 1754W        W15168   0.337  16.357   2.469  0.1236 -0.1608  0.2476
 1755W        W15169   4.340   2.887   1.555 -0.3213  0.2665  0.3860
 1756W        W15170   6.261   4.060   4.464  0.1123 -0.3268 -0.0689
 1757W        W15171  14.261   0.957   3.989  0.0438 -0.1822 -0.4990
 1758W        W15172   2.559   4.554  16.525 -0.1338  0.0733  0.3495
 1759W        W15173  17.131  11.908  14.269 -0.2149 -0.1318 -0.1036
 1760W        W15174   7.668   3.727   5.828  0.1689  0.0520  0.0961
 1761W        W15175  12.901   8.236  14.926  0.0302  0.3244 -0.1880
 1762W        W15176   8.252  10.644  15.310 -0.0652 -0.0909  0.2064
 1763W        W15177   7.461   0.535   1.945 -0.1055 -0.1001 -0.0492
 1764W        W15178   9.650   1.591  10.481 -0.1205  0.2262 -0.0782
 1765W        W15179  15.867  12.263   0.099 -0.0324  0.2022 -0.1169
 1766W        W15180   2.014   5.117  14.683  0.1330 -0.4436 -0.0076
 1767W        W15181  13.053  17.284   0.485 -0.1858  0.4050 -0.0692
 1768W        W15182  13.531   4.066  12.509 -0.0860 -0.0375  0.1717
 1769W        W15183   0.525   2.873   2.939 -0.2627 -0.2679 -0.1224
 1770W        W15184   8.927   9.096  16.076  0.0963  0.1856 -0.0379
 1771W        W15185   0.207  15.018  16.560 -0.2297  0.0434  0.1744
 1772W        W15186  17.400   9.879  12.704  0.0717  0.2587  0.1045
 1773W        W15187  11.763  11.347  14.706 -0.2816  0.1776  0.3162
 1774W        W15188   7.709  13.144   4.434  0.3260  0.0071  0.1322
 1775W        W15189   6.983   9.451  13.429 -0.0913 -0.0119 -0.0908
 1776W        W15190   1.987  16.865   3.215 -0.0228  0.1776 -0.0682
 1777W        W15191   0.112   6.850  12.155  0.3060  0.0360  0.1858
 1778W        W15192   6.419   0.488   3.378 -0.1968 -0.1823  0.1427
 1779W        W15193   3.541  13.194   2.173  0.1156 -0.1957  0.0576
 1780W        W15194   7.629   6.707  12.820 -0.4359 -0.0047 -0.1231
 1781W        W15195  10.677  17.575   4.087 -0.4945 -0.0220 -0.0002
 1782W        W15196   0.796   3.522   3.887  0.1988  0.0244  0.1119
 1783W        W15197  13.080   8.016  12.219  0.2242 -0.1918  0.1815
 1784W        W15198  10.446   8.844   1.475 -0.1231  0.2708  0.3489
 1785W        W15199   0.533  14.361  12.583  0.3723 -0.0662  0.1889
 1786W        W15200  16.355   9.656  16.571  0.1312 -0.0271  0.2246
 1787W        W15201   5.073   0.440  13.825  0.2123 -0.0555  0.4078
 1788W        W15202   9.732   2.611  11.619  0.0279 -0.0189 -0.0455
 1789W        W15203   3.660  16.868  12.426  0.1089  0.0034 -0.3334
 1790W        W15204  11.168   1.163   3.641 -0.0048 -0.0823  0.0980
 1791W        W15205   6.770   5.664   3.910 -0.1223  0.0326 -0.0874
 1792W        W15206   9.160  12.256   3.306  0.0436 -0.2772 -0.0789
 1793W        W15207   2.954  12.678   0.146  0.0185 -0.0790 -0.1937
 1794W        W15208   7.305  17.404  16.659  0.1059 -0.1218 -0.0405
 1795W        W15209  11.402  15.176   3.942  0.0510 -0.0832  0.1372
 1796W        W15210   1.180  11.846   0.960 -0.0732 -0.0386 -0.1300
 1797W        W15211  14.614   3.714  12.115  0.0031 -0.0469  0.0396
 1798W        W15212   4.847  15.070  15.999  0.1058  0.1646  0.3102
 1799W        W15213   3.773   2.697  10.098  0.1003  0.0495  0.0832
 1800W        W15214  14.972   4.826   0.243  0.1619  0.1355  0.0981
 1801W        W15215  11.406  14.958   4.474 -0.2067 -0.0912  0.0987
 1802W        W15216   9.697   8.373  15.573  0.0400 -0.0225  0.0483
 1803W        W15217   6.654   3.729   0.515  0.0780  0.0431 -0.0091
 1804W        W15218   7.015   2.113   1.537  0.1527  0.2260 -0.4692
 1805W        W15219   0.217  13.243   1.172  0.1313  0.0516 -0.2281
 1806W        W15220   3.777  17.679  12.829 -0.2064  0.1008  0.1590
 1807W        W15221   4.810  17.341   5.538 -0.2881  0.3747  0.0913
 1808W        W15222  12.522   9.156  13.745  0.0062 -0.2593  0.2798
 1809W        W15223  17.855   8.071  14.061  0.0792 -0.2683  0.2974
 1810W        W15224   5.946   9.038  11.276 -0.2154 -0.0735  0.2165
 1811W        W15225  13.085   7.819   3.284  0.1690 -0.1420 -0.2140
 1812W        W15226  16.380  11.439  15.888  0.1400  0.3624  0.0093
 1813W        W15227   8.506   9.127  16.376  0.0333  0.0736  0.1045
 1814W        W15228   4.661  15.119  13.275 -0.3089 -0.0077 -0.0948
 1815W        W15229   3.591   8.261   5.832  0.0778  0.0437 -0.1480
 1816W        W15230  12.027  12.998   5.165  0.0552 -0.0910 -0.2492
 1817W        W15231   4.110   4.352   4.118 -0.0168  0.0833  0.1284
 1818W        W15232  13.065   7.770   1.315  0.0189 -0.1886 -0.2317
 1819W        W15233  14.781  12.393  16.677 -0.0677  0.1240  0.1277
 1820W        W15234  15.065  17.570  14.838 -0.1321  0.1410  0.2553
 1821W        W15235   2.805  11.983   2.584  0.0364 -0.2678 -0.2025
 1822W        W15236  11.087   1.179  15.337  0.2038 -0.1858  0.0689
 1823W        W15237  11.121  14.419  16.108  0.3405 -0.0722 -0.1130
 1824W        W15238   0.730  11.898   1.734  0.0138 -0.3180 -0.0162
 1825W        W15239  11.430  12.537  15.140  0.2073  0.1246 -0.0031
 1826W        W15240   1.015   0.288   6.150  0.2831  0.0303  0.1511
 1827W        W15241   6.482  15.772  12.484 -0.1260 -0.0430  0.1874
 1828W        W15242  10.672   6.886   2.056 -0.2305  0.1954  0.1676
 1829W        W15243   0.639  14.097   2.457 -0.0663 -0.2530  0.0875
 1830W        W15244   0.596  14.268   2.984  0.2831  0.0173  0.2234
 1831W        W15245   5.048   5.171  13.530  0.1173  0.0380 -0.0021
 1832W        W15246  13.375   6.102  15.336 -0.0062  0.0545 -0.1481
 1833W        W15247   9.632  17.234   4.162 -0.0859 -0.0197  0.0082
 1834W        W15248  10.818  10.246  10.887 -0.0110  0.0549  0.0699
 1835W        W15249  17.509  17.494  15.777  0.0568 -0.0023 -0.3232
 1836W        W15250  13.401   5.473   4.074  0.1525  0.4496 -0.1491
 1837W        W15251  12.507   5.067   0.894  0.1380  0.3434 -0.1528
 1838W        W15252  16.851  11.492   4.526 -0.1255  0.0216 -0.1637
 1839W        W15253  17.186   3.671   6.121 -0.1879  0.3025  0.1185
 1840W        W15254   6.933  15.253   1.568  0.1035 -0.2102 -0.2100
 1841W        W15255   8.023  11.966  14.467 -0.0194 -0.0313  0.1289
 1842W        W15256   7.514   2.296   3.672 -0.2007 -0.1241  0.1904
 1843W        W15257  13.536  10.289  13.666 -0.0424 -0.2476  0.4093
 1844W        W15258  17.016   8.197   0.871  0.1749  0.1283 -0.2081
 1845W        W15259  15.963   6.968   2.891 -0.2066 -0.4132 -0.0871
 1846W        W15260   4.913   2.848  14.868 -0.2136 -0.1096  0.2437
 1847W        W15261  12.808  16.729   2.677  0.0936 -0.0441  0.0222
 1848W        W15262   2.279   8.412   3.372 -0.0680 -0.3301 -0.1929
 1849W        W15263  12.363  14.068  14.594 -0.1302  0.0214 -0.0893
 1850W        W15264   5.021   0.854  14.770 -0.0179 -0.1091  0.0440
 1851W        W15265  12.654  10.757   0.615  0.1818  0.0795 -0.0004
 1852W        W15266   3.729  10.280   2.531 -0.0619  0.0420 -0.4692
 1853W        W15267  11.717   3.605   1.089 -0.0200  0.0274  0.3642
 1854W        W15268   3.368   3.627   6.044 -0.1246 -0.0319 -0.0882
 1855W        W15269   2.120   6.616   3.029  0.1252 -0.0771  0.0307
 1856W        W15270  15.465  12.751   4.471 -0.4980  0.0839  0.0416
 1857W        W15271  12.220   6.923   2.115  0.2667 -0.1306  0.2532
 1858W        W15272   1.415  14.104  14.545  0.0054  0.0705 -0.1171
 1859W        W15273   5.669   3.823  13.760  0.1779  0.2140  0.0688
 1860W        W15274   3.533  16.531   4.073  0.4354  0.0202 -0.1582
 1861W        W15275  15.833   0.373  16.273 -0.0627 -0.1770  0.0165
 1862W        W15276  14.131  10.852  12.535 -0.0158  0.4580 -0.2008
 1863W        W15277   7.913  15.010   6.398  0.0730  0.2050  0.2259
 1864W        W15278   5.822   5.739   3.564  0.0857 -0.0249  0.1649
 1865W        W15279   8.196  10.036   5.142 -0.0900  0.0091  0.1416
 1866W        W15280   1.192  13.768   4.087 -0.0548  0.0222 -0.0885
 1867W        W15281   5.815  15.072  14.545 -0.1946  0.2183  0.2105
 1868W        W15282   2.347   9.926  14.340  0.0578 -0.3477  0.1137
 1869W        W15283  10.108  16.041   2.989  0.0739  0.0324 -0.0646
 1870W        W15284   0.410   4.241   6.814 -0.1708 -0.2439 -0.0207
 1871W        W15285   4.315   8.932   5.000 -0.2418 -0.1346 -0.2946
 1872W        W15286   9.049  17.865  15.200  0.1101 -0.3073  0.1527
 1873W        W15287   2.906   1.231   2.461  0.0703  0.2228 -0.1741
 1874W        W15288  16.317   7.168  13.729 -0.0034  0.1903 -0.1067
 1875W        W15289   4.172  14.393  14.173 -0.1952 -0.0550 -0.2785
 1876W        W15290   1.077  10.162  12.416 -0.0769 -0.2431  0.0175
 1877W        W15291   3.606   6.047  11.321  0.0286  0.2163 -0.0397
 1878W        W15292  15.853   9.226  11.953 -0.0164  0.0942 -0.1285
 1879W        W15293   2.904   2.475   5.318 -0.0628  0.0999 -0.1342
 1880W        W15294   5.215   4.724   0.867 -0.1412 -0.1047  0.0362
 1881W        W15295  12.759  11.703  16.250  0.0982  0.0159 -0.0327
 1882W        W15296  11.814  15.354  10.944 -0.4544 -0.1571  0.1066
 1883W        W15297   1.304   8.640   1.281  0.1620 -0.0713 -0.1487
 1884W        W15298  17.805   0.020   0.271  0.0865 -0.2006 -0.0871
 1885W        W15299   1.416  15.998   5.070 -0.0531  0.0010 -0.1795
 1886W        W15300   8.001   4.125  14.231  0.1438  0.1465  0.0939
 1887W        W15301  10.732   3.624   2.299  0.0934  0.0098  0.3334
 1888W        W15302  13.372  11.530   3.586 -0.0846  0.2097  0.1327
 1889W        W15303   4.192   1.448  13.912 -0.0028 -0.0900  0.2113
 1890W        W15304  12.327   0.783  11.419 -0.0509 -0.1593  0.1062
 1891W        W15305   9.463  12.964   4.911 -0.1444  0.3388 -0.0183
 1892W        W15306  17.820   0.650  16.077  0.0812  0.3920  0.2134
 1893W        W15307  10.390   1.480  13.220 -0.2175  0.1997  0.1125
 1894W        W15308  11.277   3.974  13.496 -0.1458 -0.1405 -0.1164
 1895W        W15309   8.117  17.428  15.113 -0.2369 -0.0583 -0.1020
 1896W        W15310  13.801   9.230  10.179 -0.3905 -0.0330  0.0862
 1897W        W15311   6.734  10.739   5.792  0.0758 -0.1196 -0.1610
 1898W        W15312  15.669   0.802   5.752  0.1710 -0.0449  0.0391
 1899W        W15313  15.520  14.799  10.349 -0.3713 -0.0527  0.1024
 1900W        W15314   5.258   4.088  11.862 -0.3071  0.1541 -0.3932
 1901W        W15315   5.958   4.125  12.444 -0.0650 -0.0306  0.2237
 1902W        W15316  11.451  11.573   0.901  0.1400 -0.1934  0.1211
 1903W        W15317  16.043  11.109  11.423 -0.4768 -0.0961  0.4858
 1904W        W15318  12.208   6.522   0.631 -0.4403  0.0964 -0.0836
 1905W        W15319  11.472   3.182  14.989 -0.1167 -0.2416  0.2905
 1906W        W15320   9.184   7.397  14.659 -0.1564 -0.3119  0.2129
 1907W        W15321   5.459  16.232   4.536 -0.2785 -0.1257 -0.2687
 1908W        W15322   8.309  10.601  16.237  0.0305  0.2045 -0.0114
 1909W        W15323  16.130  12.357  13.152  0.1868  0.1022  0.0385
 1910W        W15324   9.833  17.530  14.536 -0.2397  0.0100  0.0551
 1911W        W15325   5.450   0.267  12.289 -0.1882 -0.0121  0.0989
 1912W        W15326   3.584   9.272  13.663  0.2367  0.0382 -0.2451
 1913W        W15327   6.264  10.176   1.171  0.1069  0.0142 -0.1155
 1914W        W15328   7.261   4.498   4.466 -0.0707  0.2163  0.0118
 1915W        W15329   6.324  17.321   4.126  0.0514 -0.0165  0.0003
 1916W        W15330   6.694   9.995   5.737 -0.1849  0.0253 -0.1134
 1917W        W15331   0.001   9.989   0.167  0.1233 -0.0853  0.0801
 1918W        W15332   0.813   5.339   6.285 -0.2451 -0.2120 -0.1230
 1919W        W15333   2.651   9.564   2.928  0.0213 -0.2516 -0.0155
 1920W        W15334  11.281  16.101  14.887 -0.1541 -0.4365 -0.2324
 1921W        W15335  10.394  10.679   0.481  0.1236 -0.0261 -0.1994
 1922W        W15336   4.750   0.219   3.769 -0.4209 -0.0777  0.0554
 1923W        W15337  12.035   9.542   0.384 -0.0083 -0.4193 -0.5077
 1924W        W15338  16.082   6.749   0.750 -0.1079 -0.0480  0.0213
 1925W        W15339   1.279   3.897  15.981  0.1151  0.0295  0.1127
 1926W        W15340   8.603  13.908  12.203 -0.2140  0.3128  0.1895
 1927W        W15341   7.467   1.725  11.263  0.2454  0.0596  0.3743
 1928W        W15342  11.754   9.916  15.833  0.3003  0.2714  0.2164
 1929W        W15343  13.136  10.502   1.454 -0.1118 -0.1447 -0.2214
 1930W        W15344   4.936  11.698   1.561 -0.1315 -0.1807  0.1751
 1931W        W15345   1.296   6.601  14.230 -0.1488  0.0531 -0.2868
 1932W        W15346  14.347   2.512  16.458  0.0221 -0.3923 -0.0336
 1933W        W15347   6.609   1.048   3.784 -0.1449 -0.0525  0.0980
 1934W        W15348  17.017   6.596   4.474  0.2457  0.0870 -0.1971
 1935W        W15349  15.353  15.926   1.008  0.1540  0.1428  0.0159
 1936W        W15350  10.631  13.941  12.749 -0.1710  0.0360  0.1116
 1937W        W15351   5.891   4.427  14.690 -0.2322 -0.1109 -0.0995
 1938W        W15352   4.445  17.531   0.688 -0.0461  0.0980  0.1198
 1939W        W15353  14.652  16.804   4.376 -0.0610  0.2261 -0.0447
 1940W        W15354   0.395   3.479  14.734 -0.0604 -0.0689  0.0870
 1941W        W15355  14.794   4.304   2.433  0.1076 -0.1696 -0.0686
 1942W        W15356   2.987  14.767   4.561 -0.3151  0.0074 -0.2321
 1943W        W15357   3.015   3.865  16.287  0.1264  0.0368 -0.0294
 1944W        W15358  10.088  12.014  11.761 -0.0229 -0.0857 -0.0114
 1945W        W15359   3.955  17.246  13.062  0.3071  0.1219  0.1367
 1946W        W15360   5.128  11.542   3.288 -0.2458 -0.1206  0.0033
 1947W        W15361   3.296  10.890  13.651 -0.1227 -0.1307 -0.1519
 1948W        W15362  16.668   2.267  11.440 -0.3307 -0.2348  0.1115
 1949W        W15363   3.668  10.672   4.717  0.1320 -0.0305  0.1956
 1950W        W15364   9.764  14.376  11.256  0.0997  0.1913 -0.0998
 1951W        W15365  16.570  12.378   4.834  0.0326  0.0027 -0.1854
 1952W        W15366  13.768   5.864  12.993 -0.0271 -0.1818 -0.0031
 1953W        W15367   2.339  14.590  14.117 -0.0964  0.0815  0.1351
 1954W        W15368  11.881   6.243  14.266  0.0368  0.0226  0.1530
 1955W        W15369  17.272  11.757   1.214 -0.0036  0.1846  0.0591
 1956W        W15370  10.661  12.787  13.873  0.1064  0.0284  0.1671
 1957W        W15371   3.335  10.135   0.126 -0.0886  0.1982 -0.0823
 1958W        W15372  13.544   9.867  11.598 -0.0936 -0.1925  0.2980
 1959W        W15373   3.601   9.692   5.063 -0.0476 -0.0125  0.0540
 1960W        W15374  14.436   2.093  16.231  0.0214  0.1980 -0.1233
 1961W        W15375  10.802  13.522   4.959 -0.0998 -0.0609  0.0652
 1962W        W15376  17.085  11.297   0.808  0.1686 -0.0604 -0.3440
 1963W        W15377  13.669  13.890  13.069  0.0663  0.1574  0.0762
 1964W        W15378  11.823   4.082  16.038  0.1106  0.0878 -0.3401
 1965W        W15379   9.710   0.623  12.236 -0.0217  0.2718  0.1440
 1966W        W15380  12.799  10.844  13.263 -0.3182 -0.1589  0.0682
 1967W        W15381   4.903   8.802  16.376  0.2196 -0.1323 -0.2494
 1968W        W15382   1.702   3.375   1.539  0.1538  0.2509  0.0997
 1969W        W15383   4.944  14.448   1.310 -0.2284 -0.0410 -0.3041
 1970W        W15384  15.550   1.281  14.089  0.0102  0.0343 -0.2053
 1971W        W15385  13.449  14.985  12.280  0.0095 -0.1405 -0.0292
 1972W        W15386  12.869   2.398  11.989  0.1722 -0.2362  0.1344
 1973W        W15387   4.933   6.144  13.542  0.1575 -0.3123  0.0560
 1974W        W15388   4.978  16.270  14.014 -0.0371 -0.0122  0.0226
 1975W        W15389   9.146  13.191  11.792 -0.0937  0.3952  0.0761
 1976W        W15390  12.653  15.486  12.132 -0.1736 -0.0103 -0.1008
 1977W        W15391   4.832  12.261   4.083 -0.1022 -0.1585 -0.2617
 1978W        W15392  10.288   6.202  15.267 -0.2182  0.3421  0.0481
 1979W        W15393  17.451  16.561   6.549  0.2131  0.1502  0.1474
 1980W        W15394   1.826  17.884   0.907 -0.4131  0.1472 -0.1597
 1981W        W15395  10.551   8.615   4.034  0.4734 -0.2601 -0.0204
 1982W        W15396  14.420   2.520  11.543  0.0456  0.0938  0.3732
 1983W        W15397   8.639   5.044  13.809 -0.2595 -0.1973 -0.0851
 1984W        W15398   3.818   0.731  13.407  0.0281  0.1488  0.3547
 1985W        W15399  16.864  14.256   0.194 -0.4680  0.1584 -0.0326
 1986W        W15400   7.695   4.130   3.445  0.0071  0.3061 -0.0715
 1987W        W15401   1.926  10.675   4.718 -0.1928  0.1609 -0.2117
 1988W        W15402   3.986   3.293   4.724 -0.3406  0.4751 -0.0682
 1989W        W15403   4.613  17.031  15.104 -0.0610  0.1281 -0.0862
 1990W        W15404   1.553   3.444  11.444  0.1532 -0.1658 -0.0106
 1991W        W15405  14.774  14.922   1.809  0.0468 -0.1565 -0.1281
 1992W        W15406   4.408   9.078  12.973  0.2642  0.0939 -0.1060
 1993W        W15407  11.716   4.748  15.252  0.0584  0.0882 -0.0984
 1994W        W15408  14.240  15.723   6.624 -0.1592  0.1522 -0.0560
 1995W        W15409  11.507  14.693  15.890 -0.0569 -0.0048  0.1248
 1996W        W15410  17.503  15.780  15.296  0.0122  0.0778  0.0678
 1997W        W15411   8.868  12.599  16.634 -0.0960  0.2663 -0.0529
 1998W        W15412  11.494   8.815   1.248 -0.0375  0.0245  0.2126
 1999W        W15413   3.374   8.623   0.622  0.1147  0.0869  0.2161
 2000W        W15414  13.970   1.043  14.759 -0.3285 -0.0107  0.1019
 2001W        W15415   3.174  14.435  10.375  0.1009  0.1497 -0.0176
 2002W        W15416   4.619  17.052  14.368 -0.0921 -0.1416  0.1218
 2003W        W15417  12.484  13.092  12.479  0.0221 -0.0346  0.0380
 2004W        W15418  17.037   8.567   2.606 -0.0616  0.0759  0.0949
 2005W        W15419  16.668  13.836  16.543 -0.1274  0.1651  0.1677
 2006W        W15420   9.149  11.622   0.985 -0.0294  0.1113 -0.0716
 2007W        W15421   4.024  10.277   1.680  0.1139  0.2229 -0.0932
 2008W        W15422  12.451  10.222   4.599 -0.0215 -0.0929  0.3771
 2009W        W15423  15.993  11.950   1.904 -0.1931  0.0435  0.1410
 2010W        W15424   4.295  16.188   2.600  0.1634 -0.1765  0.1790
 2011W        W15425   2.246   7.813  13.760 -0.0271 -0.2495  0.0022
 2012W        W15426   0.305  13.357   3.361 -0.0396 -0.0898  0.5539
 2013W        W15427   2.680   3.039  13.982  0.1229 -0.0077 -0.0608
 2014W        W15428   2.262   8.646  12.764 -0.3054 -0.1784  0.0306
 2015W        W15429   0.283   5.081  11.697  0.1078 -0.5809 -0.5314
 2016W        W15430   3.700  11.497  10.986 -0.2037  0.2636  0.0537
 2017W        W15431   1.972  16.907   0.282 -0.0342  0.0429 -0.0658
 2018W        W15432   3.349   0.770  14.952 -0.2784  0.2935 -0.1861
 2019W        W15433   5.384   1.040  11.035 -0.0810 -0.1324  0.1155
 2020W        W15434   7.200   6.395   5.653  0.3093 -0.0918  0.2400
 2021W        W15435  10.194  12.955   0.154 -0.0162 -0.0242  0.2100
 2022W        W15436   6.101   8.568  14.096  0.1883 -0.1199  0.1736
 2023W        W15437   8.198  13.908   0.039  0.0646 -0.0515  0.1405
 2024W        W15438   5.857  12.543  13.056 -0.0921  0.0894  0.1971
 2025W        W15439  10.938   5.679   2.764  0.2243 -0.1844 -0.0905
 2026W        W15440  14.638  16.088  14.865  0.1672  0.1408  0.3364
 2027W        W15441  14.190   4.429  16.423 -0.2486 -0.1747  0.1741
 2028W        W15442   3.244   5.869   5.315  0.2899 -0.2455 -0.1162
 2029W        W15443   3.464   1.629  10.940  0.0654 -0.3991  0.0338
 2030W        W15444  17.370   6.191   3.531  0.0812  0.3558 -0.0419
 2031W        W15445   8.078   3.036   3.710 -0.1192  0.0524  0.0352
 2032W        W15446  16.291   5.648  16.221 -0.0865  0.2858 -0.1532
 2033W        W15447  17.060   7.484  12.789  0.0458  0.2986  0.2903
 2034W        W15448   1.037  17.276   4.171  0.0314 -0.2683 -0.1261
 2035W        W15449   4.880   6.991  14.124  0.2155 -0.0816  0.2052
 2036W        W15450  12.806   9.146  16.082 -0.0628  0.2228  0.2559
 2037W        W15451  15.963   3.560  15.872  0.0590 -0.2424  0.2813
 2038W        W15452  14.040  16.966   6.429 -0.1448 -0.2519 -0.1212
 2039W        W15453   5.626   3.221  10.721  0.2035 -0.4151 -0.0665
 2040W        W15454  16.015   5.642   2.084 -0.1258  0.1612  0.1184
 2041W        W15455  13.508  11.099   4.795 -0.0735  0.1286 -0.1412
 2042W        W15456   9.881   5.627   3.585  0.2515  0.0230 -0.1220
 2043W        W15457  14.782   8.934   4.906  0.1741  0.2060 -0.2360
 2044W        W15458  15.710  12.401   0.997 -0.2083  0.2225 -0.1865
 2045W        W15459   7.202   2.365  12.834 -0.0529  0.1765  0.2101
 2046W        W15460   3.866   5.310   3.176  0.0360  0.2410 -0.2772
 2047W        W15461   4.909   1.115   5.117  0.2456 -0.2009 -0.3501
 2048W        W15462  11.642  15.185  12.971 -0.2059  0.2756  0.0198
 2049W        W15463  11.353  17.964   0.694 -0.0820 -0.1432 -0.1408
 2050W        W15464   9.111  16.566   2.135 -0.3339 -0.0560  0.0450
 2051W        W15465   0.772   6.041   0.008 -0.0404  0.2398 -0.1393
 2052W        W15466   3.416   6.020   4.236 -0.0508 -0.1000 -0.2170
 2053W        W15467  10.384  14.316   4.207 -0.1980  0.0049 -0.0020
 2054W        W15468  17.126   4.087  16.610  0.1878 -0.0433 -0.0167
 2055W        W15469   9.724   9.544   1.960  0.1953  0.4183  0.1130
 2056W        W15470  16.493  17.076  10.793 -0.1456 -0.0698  0.2011
 2057W        W15471  10.889  11.066  16.413  0.2819  0.5715  0.0048
 2058W        W15472   3.808   9.621   0.834  0.0700  0.0038  0.0697
 2059W        W15473   2.351  17.248   4.551  0.0107 -0.0003 -0.2550
 2060W        W15474   3.268   1.113   3.539  0.0109 -0.2136 -0.0211
 2061W        W15475   7.654  11.976   3.666 -0.0186  0.1830  0.0247
 2062W        W15476   9.812   7.987  15.865  0.2282 -0.1411 -0.1629
 2063W        W15477   4.244   6.381  14.676  0.1338  0.3912  0.0675
 2064W        W15478   7.521   3.507   4.899 -0.1085  0.1219  0.0763
 2065W        W15479   7.825  16.829   5.830 -0.3796 -0.0602 -0.0067
 2066W        W15480   9.345  16.391  15.620  0.1940  0.0293 -0.2963
 2067W        W15481   8.213   9.944  15.708 -0.0430  0.1341 -0.1293
 2068W        W15482   9.322  11.037  12.409  0.1648  0.2123 -0.2462
 2069W        W15483   8.366  13.314  12.543 -0.1008 -0.0043 -0.0260
 2070W        W15484   9.751  13.937  11.516  0.2760  0.0627 -0.0829
 2071W        W15485  10.740  16.717  15.456 -0.1253  0.1237 -0.0217
 2072W        W15486   8.543   1.423   2.307 -0.2302 -0.1595 -0.1208
 2073W        W15487   3.635  17.766   0.938  0.1850  0.2740 -0.1722
 2074W        W15488   5.093   7.579  14.712  0.0959  0.2050 -0.2381
 2075W        W15489   9.389   8.299  14.196  0.1881  0.0196 -0.0657
 2076W        W15490   5.505  13.158  14.701 -0.0176 -0.2415  0.0641
 2077W        W15491  11.332   3.001  13.364  0.2001 -0.2283  0.3463
 2078W        W15492  16.707  12.348  12.429 -0.3108 -0.2889  0.2214
 2079W        W15493  16.948   9.195   4.524  0.1020  0.2501 -0.3138
 2080W        W15494   4.441   7.928  16.415  0.1230  0.0882 -0.1019
 2081W        W15495  11.990  17.321   1.825  0.0446  0.2434  0.1153
 2082W        W15496  12.862   9.897   0.332  0.2330 -0.2722 -0.2755
 2083W        W15497  11.763   7.874  15.989  0.1037 -0.1942  0.0643
 2084W        W15498   7.445   6.875   5.608 -0.0695  0.1540 -0.1553
 2085W        W15499   0.091  17.957  16.352  0.1154  0.4823 -0.0723
 2086W        W15500  14.556   5.899  12.709 -0.4499 -0.2783 -0.0031
 2087W        W15501   8.821   7.449   3.490  0.1267 -0.1512  0.0855
 2088W        W15502   2.524   4.713   3.164  0.0057  0.1086 -0.3968
 2089W        W15503   9.624   4.773   0.916 -0.0488  0.4316 -0.3084
 2090W        W15504   2.991  16.413   1.014  0.0249  0.1150  0.1084
 2091W        W15505  16.167   7.372   4.133 -0.0863 -0.0030  0.0092
 2092W        W15506   6.372  12.699   1.246 -0.4761 -0.2101 -0.3198
 2093W        W15507   8.555   6.891  13.287  0.2361  0.0174  0.1101
 2094W        W15508   7.451  12.938   3.611  0.0009  0.4032  0.1814
 2095W        W15509  15.664  16.517   4.462 -0.0160 -0.2671 -0.2499
 2096W        W15510  10.500  16.937  13.405 -0.0818  0.0444 -0.0056
 2097W        W15511   9.297  10.276   1.310 -0.1839 -0.1311  0.3848
 2098W        W15512   8.395  11.586  14.849 -0.1696 -0.0323 -0.1727
 2099W        W15513  10.280  13.930  15.920 -0.2655 -0.2469 -0.1904
 2100W        W15514   3.131   9.765   3.325 -0.0890  0.0274 -0.0572
 2101W        W15515  16.871  10.011  11.787  0.1422 -0.1608 -0.1226
 2102W        W15516   2.830   8.969  16.471  0.0924 -0.0838  0.0092
 2103W        W15517  16.630  10.651  16.373 -0.1826 -0.0015  0.0338
 2104W        W15518  11.858  14.384  14.904  0.0080 -0.1220 -0.0324
 2105W        W15519   9.946  16.907  13.400 -0.1006 -0.3320 -0.0691
 2106W        W15520   0.801   8.406  14.111  0.1134  0.0524 -0.1701
 2107W        W15521   4.515   0.776   4.685 -0.0913  0.2414  0.2492
 2108W        W15522   0.609   7.182   0.661 -0.0280  0.1878 -0.0201
 2109W        W15523  14.269  10.984   4.537 -0.2616  0.2127  0.0379
 2110W        W15524  14.792  12.619  13.154 -0.1165 -0.2771  0.0341
 2111W        W15525   8.037   5.373  12.658  0.1889  0.2167 -0.2539
 2112W        W15526   3.284   8.200  10.902 -0.1044  0.0649 -0.0300
 2113W        W15527  16.744   5.183  10.703 -0.0481 -0.1878  0.0077
 2114W        W15528   3.431  11.075   3.870 -0.0095 -0.0388 -0.1553
 2115W        W15529   7.667   2.300  12.675 -0.1785  0.1244  0.0737
 2116W        W15530   9.648   6.127   4.064  0.2894 -0.0669  0.0451
 2117W        W15531  14.762  14.434   5.593 -0.2561 -0.2910 -0.1690
 2118W        W15532   1.724  15.007   3.702  0.0088  0.0351  0.3362
 2119W        W15533  15.847  13.854   5.063 -0.4032 -0.0770  0.1079
 2120W        W15534  10.705  12.923  16.475  0.1118 -0.1341  0.2756
 2121W        W15535   7.272   2.852   1.715  0.0506 -0.2040  0.4070
 2122W        W15536   4.666   6.298  10.956 -0.4823  0.0817 -0.2333
 2123W        W15537   8.640   1.099  11.610 -0.1885 -0.3799 -0.3493
 2124W        W15538   1.809   2.573  14.921  0.1040  0.1314  0.2333
 2125W        W15539   7.360  11.420  10.185 -0.1335  0.2401 -0.0709
 2126W        W15540  16.879  16.769  15.068 -0.0385  0.0455  0.1178
 2127W        W15541   9.559  16.561  14.671 -0.1439  0.2569  0.0037
 2128W        W15542   7.216  11.404   4.190 -0.2493  0.0351  0.1621
 2129W        W15543  15.336   3.163  14.275 -0.0577  0.1527 -0.2389
 2130W        W15544   5.315   2.772   4.966  0.1151 -0.0134  0.0412
 2131W        W15545  17.812   8.160   5.843  0.0496 -0.3261  0.1193
 2132W        W15546   8.687   8.598  13.130  0.0830  0.0700  0.0002
 2133W        W15547  16.541   0.574  15.306 -0.2585  0.1448 -0.2008
 2134W        W15548   1.299   4.653   3.704 -0.0836  0.2369 -0.1249
 2135W        W15549   5.128  13.094  11.349  0.2462  0.1102  0.4385
 2136W        W15550   4.883   0.051  14.084 -0.0815 -0.2821 -0.1769
 2137W        W15551  11.191  14.813  14.728 -0.0302 -0.0891  0.0216
 2138W        W15552   9.042  13.330  15.563  0.0498 -0.0484 -0.2072
 2139W        W15553   7.915   4.673  16.472 -0.0097 -0.4856  0.1042
 2140W        W15554   9.784   5.943   5.097 -0.1594  0.4623 -0.1636
 2141W        W15555  11.039   9.875  14.902  0.0065  0.1193 -0.4689
 2142W        W15556  10.812  12.299  15.802 -0.0007  0.0855 -0.2517
 2143W        W15557  14.758   2.137  15.856  0.2523  0.2279  0.0231
 2144W        W15558   1.621   7.109   2.433  0.0909  0.0616  0.0385
 2145W        W15559  13.077   4.698   5.441  0.0891 -0.1248  0.1224
 2146W        W15560  13.456  14.657  13.202  0.2043  0.1177 -0.0920
 2147W        W15561   3.450  15.608  12.569 -0.2386  0.2491 -0.1195
 2148W        W15562   2.475   8.231   2.786  0.0016 -0.0308 -0.0060
 2149W        W15563   0.656   5.678  13.784 -0.1623  0.2398  0.2762
 2150W        W15564  16.290  17.764  11.781 -0.1468  0.1406  0.0733
 2151W        W15565   0.079  15.054  15.605  0.0574 -0.1711 -0.2690
 2152W        W15566   6.349   5.807  15.276 -0.2349  0.1404 -0.0205
 2153W        W15567   1.772   1.395  15.370  0.0931  0.0792 -0.0695
 2154W        W15568  12.817   3.257  11.352  0.0517 -0.0232  0.2409
 2155W        W15569   6.964   5.110  14.249  0.0509  0.1494 -0.0207
 2156W        W15570   0.251   8.462   4.405 -0.3514  0.0317  0.4113
 2157W        W15571  12.043   8.502   3.833  0.3517  0.0674  0.2882
 2158W        W15572  15.085   9.483  12.462  0.2331  0.0594 -0.4676
 2159W        W15573   3.842  13.206   4.100 -0.0038 -0.1437 -0.3172
 2160W        W15574   0.745   1.451   1.507 -0.2491  0.0830 -0.0767
 2161W        W15575  12.591   8.652  12.083  0.0715  0.0391 -0.3712
 2162W        W15576   1.448   6.239   1.546 -0.1665  0.1127 -0.3672
 2163W        W15577   5.813  17.763  15.022  0.1109  0.1751 -0.0019
 2164W        W15578   1.859   2.963   3.259  0.3123 -0.2936 -0.2566
 2165W        W15579   5.372   3.188  14.658  0.0917 -0.2278 -0.1796
 2166W        W15580   1.166   8.722  11.131  0.0308 -0.0910  0.1574
 2167W        W15581  10.794  17.062   9.923  0.0701 -0.0882  0.3708
 2168W        W15582  16.124   3.769   5.621  0.1855 -0.0839 -0.0288
 2169W        W15583  11.451  15.230  11.720  0.1066  0.2465 -0.0883
 2170W        W15584  11.936  13.563   5.591  0.1758  0.2154 -0.0102
 2171W        W15585   1.370   4.964  15.677 -0.2043 -0.2669  0.3034
 2172W        W15586  17.946   1.458   1.232 -0.0785 -0.0524 -0.1934
 2173W        W15587   1.816   9.818   1.578  0.1023  0.1298  0.0572
 2174W        W15588   9.338   0.993  12.145  0.0465  0.2099  0.2430
 2175W        W15589   3.615   2.790  14.845  0.1170 -0.0008 -0.0680
 2176W        W15590   2.466   2.596  12.217 -0.2361  0.0174  0.2205
 2177W        W15591  10.997   7.151  15.809 -0.0343 -0.3048  0.1639
 2178W        W15592   5.803   8.696  15.037  0.2412  0.0233 -0.0819
 2179W        W15593   9.511  12.352  12.656  0.1406 -0.0381 -0.3095
 2180W        W15594   6.247   4.432  10.912  0.0770  0.1019  0.2043
 2181W        W15595   5.221  17.296  16.177  0.0901  0.2597 -0.2637
 2182W        W15596   8.878  10.261   3.778 -0.0946 -0.1248  0.3072
 2183W        W15597  16.038   4.337  16.101  0.1501  0.0030 -0.1215
 2184W        W15598  14.063  13.799  15.680  0.3000  0.0254 -0.1785
 2185W        W15599  13.340   4.234  15.905  0.2405  0.0923  0.1099
 2186W        W15600  13.734   1.661   6.381 -0.0226  0.1298  0.1052
 2187W        W15601   2.624  16.466   4.236  0.1818  0.5635  0.0428
 2188W        W15602  13.793   1.433  15.665 -0.0206 -0.0095 -0.1281
 2189W        W15603  11.064  14.848  15.874 -0.2921 -0.4231 -0.1997
 2190W        W15604  15.969  16.866   4.212  0.0705 -0.0977 -0.1234
 2191W        W15605  10.535   8.900   4.536  0.1960  0.2275 -0.1948
 2192W        W15606   9.206   4.307   4.360  0.0935 -0.0818  0.1193
 2193W        W15607  11.385   1.554   2.571  0.0131 -0.0841 -0.3625
 2194W        W15608   7.295  15.830  11.697 -0.2520  0.0938  0.0777
 2195W        W15609   5.362  14.932   1.949  0.1237  0.0253  0.1946
 2196W        W15610  16.360  17.491  16.129  0.1733  0.1600  0.0919
 2197W        W15611  17.847   6.113   2.758  0.1668  0.1505 -0.0660
 2198W        W15612   6.246   9.585   0.370  0.0043  0.0901 -0.1254
 2199W        W15613  15.026  10.616  13.156 -0.1863 -0.0236  0.2999
 2200W        W15614   7.234  15.920  15.643 -0.1726 -0.3817  0.0896
 2201W        W15615   7.630  14.573   2.308  0.0373 -0.3098 -0.1615
 2202W        W15616   2.427   2.409   1.333  0.0526 -0.0740  0.2352
 2203W        W15617  15.004   9.703   4.728  0.0727 -0.0580 -0.0359
 2204W        W15618   0.721   6.593   1.191  0.0395 -0.1860  0.0695
 2205W        W15619   7.139  17.942   0.321 -0.0303  0.0274 -0.1471
 2206W        W15620   6.877  14.522   3.094  0.0208  0.4670  0.2055
 2207W        W15621   4.257  14.134  15.281  0.1193 -0.0437  0.1808
 2208W        W15622   0.247   5.462   6.000  0.1400  0.0830 -0.2384
 2209W        W15623  12.347   9.785  14.857 -0.0237 -0.3108  0.1444
 2210W        W15624  17.134   3.415   5.309  0.0507 -0.2556  0.2728
 2211W        W15625   2.800  15.805  16.352 -0.1822  0.1866 -0.2743
 2212W        W15626   5.899   8.613  11.098  0.1789 -0.2727  0.1689
 2213W        W15627  10.192  14.688  16.320 -0.2220 -0.1111  0.2811
 2214W        W15628  12.921   1.620  12.724  0.1713  0.3400  0.1084
 2215W        W15629   8.822  12.565  15.927 -0.0940  0.0953  0.1117
 2216W        W15630   7.535  14.116   3.451 -0.0466  0.0537  0.3199
 2217W        W15631   2.850   3.052   0.697  0.3500 -0.0337  0.1948
 2218W        W15632  14.126  16.992   0.186  0.2103  0.1540 -0.0926
 2219W        W15633  13.126  10.357   5.039 -0.0288  0.0471  0.3689
 2220W        W15634   5.193   0.281   1.359 -0.1789 -0.3337 -0.1426
 2221W        W15635   2.982   2.651  11.662 -0.2206  0.2504 -0.0606
 2222W        W15636   5.914  16.927   1.851  0.0376  0.0854  0.2013
 2223W        W15637   4.764  13.136   2.541  0.0217 -0.0792  0.1395
 2224W        W15638   7.072  13.327  16.185  0.0204  0.2062 -0.1247
 2225W        W15639  17.076  11.095  10.267 -0.1659 -0.2690 -0.0414
 2226W        W15640  16.337  11.046  12.950  0.1435 -0.0758  0.0797
 2227W        W15641  13.449   0.540   2.992 -0.0244  0.1869  0.2298
 2228W        W15642  16.802  18.014   3.155  0.1268  0.1784 -0.1901
 2229W        W15643   0.311  17.828  11.051 -0.0181 -0.1775  0.0684
 2230W        W15644   5.627  14.967   5.019  0.1047 -0.0097 -0.1462
 2231W        W15645  16.623  16.124  14.249  0.1952 -0.3930  0.1644
 2232W        W15646  10.344  16.453   2.370 -0.1645 -0.1826 -0.2963
 2233W        W15647  12.993   4.469   1.599 -0.1440 -0.0495 -0.0403
 2234W        W15648  11.910   6.471   3.476 -0.0723  0.2915 -0.0826
 2235W        W15649   6.167  17.208   2.233  0.4464 -0.1070  0.1510
 2236W        W15650  17.235  17.835  14.651  0.2954 -0.0077 -0.1203
 2237W        W15651   9.009   4.248  15.819 -0.0575  0.1783 -0.0750
 2238W        W15652  10.967   4.306  14.161 -0.0223  0.1005 -0.0066
 2239W        W15653   2.808  13.034  12.580  0.1990  0.1098 -0.0510
 2240W        W15654   5.411  17.278   0.326  0.4809  0.0068  0.4147
 2241W        W15655   2.050  11.383  15.331  0.0836  0.3074 -0.1445
 2242W        W15656  13.507   2.895  13.681  0.3420  0.0265  0.0473
 2243W        W15657  13.466   0.630   1.596  0.2016  0.1343 -0.1643
 2244W        W15658   1.806   8.239   0.665 -0.0649 -0.2683 -0.0177
 2245W        W15659  17.716   5.805  11.757  0.2179  0.6045  0.1012
 2246W        W15660   3.219   2.682   5.636 -0.0418  0.0556  0.0387
 2247W        W15661   5.121   0.929   1.895  0.0866 -0.0621  0.2171
 2248W        W15662  13.059  16.630   3.171  0.2320  0.2960  0.0138
 2249W        W15663   4.901  14.753   1.846 -0.1798  0.2115 -0.3660
 2250W        W15664   4.631   0.675   3.706  0.3922 -0.0549 -0.2354
 2251W        W15665   7.471  15.991   0.367 -0.1763  0.1411  0.1459
 2252W        W15666  10.300  12.063  13.151  0.1848  0.2659  0.1697
 2253W        W15667  17.031   1.078  16.443  0.2598  0.0421  0.0939
 2254W        W15668  13.191   9.949   2.905 -0.0636  0.3513  0.2601
 2255W        W15669  11.118  10.466  15.713  0.0487 -0.2192  0.1240
 2256W        W15670   4.979  12.733  15.605  0.3086 -0.0103  0.2102
 2257W        W15671   6.677   0.449  10.783 -0.2496 -0.1033 -0.0182
 2258W        W15672   3.129   0.813   5.839  0.1091 -0.4362  0.0903
 2259W        W15673  12.816   3.792   5.065  0.0121 -0.0313 -0.2274
 2260W        W15674  12.647   5.357   1.318  0.0819  0.0268 -0.2119
 2261W        W15675  15.288   5.271   3.116  0.1218 -0.0074 -0.0591
 2262W        W15676   9.537  12.966  11.956  0.0315  0.0952  0.1236
 2263W        W15677  11.946  10.674  14.059 -0.0348  0.2019 -0.0584
 2264W        W15678   4.695  13.896  13.247  0.0408 -0.2037 -0.0202
 2265W        W15679  17.792   2.421  12.874  0.0654 -0.0675 -0.1342
 2266W        W15680  14.148   8.690   3.558 -0.1662 -0.1659 -0.2394
 2267W        W15681   0.163   7.641   1.340  0.0307  0.0622  0.3393
 2268W        W15682   5.901   5.750   2.771 -0.0945  0.0700  0.2304
 2269W        W15683  17.862  17.164   5.705  0.0294  0.0145 -0.5637
 2270W        W15684   4.711   7.700  13.486  0.2654  0.2325 -0.1462
 2271W        W15685   7.336  11.871  10.464  0.0193 -0.2317  0.4355
 2272W        W15686   1.531  11.378  11.026 -0.1699 -0.0105 -0.1474
 2273W        W15687  15.434   9.867  11.159 -0.3962 -0.1498 -0.0519
 2274W        W15688  15.002  17.485  11.536  0.1125 -0.0688  0.3127
 2275W        W15689   9.689  11.471   5.252  0.1509 -0.0746  0.3743
 2276W        W15690   2.125   1.718   1.492 -0.5209  0.1714 -0.0262
 2277W        W15691   4.464   7.460  15.542 -0.0675 -0.1236  0.1095
 2278W        W15692   0.574  17.189  12.791 -0.1303  0.0405 -0.5153
 2279W        W15693  15.612  12.944   5.414  0.0985 -0.0432  0.2820
 2280W        W15694   2.121  12.526   0.152  0.1156  0.0922 -0.1137
 2281W        W15695   2.978  13.819   2.036  0.0035 -0.4571 -0.0017
 2282W        W15696   5.137  11.870   1.124 -0.1915  0.1965  0.1761
 2283W        W15697   5.609  15.840   4.840 -0.2474  0.2945 -0.1410
 2284W        W15698  13.886  13.432  14.885  0.3770 -0.1734 -0.1793
 2285W        W15699   0.408   9.915   5.847  0.0473  0.0128 -0.1072
 2286W        W15700   8.655   3.506   0.350  0.1378  0.0217  0.0024
 2287W        W15701   7.520   7.083  12.483  0.1338  0.1255 -0.1755
 2288W        W15702  11.053   9.604   1.305  0.1100  0.2617  0.1709
 2289W        W15703   2.090  14.001  15.892  0.1464 -0.0387 -0.2782
 2290W        W15704  11.747   6.048   3.653  0.2109 -0.1169  0.1923
 2291W        W15705  17.016  16.572  16.001  0.0688 -0.2201  0.0640
 2292W        W15706   6.102   1.659  16.125  0.0979  0.1216 -0.2355
 2293W        W15707   5.341  12.395  15.324  0.0156  0.0387  0.0067
 2294W        W15708  15.552   9.314   2.104  0.0389  0.0130 -0.0509
 2295W        W15709  17.812   6.103  12.670  0.2820 -0.1834 -0.0065
 2296W        W15710   0.265  16.494  12.259  0.1542 -0.1513  0.2795
 2297W        W15711   8.971  17.146  15.505  0.2322  0.1786 -0.3894
 2298W        W15712   6.275   3.890   3.018 -0.0845  0.1589 -0.2554
 2299W        W15713  16.822   6.957  11.926 -0.1991 -0.0162 -0.0487
 2300W        W15714   6.366  14.934   5.863  0.2045 -0.1612 -0.1846
 2301W        W15715  12.324   8.710   0.818 -0.0006  0.1889 -0.1562
 2302W        W15716  10.289  14.024  15.353 -0.1399 -0.1259  0.6116
 2303W        W15717   6.795  17.305   3.874  0.4578  0.0070 -0.1770
 2304W        W15718  14.769  14.278   1.892 -0.1792  0.3175  0.1984
 2305W        W15719   4.056  12.698   4.237  0.1096 -0.1459  0.0492
 2306W        W15720  17.304   6.399  12.896 -0.3414  0.1633 -0.2117
 2307W        W15721   8.118   8.042   5.742  0.2078  0.0798 -0.1092
 2308W        W15722   8.240  11.198  16.106  0.0343 -0.1460 -0.1405
 2309W        W15723  12.907  12.535  14.027  0.1699  0.2039 -0.0641
 2310W        W15724  12.905  16.170   3.317  0.0431  0.1317 -0.1816
 2311W        W15725  10.338   8.982  11.951  0.2369 -0.0548  0.0186
 2312W        W15726  12.099  10.149  12.713  0.1077 -0.1152 -0.1775
 2313W        W15727   0.293  11.865   0.830 -0.0035 -0.0592  0.1480
 2314W        W15728   1.142   7.789   3.078 -0.0752 -0.1441 -0.2564
 2315W        W15729   0.400  15.171  11.923  0.0063  0.4144 -0.0873
 2316W        W15730  16.977   6.025   4.531  0.1263  0.0628 -0.0397
 2317W        W15731  12.134  15.734   0.642  0.1239 -0.2931  0.0627
 2318W        W15732  10.453  16.981  11.032 -0.0958  0.1356  0.0226
 2319W        W15733  11.277  14.015   3.342  0.0878  0.0207  0.0870
 2320W        W15734   0.030  10.647  14.239 -0.1128 -0.0684 -0.2125
 2321W        W15735   0.535   9.246  14.423  0.0251 -0.0655  0.0361
 2322W        W15736  17.316   6.195  15.049 -0.3738 -0.4897  0.1458
 2323W        W15737   1.286   1.131   2.785 -0.1678  0.2205  0.1605
 2324W        W15738  14.588  17.885  16.072  0.1477  0.2736  0.0134
 2325W        W15739   6.500   2.498  11.020  0.0700  0.1991 -0.1790
 2326W        W15740   3.387   7.282  15.735 -0.2140 -0.2414  0.0139
 2327W        W15741  11.497  15.346   3.467 -0.2367 -0.1356 -0.0240
 2328W        W15742   3.183  13.855   0.130 -0.0829 -0.3513 -0.0448
 2329W        W15743   4.934  15.366  12.047 -0.0719  0.1570 -0.1471
 2330W        W15744  10.886  14.487   5.025  0.2164  0.1050 -0.1015
 2331W        W15745  16.060   2.364  14.351 -0.1806 -0.0152 -0.3347
 2332W        W15746  15.805  10.235  10.927 -0.0607 -0.0624 -0.3664
 2333W        W15747  13.774  16.484  16.622 -0.1371 -0.0057  0.2292
 2334W        W15748   9.050   0.540   1.838 -0.1321  0.2634 -0.2470
 2335W        W15749   3.914   5.264  14.921 -0.1465  0.0034 -0.3724
 2336W        W15750  15.209   4.351  15.101  0.2076  0.1983  0.2429
 2337W        W15751   1.415   5.165  15.270 -0.2952 -0.1887  0.1391
 2338W        W15752  12.918  15.599   4.647  0.0391  0.0536 -0.0509
 2339W        W15753   3.007   1.370   4.475  0.3943 -0.1065 -0.2265
 2340W        W15754   9.628  16.034   1.620  0.4588  0.0070  0.0682
 2341W        W15755   8.698   9.369   6.228  0.0402 -0.1209  0.2279
 2342W        W15756   2.412   1.505  12.380 -0.4657  0.1034 -0.0045
 2343W        W15757   0.639   7.685   0.525  0.3734 -0.1687  0.3873
 2344W        W15758  14.862   8.274   5.172  0.0759  0.1593 -0.3667
 2345W        W15759   8.582   2.417  14.493  0.0488 -0.1149 -0.1225
 2346W        W15760  13.209   8.925   0.544 -0.2076 -0.2103  0.2078
 2347W        W15761  13.267  14.960   0.379  0.2698 -0.3498 -0.0495
 2348W        W15762  17.900  14.367   6.392  0.2597  0.0868  0.2044
 2349W        W15763   7.529   6.236  10.043 -0.1551 -0.0988 -0.1573
 2350W        W15764  15.900   7.594   5.425 -0.1805 -0.1411 -0.1080
 2351W        W15765  13.050   3.026  14.031  0.0469 -0.2630 -0.1254
 2352W        W15766   5.513   8.457   1.772 -0.1592 -0.0306  0.0387
 2353W        W15767  17.225   3.461   3.016 -0.3338  0.0884  0.1746
 2354W        W15768  11.071  13.903  10.129 -0.0510  0.0548 -0.1601
 2355W        W15769   8.656   3.090  15.424  0.0360 -0.0234 -0.0643
 2356W        W15770  13.376   5.154   0.854  0.1659 -0.0218  0.1487
 2357W        W15771  10.481  13.378  14.567  0.0610 -0.3816  0.0976
 2358W        W15772   7.517   5.204   0.750  0.1251 -0.1925 -0.1310
 2359W        W15773   9.620   6.553   1.278  0.0102 -0.3026  0.0734
 2360W        W15774  16.710   8.773   3.041 -0.1231  0.0600  0.0102
 2361W        W15775  13.819  16.682   2.878  0.0372  0.0669  0.2340
 2362W        W15776  15.426   8.614   0.327 -0.2496  0.1087  0.0119
 2363W        W15777  16.330  14.172   1.539  0.1160  0.1527 -0.3201
 2364W        W15778   0.861   3.536  15.264 -0.0692 -0.2330  0.3357
 2365W        W15779  15.598  12.471   5.533  0.0557 -0.1676 -0.0552
 2366W        W15780   8.855  17.797  14.734 -0.3834 -0.1888  0.1062
 2367W        W15781   5.293  15.160   3.074  0.2568 -0.0860 -0.0638
 2368W        W15782  12.571   1.404   4.596 -0.1175 -0.1726 -0.0357
 2369W        W15783   8.358  15.717  16.421 -0.3462 -0.2693 -0.0309
 2370W        W15784   7.683   0.117   2.098  0.1016 -0.3283 -0.1178
 2371W        W15785   3.918   5.669  16.297 -0.0287 -0.4379 -0.1676
 2372W        W15786   2.200  14.153   4.688 -0.2119  0.0761 -0.3430
 2373W        W15787   2.486   2.444   5.003 -0.0517  0.3144  0.0364
 2374W        W15788  12.373   2.082  14.136  0.1621 -0.2271  0.0785
 2375W        W15789  12.735   6.890   5.750  0.3050 -0.3335  0.3665
 2376W        W15790   9.174   7.903   1.114 -0.1478  0.4292  0.1665
 2377W        W15791  15.763   4.074  13.440 -0.0153 -0.0071 -0.2266
 2378W        W15792   9.721  16.815   3.209  0.0895  0.0064 -0.0743
 2379W        W15793   2.253   9.893  10.324 -0.0246 -0.1059  0.0344
 2380W        W15794   0.423  10.702   5.475  0.0991  0.1724 -0.0982
 2381W        W15795   1.044   6.915  12.290  0.1005  0.2490  0.0283
 2382W        W15796  15.533  10.894   0.671  0.1141  0.1564  0.1552
 2383W        W15797   9.710   5.915   2.585 -0.1164 -0.0261 -0.1661
 2384W        W15798  13.380   9.472   2.932 -0.2277  0.0792  0.2808
 2385W        W15799  15.918   1.783   2.376 -0.0192  0.1117 -0.2032
 2386W        W15800  14.410  14.782   0.001  0.3299  0.0176  0.0333
 2387W        W15801  10.654   6.469   1.569  0.0884  0.0595  0.0090
 2388W        W15802   3.801  10.795  12.684  0.1774 -0.2640 -0.1072
 2389W        W15803  15.905   3.800   2.259 -0.1788 -0.0345 -0.0423
 2390W        W15804   3.954   1.706   3.161  0.0705  0.0526 -0.0836
 2391W        W15805   7.329   2.240  11.318 -0.1597 -0.1495  0.2794
 2392W        W15806   1.596  11.300   1.587 -0.3112  0.0319 -0.3040
 2393W        W15807   2.465   5.445   0.018 -0.2246  0.5048  0.1065
 2394W        W15808  17.171  17.525  13.025 -0.3127  0.2102  0.0562
 2395W        W15809  13.418   8.364   2.785 -0.2051  0.0846 -0.1234
 2396W        W15810   4.344  11.163   4.529 -0.0125  0.0600  0.0957
 2397W        W15811  11.228   2.609  15.761 -0.0678  0.0621  0.0891
 2398W        W15812  12.133  16.075   0.180 -0.0204 -0.0749 -0.0330
 2399W        W15813   4.765   5.733  15.233  0.1889  0.1346  0.1219
 2400W        W15814  17.675  11.855   1.530 -0.2014  0.2842 -0.0883
 2401W        W15815   8.857  14.331   0.623 -0.1408  0.0460 -0.0669
 2402W        W15816   9.967   8.053  11.919 -0.3092 -0.0698 -0.3774
 2403W        W15817  10.712  12.704  15.452  0.0621 -0.0276 -0.0480
 2404W        W15818  17.833  16.182   3.819 -0.0570 -0.1142  0.2106
 2405W        W15819   2.500  11.956   5.377 -0.1203  0.0431 -0.4488
 2406W        W15820  10.182   6.743   3.449  0.0060  0.1229 -0.4567
 2407W        W15821   3.926   7.851   3.668 -0.2054  0.0549 -0.0842
 2408W        W15822   1.927   0.652   5.781  0.0888 -0.3398 -0.1347
 2409W        W15823   5.228  15.939   6.734 -0.1224  0.0865 -0.1392
 2410W        W15824   6.595   5.830   5.197 -0.1642 -0.1096 -0.0703
 2411W        W15825  15.159   5.984   1.904  0.1615  0.0414 -0.0166
 2412W        W15826   6.778   8.528   1.881  0.1665 -0.0464  0.0938
 2413W        W15827   3.799  16.589  16.083  0.0520  0.0907  0.1179
 2414W        W15828  11.132   6.226  15.181 -0.0342 -0.0883 -0.0440
 2415W        W15829  11.257   7.934   2.608  0.0802 -0.2220  0.0395
 2416W        W15830   8.429   2.868  13.332 -0.3379 -0.3468  0.0051
 2417W        W15831  14.162  12.041  13.718  0.0232 -0.1624  0.0435
 2418W        W15832   6.904   6.267   5.208  0.2010 -0.1502  0.0828
 2419W        W15833  11.311   3.909   2.384 -0.1076 -0.1447 -0.0887
 2420W        W15834   3.777   1.593   4.367 -0.1274  0.0482 -0.0370
 2421W        W15835   7.653   0.718  12.813  0.2951  0.1489 -0.3270
 2422W        W15836   4.407   3.800   5.764  0.1147  0.1367 -0.4184
 2423W        W15837  13.848   6.634   4.916 -0.1254 -0.3619  0.1499
 2424W        W15838  10.351   3.852   1.353  0.1361  0.1475  0.1049
 2425W        W15839   0.539  15.959   1.826 -0.2035 -0.1415 -0.1664
 2426W        W15840   7.507   0.596  13.767  0.1269 -0.0087  0.2123
 2427W        W15841  17.307  12.569  10.162 -0.1699  0.4476  0.2265
 2428W        W15842   7.715   5.771  15.246  0.0899 -0.0291 -0.1427
 2429W        W15843   1.756   4.575  10.843 -0.4254  0.0177  0.1225
 2430W        W15844   1.462   1.413  13.175 -0.0401 -0.1361 -0.2494
 2431W        W15845   9.355   8.686  11.594  0.1578 -0.2787  0.2086
 2432W        W15846  15.672  13.509   5.342 -0.2845  0.1109 -0.0563
 2433W        W15847   7.752  17.040  15.084 -0.2926 -0.2756 -0.0835
 2434W        W15848   8.211  16.170  14.103  0.0988 -0.2271  0.4897
 2435W        W15849  11.964  16.438   2.787  0.0775 -0.1904 -0.2880
 2436W        W15850   2.603  16.148  10.893 -0.1229  0.1648 -0.1187
 2437W        W15851   4.915   9.896   1.415  0.0649 -0.1035 -0.3525
 2438W        W15852  10.518   8.604  10.974 -0.4256 -0.0291  0.4464
 2439W        W15853   8.493  17.745  15.076 -0.1078 -0.1074  0.2145
 2440W        W15854  11.817   5.920  11.157 -0.2598  0.0346 -0.0859
 2441W        W15855   1.430  13.501  13.889  0.3008 -0.1611 -0.1236
 2442W        W15856  15.722   4.547  12.061 -0.1887  0.1742 -0.2363
 2443W        W15857   4.050   6.570  16.135  0.2391  0.0972 -0.0498
 2444W        W15858   4.169   1.885   4.199  0.0796 -0.3828 -0.0981
 2445W        W15859  11.697   6.532   0.562 -0.0150 -0.0416 -0.1876
 2446W        W15860   6.725   7.645  15.830 -0.2717 -0.1418  0.1460
 2447W        W15861  16.993   5.873   6.624  0.0016  0.2749  0.0651
 2448W        W15862   5.587   7.742  14.315  0.1157 -0.1138 -0.0704
 2449W        W15863   1.636   7.992  11.899  0.0300  0.3455 -0.0036
 2450W        W15864  17.463   7.583   4.548 -0.0053  0.2536  0.0374
 2451W        W15865   8.120   5.143  13.453  0.1765 -0.2100 -0.3599
 2452W        W15866   5.410   9.457  16.488  0.0113  0.0827  0.1364
 2453W        W15867   0.545  15.506  14.651 -0.0350 -0.1187 -0.2447
 2454W        W15868   1.171   1.207  14.266  0.0206 -0.2441 -0.1113
 2455W        W15869  10.008   9.630  13.810  0.3500  0.2946  0.1215
 2456W        W15870  13.105  17.809   3.912  0.2106  0.0152  0.0254
 2457W        W15871  10.404   6.457   1.027 -0.2473  0.1088 -0.0270
 2458W        W15872   4.522  11.488  14.140 -0.3932  0.0992 -0.2377
 2459W        W15873  16.187  10.237  15.756  0.0257 -0.0657  0.1588
 2460W        W15874  15.303  15.840   0.511 -0.4316  0.1788  0.0344
 2461W        W15875   0.256  11.524   5.264  0.3601  0.0511  0.1214
 2462W        W15876   7.589  14.108   4.745 -0.1070  0.0316 -0.1155
 2463W        W15877   2.267   4.236   3.758 -0.2320 -0.1596  0.0097
 2464W        W15878  12.495  12.868  16.108 -0.0927  0.0031 -0.3830
 2465W        W15879   0.080  16.042   4.824 -0.0278  0.2145  0.2630
 2466W        W15880  11.479   5.814  11.875  0.1243 -0.0741 -0.0623
 2467W        W15881   7.620  12.659   4.281  0.1358  0.1113  0.0238
 2468W        W15882   0.829   7.379  14.475 -0.2103 -0.3388 -0.0634
 2469W        W15883   6.524  16.216   5.151 -0.0669  0.3750  0.1805
 2470W        W15884   1.845   2.564   2.940  0.0369  0.0005 -0.0159
 2471W        W15885  17.120  12.322  13.470 -0.2294  0.1905 -0.1471
 2472W        W15886   3.511   7.786   1.494  0.0054 -0.1321  0.0017
 2473W        W15887   7.051   4.195   1.868 -0.2619 -0.0447  0.2388
 2474W        W15888  12.851  13.583   3.384  0.0371 -0.0670  0.1300
 2475W        W15889   8.787   3.389  12.493  0.0453 -0.2265  0.0145
 2476W        W15890  13.022  15.105  13.326  0.1403 -0.0998  0.1836
 2477W        W15891   3.096  15.215  13.852 -0.1895 -0.1202 -0.0451
 2478W        W15892   7.795  16.585  13.032  0.0426  0.3084  0.0121
 2479W        W15893   6.953  11.247   3.783 -0.0456 -0.0050 -0.3251
 2480W        W15894  15.729  12.924   2.781  0.2435 -0.0992  0.2502
 2481W        W15895  12.421   9.893  15.387  0.0904 -0.3759  0.0086
 2482W        W15896   2.378  12.897   6.389 -0.2555  0.1763  0.1627
 2483W        W15897   6.365   7.102   4.228 -0.1260 -0.2502 -0.1400
 2484W        W15898   6.739   9.066  14.156 -0.0251 -0.0314  0.2013
 2485W        W15899  15.935  10.777  13.306  0.0857  0.1152 -0.0376
 2486W        W15900  10.641   3.146  16.417  0.0284 -0.0317  0.2232
 2487W        W15901  10.453  13.144  15.587 -0.1619 -0.1233  0.0379
 2488W        W15902  12.976  17.071  10.822 -0.3155  0.1517  0.0479
 2489W        W15903   2.165   8.219  15.379  0.0803  0.0965 -0.0739
 2490W        W15904  16.305   5.205   4.760  0.0572 -0.1674  0.2223
 2491W        W15905  16.558  13.244   5.582  0.1689  0.0743  0.0199
 2492W        W15906  10.898  13.512  10.518  0.0228 -0.2681 -0.0005
 2493W        W15907   8.203  13.556  13.003  0.2167  0.0105 -0.0163
 2494W        W15908   9.710  11.085   4.954 -0.0269  0.0857  0.1108
 2495W        W15909   4.199   2.565  15.485 -0.0468 -0.1105 -0.0157
 2496W        W15910   1.288  12.473  12.652  0.0739 -0.0282  0.0714
 2497W        W15911   9.087   0.674  14.085 -0.0085 -0.3381 -0.2731
 2498W        W15912   3.506  17.291   2.204 -0.1426 -0.1012 -0.1446
 2499W        W15913  11.693   1.537  11.435 -0.2237  0.2741  0.2727
 2500W        W15914   3.043   3.725   0.116  0.1261 -0.0120 -0.2597
 2501W        W15915   3.194   0.766  16.178  0.1865 -0.0526  0.1055
 2502W        W15916  16.689   4.465   4.183  0.1060 -0.0498  0.0039
 2503W        W15917   2.420   9.689   4.471 -0.1430 -0.1402 -0.1661
 2504W        W15918   6.731  13.007   0.243 -0.0686  0.0004 -0.1605
 2505W        W15919  13.266   2.998  14.520 -0.4622 -0.0638  0.3801
 2506W        W15920   2.710  15.738   6.182  0.1311  0.1384  0.2156
 2507W        W15921   2.901  16.842  11.346  0.2333 -0.2002  0.0090
 2508W        W15922   7.863  13.467   5.179 -0.1114 -0.0196  0.0909
 2509W        W15923   8.176   7.393  16.098  0.0275  0.0621 -0.0729
 2510W        W15924  17.889   8.270  13.594 -0.1642 -0.0243 -0.1560
 2511W        W15925  11.690   7.985  11.669  0.1915 -0.2030  0.0196
 2512W        W15926  15.170  14.610   1.729  0.1790  0.0974 -0.0321
 2513W        W15927   6.562  15.362  15.992 -0.0302  0.2635  0.1456
 2514W        W15928   5.082  10.636  15.155 -0.2365 -0.0700 -0.0053
 2515W        W15929   6.086   2.450  15.396 -0.1329 -0.1007 -0.1603
 2516W        W15930   9.856  15.072   5.843  0.2991 -0.1799  0.1263
 2517W        W15931  14.188  17.654  16.460  0.0589 -0.3768  0.1053
 2518W        W15932   5.509   2.227  14.886 -0.1583  0.2620  0.3059
 2519W        W15933   2.075   1.650   3.986 -0.3709  0.2406 -0.3347
 2520W        W15934  12.771   0.446  13.362 -0.1054  0.3598 -0.0271
 2521W        W15935   2.650  14.125   1.358 -0.1239  0.2836 -0.0907
 2522W        W15936  12.917   6.122   5.930 -0.1216 -0.2988 -0.2386
 2523W        W15937  15.251  15.858   1.886  0.2610  0.1860  0.1663
 2524W        W15938  13.574   7.353  10.584  0.0295 -0.0617  0.1075
 2525W        W15939  15.779   8.075   5.369 -0.0527 -0.0383 -0.1000
 2526W        W15940  11.356  14.841  12.053  0.0424 -0.1677  0.2984
 2527W        W15941   6.303  13.782  11.614 -0.1024  0.0403  0.2061
 2528W        W15942   6.555  16.967  15.180 -0.2083 -0.0400 -0.2701
 2529W        W15943   0.852   0.961   0.817  0.1066  0.1375  0.2033
 2530W        W15944   4.097   5.896  14.422  0.0358  0.1144 -0.0071
 2531W        W15945  14.563  12.590  12.484 -0.1779  0.1184 -0.0161
 2532W        W15946   2.874   5.961   4.817  0.1331  0.0428 -0.1196
 2533W        W15947  10.078  15.223  11.783 -0.1326 -0.0199  0.1465
 2534W        W15948   2.011  15.404   2.129 -0.0740  0.2089  0.1458
 2535W        W15949  15.781   4.381   2.438  0.2842  0.0702  0.0976
 2536W        W15950  13.293  10.260   0.091  0.1508  0.3869  0.1032
 2537W        W15951  15.819  17.152   6.395  0.1654 -0.0580 -0.0375
 2538W        W15952  16.317  11.997   0.209  0.0369  0.1334 -0.0573
 2539W        W15953  10.150   3.025  13.055  0.0600 -0.0253  0.2481
 2540W        W15954   9.072   5.793  11.423 -0.3638 -0.1242  0.1163
 2541W        W15955   4.089   5.300   0.111 -0.3373  0.3431 -0.2778
 2542W        W15956   5.744  16.237  12.216  0.2845 -0.3125  0.1464
 2543W        W15957   7.865  10.770  16.468  0.2620  0.0736 -0.0394
 2544W        W15958   7.065   1.416   4.535 -0.0667  0.1360 -0.3979
 2545W        W15959  12.798  14.269   4.631 -0.1406 -0.0987 -0.1891
 2546W        W15960   6.704   5.799  11.240  0.0289  0.1368 -0.1401
 2547W        W15961   6.727   4.291  16.431  0.1280 -0.0247  0.2930
 2548W        W15962  15.448   6.374   1.120 -0.3249  0.1907  0.0078
 2549W        W15963   3.457   2.785   1.428  0.0382 -0.2094  0.2296
 2550W        W15964  13.441  17.399  15.896  0.1820  0.0851 -0.1176
 2551W        W15965  12.174  13.592  14.714 -0.0751 -0.3274  0.0193
 2552W        W15966  14.298   3.078  11.549  0.0094 -0.3138  0.1966
 2553W        W15967  12.884  10.497   4.607  0.4359  0.1135 -0.0097
 2554W        W15968   7.950   3.861   1.950 -0.0112 -0.0459  0.2142
 2555W        W15969   1.974   7.732   4.584 -0.2906  0.1164  0.3537
 2556W        W15970   4.038  13.951   3.894  0.0103 -0.0863  0.1511
 2557W        W15971   7.436  15.980  13.884  0.0670 -0.2108  0.1304
 2558W        W15972   6.290   2.898   0.618  0.0077  0.0398 -0.1400
 2559W        W15973  17.238   0.621   4.333  0.0675 -0.1195 -0.1126
 2560W        W15974   6.002  17.645  11.860 -0.0406  0.3433 -0.1307
 2561W        W15975  14.610   5.689  14.305 -0.0666 -0.0060  0.0828
 2562W        W15976  12.349   8.995  11.825 -0.0291 -0.0988  0.3103
 2563W        W15977   2.126   5.020   4.190  0.0764 -0.1523 -0.2665
 2564W        W15978   4.624  16.241   5.074 -0.0906 -0.2256  0.1646
 2565W        W15979   1.736   9.098   5.775  0.2322 -0.0113  0.3438
 2566W        W15980  15.482   5.515  16.091  0.1455 -0.3053  0.1477
 2567W        W15981   8.504   4.000   4.814  0.0618  0.1125  0.1113
 2568W        W15982   9.222   3.297  11.040 -0.2082 -0.0281  0.1958
 2569W        W15983   6.777   2.178   4.146  0.1230 -0.3180  0.1496
 2570W        W15984  10.968  12.259  12.587 -0.2085  0.0123 -0.1722
 2571W        W15985   7.179  14.874  11.838 -0.2475  0.0109  0.2406
 2572W        W15986  12.224  14.828  12.795  0.0902 -0.0033 -0.1727
 2573W        W15987   2.744  14.684   5.374 -0.1728 -0.1815 -0.2173
 2574W        W15988   9.899  15.637  13.872  0.0884  0.1908  0.1336
 2575W        W15989   8.423   5.494  12.373 -0.5668 -0.0009 -0.0717
 2576W        W15990   5.120  15.909  10.122  0.3440 -0.2187 -0.1709
 2577W        W15991   4.440   8.551  13.246  0.0682 -0.1461  0.2358
 2578W        W15992   4.076  11.281  16.546  0.1652 -0.0757 -0.4278
 2579W        W15993   9.318  16.040   2.310 -0.1323  0.0974  0.0320
 2580W        W15994  17.178   1.322   3.056 -0.0837  0.1239  0.0118
 2581W        W15995   8.328   4.560  14.382  0.1974 -0.4160  0.0318
 2582W        W15996   1.942  14.086  16.482  0.0581 -0.2011  0.2010
 2583W        W15997  14.836  17.751   0.097  0.4060  0.1806  0.1355
 2584W        W15998  15.903   0.914   2.619  0.0956 -0.1750 -0.0735
 2585W        W15999   1.364   3.433  16.152  0.0190  0.0156 -0.3483
 2586W        W16000  16.557   3.596   4.552  0.0040  0.0987  0.0799
 2587W        W16001  17.339   3.394  12.325  0.0070 -0.0849 -0.0913
 2588W        W16002  14.461  12.309   2.935  0.0861  0.1863  0.0677
 2589W        W16003   4.241  10.064   0.043 -0.1144 -0.0368  0.1116
 2590W        W16004   9.626  17.784   0.978 -0.2544  0.0723  0.0978
 2591W        W16005   3.789  17.757  16.112  0.5795  0.0304  0.0275
 2592W        W16006   3.818  14.402  11.273  0.2542  0.0875  0.1099
 2593W        W16007  12.072   7.133  11.727  0.1943 -0.1773 -0.1547
 2594W        W16008   3.795  17.230   3.190  0.3816 -0.2669 -0.0790
 2595W        W16009  12.047   0.587   0.693 -0.0951 -0.0094  0.1448
 2596W        W16010  14.748   1.012   5.545  0.0938 -0.3401  0.0770
 2597W        W16011   3.438   5.172  14.766  0.3380 -0.2496  0.0829
 2598W        W16012  11.903  11.159  14.067  0.0736 -0.2454 -0.0048
 2599W        W16013  11.385   9.159   1.720 -0.1702 -0.0291  0.1058
 2600W        W16014   3.251   2.563  12.688 -0.1025 -0.1881  0.1567
 2601W        W16015  13.639  12.836   0.378 -0.1751  0.1445 -0.1884
 2602W        W16016  13.015   0.368   1.090  0.1256 -0.1088 -0.2889
 2603W        W16017   2.070  16.601   5.444  0.2906 -0.2196 -0.1324
 2604W        W16018   9.808  16.781   1.842  0.1377  0.0509  0.2892
 2605W        W16019   2.553  17.707   0.309 -0.1028  0.2698 -0.1437
 2606W        W16020   9.247   8.922   4.777 -0.1806  0.1216  0.0306
 2607W        W16021   3.541   4.535   1.494 -0.1074  0.1100  0.0753
 2608W        W16022   5.920   1.126  12.765 -0.0919  0.3862 -0.1395
 2609W        W16023   6.063   6.960   5.154  0.1907  0.0125 -0.0644
 2610W        W16024   7.166  11.436  12.461 -0.0009  0.1134  0.2402
 2611W        W16025  10.299   4.186   3.401 -0.1875 -0.0154  0.2232
 2612W        W16026   1.748  14.257  15.618 -0.0234 -0.1813 -0.1137
 2613W        W16027  14.428  11.071  12.838 -0.0792 -0.0836  0.2314
 2614W        W16028   9.754  16.848  15.889 -0.0634 -0.3603 -0.0149
 2615W        W16029  10.644  14.917   3.027 -0.0004  0.1404  0.5308
 2616W        W16030   7.815   1.398   2.585  0.0936 -0.0117 -0.0303
 2617W        W16031   8.465   6.550   3.580 -0.1522 -0.1639 -0.1827
 2618W        W16032  11.135  13.408   2.752 -0.2133 -0.0107  0.5273
 2619W        W16033   5.917  14.157  16.126 -0.1268  0.0252  0.2277
 2620W        W16034  12.098   7.506  16.146  0.0623  0.0774 -0.0938
 2621W        W16035  13.717  14.685   5.403  0.0873 -0.2066 -0.1259
 2622W        W16036   6.190   7.326   5.528 -0.1342 -0.1249 -0.1822
 2623W        W16037  17.093  10.994   3.735  0.1620  0.0509  0.0254
 2624W        W16038   5.750  13.431  12.701 -0.0223 -0.1652  0.0647
 2625W        W16039  10.787  12.476   5.189 -0.0722  0.1943  0.2205
 2626W        W16040  11.385  16.331  10.904  0.3712  0.0825  0.0190
 2627W        W16041   8.744   9.242  11.275  0.0060  0.2832  0.0272
 2628W        W16042   5.638   4.406  15.544 -0.1840 -0.3094  0.0257
 2629W        W16043  17.391  12.344  14.519 -0.0123  0.2538  0.3216
 2630W        W16044  14.760  14.043   2.364 -0.0198 -0.0763  0.0541
 2631W        W16045  13.205   7.867  14.812  0.1297 -0.1211 -0.1024
 2632W        W16046   2.621  15.830   3.376 -0.0116  0.0500 -0.1074
 2633W        W16047   9.860  10.394   5.455 -0.2439  0.2244 -0.3876
 2634W        W16048   8.263   2.272   4.201  0.0451  0.0230  0.0856
 2635W        W16049  17.942  14.506   4.278 -0.0338  0.2072 -0.2410
 2636W        W16050   8.372   7.226   1.937  0.0936 -0.0570 -0.0503
 2637W        W16051  14.779  13.079  12.282  0.2634 -0.0261  0.1411
 2638W        W16052  13.357  14.133  16.384  0.2455 -0.0568 -0.1055
 2639W        W16053   1.416  15.874  12.626 -0.4622 -0.3032  0.0778
 2640W        W16054  17.382  10.291   1.974  0.2317  0.0798 -0.0859
 2641W        W16055   6.934   0.695  12.164  0.1400 -0.1137 -0.2673
 2642W        W16056   6.624  10.563   1.116  0.1370  0.0068 -0.0784
 2643W        W16057  13.282   4.911  11.661 -0.1927 -0.1637  0.3213
 2644W        W16058  13.019   1.536   4.399  0.2646 -0.1592 -0.2097
 2645W        W16059  14.601  14.648  14.836 -0.2384 -0.0186  0.1195
 2646W        W16060  10.240   1.329   3.523 -0.2055 -0.0917  0.0826
 2647W        W16061  14.813   5.839   4.825 -0.0262 -0.3277 -0.0024
 2648W        W16062   8.925  14.889  15.930  0.3839 -0.0410 -0.1797
 2649W        W16063  17.856  11.962   3.537  0.2203 -0.2941 -0.0194
 2650W        W16064   0.291   1.695  13.986 -0.2309  0.3719  0.3696
 2651W        W16065  12.266   2.985  11.260 -0.2804  0.0818 -0.0225
 2652W        W16066   6.411  16.955  10.585  0.0843  0.0202  0.2741
 2653W        W16067   4.308   2.175   0.649  0.0895  0.1205  0.3040
 2654W        W16068   3.998   0.293   2.595 -0.1327  0.0587 -0.0284
 2655W        W16069  13.817   4.952   4.133  0.3383 -0.1761  0.1876
 2656W        W16070   7.765  18.031  15.988 -0.4233 -0.3130  0.0796
 2657W        W16071  11.828   5.828   1.856  0.1351 -0.3150 -0.0424
 2658W        W16072  11.686  16.178   3.981  0.1973 -0.2688  0.1512
 2659W        W16073  12.965  11.919  15.834 -0.1147 -0.0594 -0.1243
 2660W        W16074   7.844   1.331  11.024  0.1866  0.1533 -0.5794
 2661W        W16075  13.667   6.372  15.681  0.0894 -0.0845  0.3170
 2662W        W16076  17.861   7.133  15.930  0.0447 -0.0914  0.1308
 2663W        W16077   5.354  14.879  11.227  0.0764 -0.3415  0.0044
 2664W        W16078   1.235   9.235   2.340 -0.3053  0.0155 -0.1238
 2665W        W16079  14.907  11.273   1.484 -0.0589 -0.0810  0.1625
 2666W        W16080  10.520  12.210   3.955  0.0935  0.1892 -0.2180
 2667W        W16081  12.718  13.508   1.630 -0.0458 -0.0236  0.0599
 2668W        W16082   7.151   5.146  12.239 -0.1261 -0.0099  0.0434
 2669W        W16083   3.814  15.481   1.448  0.1137 -0.0161 -0.2249
 2670W        W16084  11.721   4.171  15.228  0.1147 -0.1518  0.0341
 2671W        W16085   8.380  17.760   2.371 -0.0723 -0.2909 -0.1905
 2672W        W16086   5.979   0.784  15.964 -0.0571  0.0813  0.0600
 2673W        W16087   3.635   6.539   2.965 -0.1324 -0.0328  0.0870
 2674W        W16088  12.314   9.781  15.913  0.1720 -0.0038 -0.1213
 2675W        W16089  17.004   8.539  12.081  0.0929 -0.0553 -0.0147
 2676W        W16090  16.382   4.892   2.740 -0.0855 -0.0914  0.3569
 2677W        W16091   1.995   2.831   5.189  0.3088 -0.0532 -0.2685
 2678W        W16092  15.389  15.859   3.732 -0.0819 -0.2163 -0.1943
 2679W        W16093  15.282  14.266  15.211 -0.2427  0.0135 -0.0333
 2680W        W16094  16.358  17.508  13.502  0.0074 -0.2168  0.0480
 2681W        W16095   5.919   4.658  16.700 -0.1575  0.1049  0.0141
 2682W        W16096   6.393   6.697   1.601 -0.0567 -0.2061 -0.1853
 2683W        W16097  13.430  11.272   6.157 -0.2651  0.3739 -0.1823
 2684W        W16098   1.792   3.933  11.532 -0.1573  0.2710 -0.2706
 2685W        W16099  12.290   5.209   5.200  0.0479 -0.2771  0.1374
 2686W        W16100  10.425   2.896  10.336  0.3778 -0.2459 -0.0300
 2687W        W16101   2.460   5.240   3.890  0.2307  0.1158 -0.2506
 2688W        W16102   8.403   4.598   5.481 -0.0652  0.3430  0.0617
 2689W        W16103   4.504  17.264  13.892 -0.1684 -0.4014 -0.2143
 2690W        W16104   2.330  12.448   3.652  0.3479  0.2802  0.1021
 2691W        W16105  11.533  14.988   5.679  0.1352  0.1408 -0.1572
 2692W        W16106  13.838  12.042  14.833 -0.0636  0.1398 -0.1795
 2693W        W16107   1.470  17.458   4.408  0.2705  0.3919 -0.0866
 2694W        W16108  12.785   9.445   2.087 -0.0880  0.1690 -0.1830
 2695W        W16109   2.464  16.669  12.222 -0.2111 -0.3117 -0.0593
 2696W        W16110   1.555   9.122  16.322 -0.1279 -0.1009 -0.3998
 2697W        W16111  14.093  10.516   2.457 -0.4485 -0.1448  0.0398
 2698W        W16112   8.981  11.713   3.557  0.0642 -0.1422 -0.0978
 2699W        W16113  10.569  12.046   1.096 -0.2007 -0.0851 -0.2376
 2700W        W16114   3.733   6.709  12.478  0.2073 -0.0685 -0.0436
 2701W        W16115  17.185  17.896   2.685 -0.4073  0.2916 -0.1089
 2702W        W16116  14.395  11.426   2.041 -0.1114  0.0596  0.2240
 2703W        W16117  13.711   6.432  13.308  0.1769  0.1493 -0.3921
 2704W        W16118  14.329   8.382   0.678  0.3105 -0.2552  0.1424
 2705W        W16119   9.571  15.375   0.596  0.2614  0.1327 -0.1172
 2706W        W16120   6.243   9.253   5.182 -0.3602  0.0366  0.1695
 2707W        W16121  16.641  13.648  14.280  0.0371  0.2364  0.1320
 2708W        W16122  10.987  15.114   4.261 -0.0809  0.2708  0.1535
 2709W        W16123  10.960   6.388   5.089 -0.0001 -0.0880 -0.0570
 2710W        W16124  12.903  15.462   3.286 -0.0618 -0.0521  0.1844
 2711W        W16125   8.191  13.898   2.559  0.1781 -0.0692 -0.0265
 2712W        W16126   2.073   6.324  15.461 -0.0893  0.2108  0.0152
 2713W        W16127  13.950  16.319  13.340 -0.1223 -0.0744  0.2036
 2714W        W16128  16.966  10.667   0.717 -0.0594 -0.1572  0.2120
 2715W        W16129  13.143   7.790   2.773  0.0846  0.0345  0.3331
 2716W        W16130   1.946  11.372  11.887 -0.1591  0.0316 -0.2181
 2717W        W16131  14.370   9.179   1.198 -0.0851 -0.2526  0.1547
 2718W        W16132   5.367   0.194   2.281  0.0523 -0.1634 -0.0460
 2719W        W16133  13.568   6.431   2.887 -0.0858  0.0671 -0.2771
 2720W        W16134  11.001   5.809  11.588  0.0039  0.2997  0.4087
 2721W        W16135   1.764  10.824  13.705  0.2017 -0.2727 -0.1716
 2722W        W16136   2.304   0.221  14.942 -0.0072 -0.1131 -0.0576
 2723W        W16137   1.940  12.807   5.671  0.2326 -0.0744 -0.0566
 2724W        W16138  12.823  17.533   2.972  0.0799 -0.1982 -0.0651
 2725W        W16139  10.820   9.294   2.969 -0.2566  0.2638 -0.1569
 2726W        W16140  10.674  11.233   4.295  0.1732  0.0653  0.1072
 2727W        W16141   4.670   0.360  13.305  0.0930 -0.2272 -0.0037
 2728W        W16142  16.545   1.114  12.393  0.1677 -0.0206  0.1049
 2729W        W16143  14.546  16.185  16.162 -0.2302  0.1425  0.1200
 2730W        W16144   2.015  16.920  12.402  0.0244 -0.0043 -0.0046
 2731W        W16145  15.110   2.960  11.734 -0.4826  0.2446 -0.0143
 2732W        W16146  14.956   6.182  11.055 -0.1784 -0.2705 -0.0178
 2733W        W16147   0.440   9.225   4.139 -0.0713  0.3520  0.1557
 2734W        W16148  15.811  12.253   3.332  0.0561 -0.0182  0.1212
 2735W        W16149   7.305  10.294   0.278  0.0764  0.1096  0.2749
 2736W        W16150   2.730  10.469   0.700 -0.0699 -0.3153  0.1708
 2737W        W16151  15.956   9.455   5.531  0.1452 -0.0068  0.0878
 2738W        W16152  12.632   9.381   3.430 -0.1347  0.2350  0.0970
 2739W        W16153  11.295  16.801  10.767  0.0820 -0.0043  0.2398
 2740W        W16154   9.351  14.936   1.335 -0.0805 -0.1137 -0.0935
 2741W        W16155   1.092   1.349   4.608 -0.0543  0.3526  0.2201
 2742W        W16156  13.899  16.521   6.578 -0.0157 -0.0261  0.2845
 2743W        W16157   2.795  10.577   5.522 -0.2313  0.0348  0.3278
 2744W        W16158  13.741   8.637  16.044  0.2985  0.0915 -0.2267
 2745W        W16159   0.300   6.123  13.462  0.0434  0.0537  0.1053
 2746W        W16160   5.026   8.846  13.870 -0.0841  0.1460  0.0552
 2747W        W16161  14.623  10.014  11.198 -0.3606 -0.2023 -0.0438
 2748W        W16162  15.451   6.965  13.659 -0.1259 -0.0569  0.2410
 2749W        W16163   5.875  16.856  11.227 -0.1661 -0.0431  0.3348
 2750W        W16164  15.132   3.933  13.964  0.2238  0.2985  0.0336
 2751W        W16165   4.799  12.794  14.175 -0.0807  0.0690  0.0614
 2752W        W16166  11.692  10.446  13.684 -0.2202  0.4121  0.1177
 2753W        W16167  11.029   9.466  10.747  0.0926 -0.0077  0.3025
 2754W        W16168   8.427  12.284  15.039 -0.2764 -0.1084  0.0040
 2755W        W16169   5.043  13.918   0.457  0.0568  0.0812 -0.0842
 2756W        W16170   3.612   4.525   3.455 -0.2784 -0.3210 -0.0323
 2757W        W16171   7.868   1.436  14.776  0.0012 -0.0186 -0.1463
 2758W        W16172   9.110  10.824   0.694 -0.0846 -0.1083  0.0774
 2759W        W16173  10.282   8.963   3.560 -0.1377 -0.1345 -0.0415
 2760W        W16174   2.550  15.593  12.327 -0.0759 -0.5213 -0.0531
 2761W        W16175   6.788  16.171  12.254 -0.1691  0.1143 -0.2267
 2762W        W16176   2.714  16.044  15.380 -0.6132  0.2843  0.0570
 2763W        W16177  12.977   4.312   4.597  0.0504  0.3405  0.4637
 2764W        W16178  10.625   0.013   4.006  0.0824  0.3366 -0.1368
 2765W        W16179   2.198   6.749  14.993  0.2534  0.2813  0.1110
 2766W        W16180  15.554   5.263   4.313  0.1423  0.0790  0.0414
 2767W        W16181  13.506   8.259  15.781  0.2238 -0.0557  0.1321
 2768W        W16182  15.820  17.212  11.155  0.0651  0.2840 -0.2033
 2769W        W16183  17.947   5.823   4.816 -0.2107  0.0729 -0.1580
 2770W        W16184   4.458  12.779  16.391  0.2032  0.0992  0.0779
 2771W        W16185  15.190   1.041  12.772  0.1360  0.1963  0.2307
 2772W        W16186  15.295  16.881   1.282 -0.1636  0.1917 -0.2687
 2773W        W16187  11.433  15.167   1.827 -0.0376  0.1796  0.1112
 2774W        W16188  15.627   2.945   1.935 -0.0464  0.2711  0.0720
 2775W        W16189  10.114   9.917   1.639 -0.1694 -0.0503 -0.2134
 2776W        W16190  10.168   5.398   5.796 -0.2259 -0.2776  0.0725
 2777W        W16191  11.371  15.155   0.048  0.0385  0.1980 -0.3552
 2778W        W16192  12.321  12.635   1.936 -0.0258  0.0191 -0.0477
 2779W        W16193   4.730  14.690  14.222  0.1382 -0.1114  0.1815
 2780W        W16194   4.576   8.411  16.409  0.0396 -0.1691 -0.2391
 2781W        W16195  16.133   4.892  15.859 -0.1815 -0.0460  0.0635
 2782W        W16196  17.928   3.938  15.515  0.0536  0.2640 -0.0666
 2783W        W16197   0.286  14.604  14.827  0.0483  0.1330  0.2438
 2784W        W16198   2.779  10.746  13.037  0.0582  0.2443 -0.1674
 2785W        W16199  16.469   2.269  14.069  0.2320 -0.1438 -0.4359
 2786W        W16200  11.586   8.494  11.866  0.0320 -0.0191 -0.0605
 2787W        W16201   1.353  15.911  11.468  0.2279  0.1593 -0.1050
 2788W        W16202  17.211  14.059   3.137  0.0898  0.1121 -0.1593
 2789W        W16203  16.438   1.184   6.803 -0.1977 -0.0400  0.1135
 2790W        W16204   1.206  13.633   5.638  0.1774  0.2130  0.0679
 2791W        W16205   8.772   6.039   2.314 -0.0545  0.1235  0.2337
 2792W        W16206   7.190  13.479   4.380 -0.0049  0.1041 -0.2759
 2793W        W16207   7.000  15.964  16.447 -0.0335  0.0290  0.1646
 2794W        W16208  15.662   7.942  13.210 -0.3886 -0.4612 -0.1800
 2795W        W16209   0.384   8.134  16.629 -0.1812  0.0890 -0.1638
 2796W        W16210   6.462  11.718  13.345  0.0074 -0.2322 -0.1186
 2797W        W16211  13.300  11.089   3.958 -0.0696 -0.1048 -0.3356
 2798W        W16212   5.640   3.261   5.399 -0.0141  0.0254 -0.4461
 2799W        W16213   6.872  13.064   2.550 -0.0543  0.3586  0.0452
 2800W        W16214   9.852   2.806   0.152 -0.2173 -0.1887 -0.2453
 2801W        W16215   4.755  13.251   3.597  0.1152 -0.1459  0.0370
 2802W        W16216   5.744  15.846   6.010  0.0268 -0.0413  0.0413
 2803W        W16217   9.502   8.366  12.777  0.0565 -0.0844 -0.3349
 2804W        W16218   8.922  14.510   1.443  0.2985 -0.1960 -0.0187
 2805W        W16219   6.869   6.923  16.265  0.2970 -0.1245  0.2895
 2806W        W16220   8.609   7.376  16.397 -0.2606  0.0201 -0.2709
 2807W        W16221   4.652   0.497   0.090  0.0513  0.1833  0.1238
 2808W        W16222   2.476   3.263   4.949 -0.0345  0.3256 -0.1527
 2809W        W16223  10.719   3.263  11.935  0.2518  0.1840  0.0650
 2810W        W16224   2.373   6.599  14.519  0.3332 -0.0170  0.1307
 2811W        W16225   0.492  15.378   0.832  0.0013  0.1003 -0.0891
 2812W        W16226  10.798  12.234   0.659 -0.0639  0.3830 -0.0139
 2813W        W16227   7.356  10.975   5.301 -0.0549  0.0306  0.2037
 2814W        W16228   1.353   4.816   5.643  0.1733 -0.0138  0.2942
 2815W        W16229   2.206  15.820  14.068  0.0210 -0.2031  0.1638
 2816W        W16230   7.055  12.748   4.966 -0.0433 -0.0699  0.0074
 2817W        W16231  16.117   7.633  16.520 -0.0388 -0.0176  0.1125
 2818W        W16232  15.850   6.741  11.750 -0.1696  0.0375  0.1617
 2819W        W16233   0.896  12.850   5.429  0.0900  0.2271 -0.0569
 2820W        W16234   0.356  12.089  12.794  0.1772  0.0723 -0.0558
 2821W        W16235   3.535  14.558  10.649 -0.0982  0.2025 -0.0483
 2822W        W16236  14.858   6.869  14.488 -0.1159  0.0452 -0.0385
 2823W        W16237   2.590   9.251  10.901  0.3059  0.3024 -0.0205
 2824W        W16238  14.680   6.042   3.408 -0.2156 -0.0764  0.1237
 2825W        W16239   7.169   0.205   5.665 -0.1965  0.1552 -0.0511
 2826W        W16240  13.862  17.621   4.286  0.0142 -0.0594 -0.1863
 2827W        W16241  15.479   7.541  15.299 -0.0716  0.1875  0.3204
 2828W        W16242   8.139   3.329   2.088  0.1954  0.1485  0.3792
 2829W        W16243   7.983   3.699  13.899  0.0026  0.1035 -0.2478
 2830W        W16244  14.829   4.743  14.392 -0.1530  0.4517  0.1344
 2831W        W16245   0.275   0.643  12.128  0.1720 -0.1988  0.1634
 2832W        W16246  14.679   0.832  11.437  0.0880 -0.1364 -0.2919
 2833W        W16247  13.746  17.556   5.065 -0.2182  0.2419  0.1434
 2834W        W16248   2.273   9.605  10.716  0.0249  0.2854 -0.1966
 2835W        W16249  17.770   0.855  15.631 -0.0934 -0.2779  0.3639
 2836W        W16250   8.597  12.450   2.519  0.0734  0.2559  0.4581
 2837W        W16251   8.833   8.852  12.382  0.0599  0.2860 -0.3466
 2838W        W16252   8.210   4.577   2.544  0.1424 -0.3067 -0.0376
 2839W        W16253  17.642  13.982   1.136 -0.0754  0.2172  0.0390
 2840W        W16254   6.019  14.099   4.151 -0.2566  0.0086  0.0208
 2841W        W16255  17.766   0.061   5.000  0.0414  0.2586  0.1259
 2842W        W16256   7.111   1.092  15.839  0.1072  0.1458 -0.0858
 2843W        W16257   3.892   0.769  13.918 -0.1110  0.1960  0.0828
 2844W        W16258   0.696  12.797  11.744 -0.3716  0.4168  0.0579
 2845W        W16259  12.191   7.583  14.760 -0.1860 -0.0340 -0.0091
 2846W        W16260  12.211   7.386  13.426 -0.2398  0.1477 -0.1837
 2847W        W16261  17.565   0.405  15.219  0.3369 -0.1808 -0.3131
 2848W        W16262   7.091   3.875  10.831  0.1575 -0.1449  0.0484
 2849W        W16263   3.501   2.635  10.512  0.0345 -0.2255 -0.0269
 2850W        W16264   7.696   9.666  13.814  0.1482  0.1108 -0.0995
 2851W        W16265  12.045  16.771  15.739  0.1891  0.1989 -0.2567
 2852W        W16266  18.052   1.217   3.163 -0.0615  0.1705 -0.3262
 2853W        W16267  12.270   8.368  15.730 -0.2624  0.0820 -0.3970
 2854W        W16268   7.415  12.055  10.964 -0.1651 -0.0277  0.0143
 2855W        W16269  16.551  15.178  11.628 -0.0617 -0.1630  0.0046
 2856W        W16270   2.541  15.573   0.108  0.0248  0.0110  0.1915
 2857W        W16271   8.117  15.884   4.867 -0.0848 -0.1525 -0.0555
 2858W        W16272  15.011   6.245   0.131 -0.0056  0.2510 -0.1880
 2859W        W16273  18.013   2.114   4.739 -0.1738  0.2418  0.2159
 2860W        W16274   6.217  14.806   1.402  0.1441  0.0006  0.3681
 2861W        W16275   6.367   5.006   2.371 -0.2443  0.0091 -0.4003
 2862W        W16276   9.571   6.606  14.149 -0.1866 -0.2259 -0.1215
 2863W        W16277   9.400   3.859  15.991  0.2034  0.1357  0.1248
 2864W        W16278   7.452   8.455  11.196  0.1174 -0.2030 -0.1956
 2865W        W16279  13.422   7.718  13.824  0.2209 -0.1781  0.1319
 2866W        W16280  16.366   5.570   2.639 -0.0609 -0.2727  0.1480
 2867W        W16281   7.625  17.130  11.165 -0.3495  0.2567 -0.1286
 2868W        W16282  16.007  16.581  11.813 -0.2409  0.0281 -0.2926
 2869W        W16283  11.370  12.965   3.833 -0.1186 -0.3278 -0.0563
 2870W        W16284   3.213   7.425   5.831 -0.0146 -0.0888 -0.1320
 2871W        W16285   3.260   1.032   6.876 -0.3847 -0.2652  0.2435
 2872W        W16286   1.056  13.145  16.425  0.2101  0.1174  0.0909
 2873W        W16287  17.758  15.176  16.426  0.2366  0.1082 -0.3433
 2874W        W16288  14.960   5.279   1.674 -0.0215 -0.1162 -0.0477
 2875W        W16289  12.108  13.207   0.828  0.2749 -0.2362  0.1633
 2876W        W16290   6.558  17.410  10.388 -0.0664  0.2073  0.0569
 2877W        W16291   6.231  12.719   2.030 -0.1550 -0.1385  0.0694
 2878W        W16292   8.369  18.044  13.866 -0.1118  0.1049 -0.2157
 2879W        W16293   7.341   0.609  11.878  0.0439 -0.1170  0.1724
 2880W        W16294   4.152   1.197   2.943  0.0057 -0.2525 -0.1697
 2881W        W16295   4.542  13.228  14.357 -0.0692  0.2047  0.0916
 2882W        W16296  10.518  11.434  10.783 -0.0147 -0.0508  0.1168
 2883W        W16297  12.465   5.920   3.073 -0.1087 -0.2334 -0.0883
 2884W        W16298  13.798   2.182   5.279  0.3880 -0.0622  0.1740
 2885W        W16299   1.445   7.288   2.870 -0.0047 -0.1922  0.0796
 2886W        W16300   7.722   4.649   3.361 -0.1401 -0.0097 -0.0634
 2887W        W16301  17.248  14.981   2.874 -0.1122  0.1624 -0.2782
 2888W        W16302   2.261   2.290   6.093  0.0579  0.0001 -0.1021
 2889W        W16303   9.864   9.760  12.323 -0.0533  0.1143  0.3025
 2890W        W16304  13.600  16.832   6.184 -0.0697  0.0515 -0.0355
 2891W        W16305   8.742   4.945  11.498  0.1347  0.2389 -0.2025
 2892W        W16306   6.807   5.562  15.247 -0.0988 -0.1830 -0.0874
 2893W        W16307   1.304  13.351   1.487 -0.2625 -0.1014  0.1059
 2894W        W16308   4.230  12.415   3.281 -0.2940 -0.2181  0.0749
 2895W        W16309  11.792   9.573   2.553 -0.0186 -0.0722  0.0112
 2896W        W16310   2.681   0.246   6.142  0.0346 -0.0204  0.3953
 2897W        W16311  11.592   4.666   6.004  0.2834 -0.2505  0.0301
 2898W        W16312  16.450   0.786  12.991  0.0116 -0.0832  0.4129
 2899W        W16313   6.331   3.425  13.979 -0.4194  0.0403 -0.1386
 2900W        W16314  11.377   9.452  14.938 -0.2518 -0.0162 -0.1558
 2901W        W16315   8.348   5.014  13.040  0.0310 -0.1124 -0.0024
 2902W        W16316   2.959  12.011   5.589 -0.0106 -0.0837  0.1026
 2903W        W16317  10.954   2.136   4.287  0.1136  0.2831 -0.3167
 2904W        W16318  11.330   3.273   1.790 -0.1139 -0.1919  0.0602
 2905W        W16319  14.563   4.392   6.024 -0.1563  0.0243 -0.0773
 2906W        W16320   3.783  10.958   1.166  0.1756  0.0817 -0.0338
 2907W        W16321  12.039   0.549   1.335  0.1674  0.0204  0.0726
 2908W        W16322  17.552  13.677   3.379  0.0248 -0.1143  0.2799
 2909W        W16323   9.487  16.218  12.497 -0.2524  0.1933 -0.0287
 2910W        W16324   8.453  15.161  16.664 -0.1452  0.0823  0.2213
 2911W        W16325  11.972   4.524  11.967  0.3279  0.2496  0.1033
 2912W        W16326   8.876  12.505   4.578 -0.1064 -0.3633 -0.1913
 2913W        W16327   5.031  10.634  14.623  0.0765  0.3043  0.2741
 2914W        W16328   3.095   7.779   3.787 -0.1677 -0.0461  0.0513
 2915W        W16329  17.199  14.250  12.821 -0.1038 -0.0924  0.0085
 2916W        W16330   6.116  16.390  11.495 -0.1988  0.2464  0.1797
 2917W        W16331  16.670   8.196   4.349 -0.0340  0.2681  0.2377
 2918W        W16332   8.542  13.301  16.676 -0.0900  0.3122 -0.0877
 2919W        W16333  11.671  17.663   1.622  0.0140  0.0140 -0.0599
 2920W        W16334   1.230  10.139   4.884 -0.3797  0.0198 -0.0272
 2921W        W16335   9.179  15.617   0.300 -0.0068  0.0528  0.1194
 2922W        W16336   0.833  11.207  13.969  0.1490 -0.1620 -0.1614
 2923W        W16337  14.926   9.851   6.436 -0.1429 -0.1998  0.3196
 2924W        W16338  12.653  15.892   1.816 -0.1902  0.2173 -0.0649
 2925W        W16339   6.935   3.110   3.686  0.2594 -0.1945  0.0865
 2926W        W16340   7.457  13.103  11.915 -0.0494  0.3093 -0.2199
 2927W        W16341   3.875  12.775  12.450  0.0680  0.0754 -0.0290
 2928W        W16342   7.350  10.197  15.876  0.1093 -0.1505 -0.2521
 2929W        W16343   2.282  10.716  16.536 -0.2454  0.0280 -0.2876
 2930W        W16344   5.731   3.617   5.990 -0.1214 -0.1653  0.2178
 2931W        W16345  14.867  11.541   2.487 -0.0748  0.2155  0.0685
 2932W        W16346   8.703   3.332  16.280 -0.0539 -0.0691 -0.2394
 2933W        W16347  13.979  11.338  16.380 -0.0158  0.1850  0.1745
 2934W        W16348   3.892   8.393  12.099  0.4121 -0.3260 -0.2394
 2935W        W16349  17.713  15.291  14.002 -0.1758 -0.0321  0.0955
 2936W        W16350  14.884   0.506  14.139  0.1129  0.0859  0.0687
 2937W        W16351   6.907   1.132   4.150 -0.0181 -0.0446 -0.2703
 2938W        W16352   5.116   5.645   3.444  0.0328 -0.2454  0.0892
 2939W        W16353  10.965   8.394  14.024 -0.0498 -0.1065 -0.0402
 2940W        W16354   9.339   3.081  11.475  0.0272 -0.2004  0.0599
 2941W        W16355  14.608   8.785   3.931 -0.0739 -0.2124  0.2482
 2942W        W16356   2.260   9.535  12.384 -0.0622 -0.0572  0.0953
 2943W        W16357   9.930  13.431  12.872  0.0469 -0.0674  0.0106
 2944W        W16358  13.078  14.895  11.264 -0.0404 -0.0707  0.3479
 2945W        W16359   1.930  14.873  13.420  0.1237 -0.0266 -0.3066
 2946W        W16360   4.130   0.082   3.060 -0.0451 -0.1022  0.0972
 2947W        W16361  16.654   5.163  13.206 -0.3699  0.0251  0.1101
 2948W        W16362   3.051  16.457  15.790  0.1712 -0.2081 -0.1353
 2949W        W16363   3.808  17.167  16.144 -0.1341  0.2228  0.1341
 2950W        W16364  16.100  11.020  14.730 -0.3462  0.0147  0.3360
 2951W        W16365  10.824  11.228  14.841 -0.0054 -0.1329 -0.1043
 2952W        W16366  15.890  17.708   1.156  0.0242 -0.0355 -0.0019
 2953W        W16367  12.406   0.233  15.728  0.1960  0.1004 -0.0170
 2954W        W16368  17.514  10.073  15.370 -0.0163 -0.0239 -0.0785
 2955W        W16369  11.051   4.682  11.151  0.0782  0.0279 -0.0139
 2956W        W16370   7.583   2.256  14.618 -0.3597 -0.0752  0.0532
 2957W        W16371   2.378  16.459   1.602 -0.0891  0.1943  0.0937
 2958W        W16372   4.410   2.565   2.037  0.4861  0.1619  0.1096
 2959W        W16373  11.457  17.520  16.001  0.1107 -0.1022 -0.0009
 2960W        W16374  14.126   3.988  14.660 -0.0467 -0.0505 -0.1839
 2961W        W16375   4.735   7.848   2.101  0.0591 -0.1088 -0.1066
 2962W        W16376  17.210   8.738  14.764 -0.2731  0.1566 -0.0769
 2963W        W16377  12.001   9.714   2.076  0.0868  0.0170  0.0150
 2964W        W16378   2.174   6.927   0.627 -0.2641 -0.2340  0.3523
 2965W        W16379  13.266  10.764   6.079  0.0807  0.1364 -0.1055
 2966W        W16380   1.953   0.243  15.957 -0.1199  0.1802 -0.0326
 2967W        W16381   6.052  12.983   0.917  0.0420 -0.1660 -0.3758
 2968W        W16382  13.349  11.017  14.371  0.1295 -0.2356  0.1211
 2969W        W16383   8.205   6.669   5.759  0.1787 -0.1744  0.1872
 2970W        W16384   1.386  12.813   0.591 -0.3218  0.0827 -0.1844
 2971W        W16385   4.520   1.647  12.022 -0.1074  0.0113 -0.0026
 2972W        W16386  12.061  10.370   5.210  0.0904  0.2482 -0.2697
 2973W        W16387   4.597  16.905   5.789  0.0486 -0.1075 -0.1818
 2974W        W16388   4.191   3.455  12.199  0.1499 -0.0770 -0.2340
 2975W        W16389  13.307  14.098   2.385  0.1623 -0.1894  0.1318
 2976W        W16390  11.883  11.594   4.899  0.1798 -0.1404  0.0688
 2977W        W16391   1.428   1.704   2.157  0.3272 -0.3514 -0.0184
 2978W        W16392   3.677   0.125  13.229 -0.0900  0.1978  0.1009
 2979W        W16393   3.649   0.381  12.402  0.0253  0.4785  0.1128
 2980W        W16394  13.088   2.889   4.519 -0.0452  0.0152  0.2836
 2981W        W16395   6.944  12.591   0.430 -0.2112 -0.0939  0.1168
 2982W        W16396   4.213  17.808   1.613 -0.4924  0.0214 -0.0086
 2983W        W16397   9.617  15.888   0.604  0.1719 -0.2384  0.5401
 2984W        W16398  17.896  14.908   0.536  0.1967  0.1524 -0.5106
 2985W        W16399  11.618   9.176   0.981 -0.3282  0.0456  0.2463
 2986W        W16400  12.501   3.692   4.049  0.2587 -0.2897  0.0905
 2987W        W16401   2.243  14.455  15.653  0.1211  0.0619  0.2716
 2988W        W16402   0.969   9.414   5.314  0.4943 -0.1300 -0.1097
 2989W        W16403   8.894  11.926  15.194 -0.0433  0.0113  0.2197
 2990W        W16404  13.074  12.915   0.992  0.1649  0.3561 -0.4291
 2991W        W16405   3.896   0.757   1.645 -0.1804  0.1385 -0.1339
 2992W        W16406   5.151   1.476   4.733 -0.2021  0.1154 -0.0584
 2993W        W16407   5.425   0.417  12.818 -0.1260 -0.0886  0.1365
 2994W        W16408   8.933  11.529  11.924 -0.0081  0.2276 -0.0435
 2995W        W16409  12.596   7.475   0.767 -0.4863  0.0867  0.3082
 2996W        W16410   6.009  13.647   0.381  0.0369 -0.4886  0.1562
 2997W        W16411  17.433   4.764  13.175 -0.0584 -0.0797  0.1006
 2998W        W16412  15.370   0.624  13.039  0.2045 -0.0669  0.0026
 2999W        W16413  13.829  17.918   0.001 -0.1505  0.1051 -0.0474
 3000W        W16414   2.192  10.663   2.155  0.1579  0.4383  0.1606
 3001W        W16415   4.210  17.858  15.028  0.0032 -0.2957 -0.1853
 3002W        W16416   9.383   7.227  13.272  0.1256 -0.1306 -0.0621
 3003W        W16417   8.540  11.344   5.330  0.2837 -0.0867 -0.2725
 3004W        W16418  17.508   0.503   3.491 -0.0465  0.0743  0.0790
 3005W        W16419  17.217   4.451  14.030 -0.0524  0.1047 -0.1186
 3006W        W16420  11.785   5.653   0.037 -0.2051 -0.1305 -0.1232
 3007W        W16421  15.155   9.992  12.399 -0.1700 -0.0394  0.0863
 3008W        W16422   0.368  13.439   4.632  0.2283 -0.1052  0.1192
 3009W        W16423   2.019   7.336   6.186  0.1942 -0.2288 -0.1732
 3010W        W16424   6.534  10.913   3.859 -0.0640  0.2057  0.1668
 3011W        W16425  13.632   0.572  13.088  0.2695 -0.0845 -0.0206
 3012W        W16426   9.842   1.125   3.921  0.0598  0.3298 -0.0343
 3013W        W16427   2.380  10.561   2.668 -0.2513  0.1191 -0.0230
 3014W        W16428   8.902   0.045  11.983 -0.1643  0.1617  0.0910
 3015W        W16429   9.452   6.460   3.412  0.1874 -0.2882 -0.2069
 3016W        W16430  10.539   6.846  14.157 -0.1780 -0.2051 -0.1365
 3017W        W16431   4.235  10.968   5.887  0.0187  0.0499 -0.1353
 3018W        W16432   9.917   3.926  16.224 -0.1764  0.1085 -0.0155
 3019W        W16433  14.524   0.947  14.802 -0.2126 -0.1858  0.2158
 3020W        W16434  10.923  13.574   3.306  0.2383 -0.0146 -0.1656
 3021W        W16435  14.921   3.127  15.307 -0.0843 -0.0086 -0.1461
 3022W        W16436   6.107  13.513   2.126 -0.2161  0.2871 -0.1049
 3023W        W16437  16.594   5.666   1.434 -0.2679 -0.1607 -0.0319
 3024W        W16438   3.795   6.183   1.799 -0.1216  0.3484 -0.1198
 3025W        W16439   9.302   4.904   6.017  0.1055 -0.0947  0.1099
 3026W        W16440  17.567   0.945   1.943  0.0748 -0.2390  0.0268
 3027W        W16441   9.979   7.878  16.335  0.1297  0.0071 -0.2250
 3028W        W16442  16.914  15.803   6.456  0.0216 -0.1230 -0.1774
 3029W        W16443   9.934  14.223   0.538  0.2277  0.1236 -0.0348
 3030W        W16444   0.564   5.096   2.659  0.0171  0.3701 -0.1501
 3031W        W16445   8.979   0.710  16.411 -0.1053 -0.0328 -0.1599
 3032W        W16446  16.442   2.053   2.266  0.1539 -0.2316  0.2923
 3033W        W16447   8.947   6.934   2.707 -0.0603 -0.1040  0.1563
 3034W        W16448   8.710   2.158   4.030  0.0492 -0.0544 -0.0346
 3035W        W16449   3.438   9.127  14.562 -0.0220 -0.1894 -0.0331
 3036W        W16450   2.976   6.766   5.329 -0.2192  0.3074  0.0305
 3037W        W16451   9.020   6.349   5.649 -0.0310  0.0147 -0.2489
 3038W        W16452   0.786  11.155   3.356 -0.1518  0.0711 -0.0311
 3039W        W16453  10.872   5.303   2.174  0.0593  0.2320 -0.0819
 3040W        W16454  17.266  15.871   2.610  0.1605  0.2158  0.1670
 3041W        W16455   7.834  16.154  11.489 -0.3243  0.1380 -0.2371
 3042W        W16456  15.505   8.507   5.631 -0.2047  0.3518 -0.1679
 3043W        W16457  14.244   0.480   3.925  0.3508  0.0458 -0.0611
 3044W        W16458  15.037   0.266   5.061  0.4371 -0.1096 -0.1682
 3045W        W16459   8.965   7.735   4.357  0.1869  0.0042  0.0526
 3046W        W16460   3.936   7.674  14.894 -0.4317 -0.0345  0.1624
 3047W        W16461  13.986   3.983  12.292  0.0939 -0.0005 -0.1336
 3048W        W16462  10.478  17.537   4.980 -0.2245 -0.3549  0.3837
 3049W        W16463   4.958   7.279   4.991  0.1424  0.0526  0.0472
 3050W        W16464  10.588   3.198   1.295  0.2651 -0.0757  0.3262
 3051W        W16465  15.948   3.895  14.620  0.1730  0.0653  0.2079
 3052W        W16466   5.603  11.370   5.905 -0.0225  0.5784 -0.0464
 3053W        W16467   0.452   9.893   1.001 -0.0765  0.4169  0.0864
 3054W        W16468  14.828   7.038  16.389  0.0911  0.2788  0.2233
 3055W        W16469  17.548   8.044  11.075 -0.0591  0.0895 -0.2200
 3056W        W16470   1.885  11.274   1.148  0.0581  0.1339 -0.2126
 3057W        W16471  17.911   0.096  11.881  0.2347  0.3285 -0.0811
 3058W        W16472  11.469  11.437   5.630 -0.1438  0.0409 -0.1517
 3059W        W16473   3.335   1.409   6.462  0.1617  0.1964  0.3443
 3060W        W16474   9.151   1.270  12.748 -0.2207 -0.0306  0.0642
 3061W        W16475  16.594  12.343  10.945  0.1193 -0.2204 -0.0201
 3062W        W16476  16.939   5.478  11.050 -0.0538  0.2362 -0.1545
 3063W        W16477  12.937  10.404  12.139 -0.0295  0.0272  0.0590
 3064W        W16478   5.750  17.006   2.629 -0.1272 -0.0616  0.1006
 3065W        W16479  17.603   8.496  14.956 -0.1322 -0.0725  0.1490
 3066W        W16480   7.930   6.057  14.886  0.1872 -0.2134  0.2233
 3067W        W16481  16.976   2.518  14.975 -0.2068  0.1039 -0.2540
 3068W        W16482   5.606   6.219  16.467 -0.1052  0.0460  0.0211
 3069W        W16483   4.298  11.146   0.374 -0.0533  0.0378 -0.0823
 3070W        W16484   1.111   2.796   5.057 -0.1881  0.2687  0.2026
 3071W        W16485  10.280  16.621  10.725  0.0629 -0.0407  0.0805
 3072W        W16486   7.295  16.335  13.052  0.2236 -0.1673  0.0182
 3073W        W16487   8.761  13.753   9.862  0.2146  0.0408  0.3896
 3074W        W16488   0.447  16.565  13.809  0.1702 -0.1470 -0.1200
 3075W        W16489  16.368   3.391   1.630 -0.2342  0.0630 -0.0221
 3076W        W16490   4.888  15.287   3.419  0.0623 -0.0158 -0.1733
 3077W        W16491   9.361   2.983   2.294  0.1584  0.3330  0.1044
 3078W        W16492  11.019  17.246  15.144 -0.0496  0.0701  0.0686
 3079W        W16493  11.269   3.845  14.319 -0.2400 -0.2472  0.1575
 3080W        W16494   7.546  11.660  15.052 -0.3250 -0.0100  0.3687
 3081W        W16495   4.136  16.998  14.712  0.2367 -0.2835 -0.2086
 3082W        W16496  17.246  14.452  14.028  0.1670 -0.0890 -0.1238
 3083W        W16497   6.532  11.584  12.376  0.0949  0.1350  0.1096
 3084W        W16498   4.325   5.023  10.033  0.0918  0.1847  0.0997
 3085W        W16499   1.671   8.246  12.329  0.1462 -0.1802 -0.0646
 3086W        W16500   8.802   7.801  14.772  0.0724 -0.4319 -0.1298
 3087W        W16501  17.114   8.406   4.353  0.2923  0.2007  0.3955
 3088W        W16502   4.589   8.616  15.513  0.2598  0.1005 -0.0713
 3089W        W16503  14.118   0.375  12.861 -0.2002  0.1097 -0.1527
 3090W        W16504  15.580  10.144  15.700 -0.1493  0.0798  0.3574
 3091W        W16505  10.118   1.398   4.776  0.0179  0.2397 -0.4331
 3092W        W16506   3.158  15.642   0.781 -0.1201 -0.1254  0.0562
 3093W        W16507   3.976  12.988   5.806  0.3753 -0.0311  0.1384
 3094W        W16508   6.438   3.981  13.265 -0.3068  0.0702 -0.1675
 3095W        W16509  13.225   2.610  14.143  0.0359  0.2689 -0.0740
 3096W        W16510   9.435   7.130  11.249 -0.0309  0.1369 -0.1340
 3097W        W16511  16.611   5.466   0.946 -0.1492 -0.2509  0.2927
 3098W        W16512   2.670  14.568  13.362 -0.0965 -0.0904 -0.1414
 3099W        W16513   6.836   4.479   5.537  0.2168 -0.0778  0.3829
 3100W        W16514  16.029  13.955  11.196  0.0685 -0.2130  0.0334
 3101W        W16515  17.248   7.444   4.131 -0.0466 -0.2478  0.1846
 3102W        W16516   6.290  10.737  13.015  0.0880 -0.1337  0.1268
 3103W        W16517   9.910  10.349   1.679 -0.0322 -0.1207 -0.0211
 3104W        W16518   7.753  14.042  12.554 -0.1843  0.3526  0.1113
 3105W        W16519  17.875  12.299  14.318 -0.0280  0.1846 -0.2038
 3106W        W16520   4.638   9.305   5.186 -0.1362  0.2891 -0.1210
 3107W        W16521   8.568   1.801   1.433  0.3904  0.3664 -0.1908
 3108W        W16522  16.889   2.550   0.903 -0.2608 -0.0765 -0.0923
 3109W        W16523   8.641  14.526   3.763  0.0090  0.0921  0.0247
 3110W        W16524  15.567   6.596   2.901  0.0828  0.3172  0.0045
 3111W        W16525   1.012  15.221  16.472  0.0795 -0.1670 -0.0947
 3112W        W16526  12.061   0.608   4.687 -0.2510  0.2908 -0.1482
 3113W        W16527  16.949  15.899   0.134 -0.1119 -0.0312 -0.1214
 3114W        W16528   7.688   3.026   4.836  0.0133  0.0382 -0.3471
 3115W        W16529  11.477   0.973  15.086  0.0450  0.0499  0.3461
 3116W        W16530   7.721   6.291   3.292  0.1889  0.0838  0.0892
 3117W        W16531   5.920   4.268  14.109 -0.1944  0.2472 -0.0730
 3118W        W16532  15.937   0.569   1.729  0.1254  0.1343 -0.0065
 3119W        W16533  13.131  15.213  16.700  0.0493 -0.0799  0.0016
 3120W        W16534  13.625  15.843   2.749 -0.2759 -0.0640  0.0335
 3121W        W16535   6.855   7.687  14.522 -0.0598 -0.3025  0.2699
 3122W        W16536  12.833   6.748   2.802  0.0099 -0.0167  0.0270
 3123W        W16537   0.959  13.369  13.778 -0.0611 -0.2733  0.0053
 3124W        W16538  15.410   4.569   3.453  0.0766 -0.3359 -0.1404
 3125W        W16539   4.256   7.130  10.532  0.0503 -0.1876  0.2154
 3126W        W16540  16.576   8.843  10.736 -0.0733  0.0034 -0.2344
 3127W        W16541  14.833   2.505  14.592  0.3225 -0.2524  0.0318
 3128W        W16542   2.895   4.618  13.026 -0.0837  0.0884 -0.0828
 3129W        W16543  16.235  11.466   6.175 -0.0763 -0.0509  0.0093
 3130W        W16544  13.954   6.097   5.639 -0.0339  0.1304  0.0169
 3131W        W16545  13.940   9.200   4.841  0.1255 -0.3276 -0.0393
 3132W        W16546  14.956   7.613   1.466  0.0769  0.1670  0.2103
 3133W        W16547  16.423  17.858   5.695  0.1875  0.0503  0.0573
 3134W        W16548   5.233   3.756   4.737 -0.0643 -0.2300 -0.1794
 3135W        W16549  16.781   8.268   0.330 -0.0999 -0.1669  0.0294
 3136W        W16550  10.129   5.934  15.991  0.1105  0.1407 -0.1279
 3137W        W16551   0.453   7.332   3.091  0.1209 -0.1498  0.0275
 3138W        W16552  16.174  14.978   3.338 -0.1750 -0.0776 -0.2597
 3139W        W16553   7.974  15.563  13.411  0.2687 -0.0608 -0.1360
 3140W        W16554  16.094   7.927   2.188 -0.0725  0.0406  0.3271
 3141W        W16555   8.809  12.012  12.893 -0.0453 -0.0566  0.2008
 3142W        W16556  14.496   0.875  13.970 -0.0814  0.0288  0.0836
 3143W        W16557   0.542  11.882   2.345  0.0108 -0.1867 -0.0233
 3144W        W16558   0.932   0.044   6.609  0.3088 -0.0111  0.0017
 3145W        W16559   8.391   9.290   1.557  0.0777  0.0004  0.0019
 3146W        W16560   6.261  16.842  11.622 -0.1866 -0.2014 -0.1080
 3147W        W16561  16.352  17.415   4.697 -0.0706 -0.1691 -0.0027
 3148W        W16562   2.144  17.426   2.749 -0.1219  0.2435  0.3384
 3149W        W16563  13.309   5.106   2.865  0.0983 -0.2168  0.1460
 3150W        W16564   6.326   1.219  15.245 -0.2492 -0.0208 -0.1443
 3151W        W16565  13.463  14.410   0.125  0.1341 -0.1681  0.1577
 3152W        W16566   7.547  17.740  16.337  0.1919 -0.1598 -0.0311
 3153W        W16567   4.322   6.053  15.553 -0.2478  0.1569  0.0596
 3154W        W16568   2.738   0.312  12.910  0.1160 -0.2985  0.2712
 3155W        W16569   7.652  12.671   4.795  0.1356  0.0708  0.3965
 3156W        W16570  10.262  16.753  15.612 -0.1579 -0.2645 -0.2669
 3157W        W16571  14.128  12.983  14.006  0.2729  0.0576  0.0653
 3158W        W16572   1.659   8.332   2.058 -0.0300  0.1435 -0.0615
 3159W        W16573   8.840   6.549   3.994 -0.0717  0.1711  0.1036
 3160W        W16574  17.092  11.245   5.629 -0.0749 -0.1564  0.0225
 3161W        W16575   3.298  12.338   1.857  0.0255  0.0840 -0.1728
 3162W        W16576  13.429   1.814   4.477 -0.1239  0.0585  0.1834
 3163W        W16577   2.526  10.899   1.869 -0.0876 -0.2203 -0.1738
 3164W        W16578  17.557  10.422   5.286 -0.2929  0.1852  0.1822
 3165W        W16579  16.454  13.305  15.266 -0.2433  0.3719  0.0963
 3166W        W16580  10.306   2.667   3.652 -0.0797 -0.2780 -0.2320
 3167W        W16581   3.262  12.727  15.924 -0.0905  0.3720 -0.2166
 3168W        W16582  17.746   2.445   6.669  0.0306  0.0184 -0.0483
 3169W        W16583   1.524   0.917   4.543  0.0959  0.0307  0.0380
 3170W        W16584  14.567   0.031  11.852 -0.1218 -0.1530  0.3952
 3171W        W16585   9.151   1.560   4.601  0.3123 -0.0522  0.3253
 3172W        W16586   1.189   1.172  11.153 -0.0253 -0.3399  0.3363
 3173W        W16587   5.094  13.186  14.317 -0.0491  0.0738  0.1620
 3174W        W16588  17.804   0.656   6.515 -0.2494  0.3916 -0.2864
 3175W        W16589   6.856  14.101   5.208  0.1541 -0.1960 -0.0133
 3176W        W16590   4.807  10.192   1.896 -0.2046  0.2155 -0.0432
 3177W        W16591  17.200   1.319  14.301 -0.2035  0.1705 -0.2769
 3178W        W16592  15.278   8.717  13.401 -0.0490  0.0385 -0.1383
 3179W        W16593  11.000  11.354   6.063  0.0879 -0.0375  0.1163
 3180W        W16594  17.831   7.251   5.449  0.1011  0.1294 -0.2644
 3181W        W16595   9.458   7.098  13.757 -0.1716 -0.0716  0.0642
 3182W        W16596   2.929  12.169   1.215  0.3743 -0.2613  0.1079
 3183W        W16597  11.527   9.904  16.278  0.0309 -0.1235 -0.1023
 3184W        W16598   7.312   7.897  14.413  0.2007  0.2536  0.1553
 3185W        W16599   2.913   9.130   6.374 -0.0530  0.4308  0.2653
 3186W        W16600   6.237  12.341   4.748 -0.2148  0.0274 -0.0173
 3187W        W16601   0.274  14.428  14.336 -0.3426 -0.2519  0.0996
 3188W        W16602   6.856  15.665  11.562 -0.1723  0.2511  0.1359
 3189W        W16603   9.172  16.193   3.531  0.1381  0.0503 -0.0941
 3190W        W16604   8.231   8.190   0.708 -0.0684  0.0953  0.3138
 3191W        W16605  13.296   3.260  13.098  0.0930 -0.3102 -0.1088
 3192W        W16606   6.488  16.087   4.633 -0.0246  0.0419 -0.0027
 3193W        W16607   3.886   2.923   1.685 -0.0754  0.1187  0.3351
 3194W        W16608  12.329  12.334   4.449 -0.1891  0.5056 -0.1439
 3195W        W16609   6.641  14.510   3.551  0.1374 -0.1952  0.1550
 3196W        W16610  11.691  12.479   1.956  0.0181 -0.0640  0.0398
 3197W        W16611  17.526   9.143   3.992  0.0892  0.1256 -0.0960
 3198W        W16612  15.521   4.046  11.264  0.1230  0.4693  0.1546
 3199W        W16613  14.799   1.024   2.366  0.1455  0.0530  0.0478
 3200W        W16614   8.228  15.685  11.742 -0.1608  0.2302  0.1395
 3201W        W16615   3.343   8.883   4.932 -0.1790  0.1322  0.2647
 3202W        W16616   7.376  14.285  13.491 -0.0278  0.0131  0.0506
 3203W        W16617  17.135   4.572   3.917  0.0269 -0.2924  0.0953
 3204W        W16618   8.998  14.682   5.705  0.2110  0.1322 -0.2753
 3205W        W16619   1.651  11.588  12.913 -0.0704 -0.0463  0.1782
 3206W        W16620   6.720   1.008   5.529  0.1474  0.2659 -0.0258
 3207W        W16621  14.369   6.632  13.151  0.3464 -0.2300 -0.0887
 3208W        W16622   7.241   5.203  13.189 -0.0903 -0.1142 -0.2732
 3209W        W16623  13.556  13.699  15.832  0.1442  0.1997  0.2540
 3210W        W16624   9.783   4.726   6.002 -0.2669 -0.1815 -0.2169
 3211W        W16625   7.236  12.131  15.094  0.0049  0.1367 -0.1289
 3212W        W16626   2.780  11.711  14.698 -0.0812 -0.2368 -0.2277
 3213W        W16627   7.582   8.371  14.872  0.0392  0.0930  0.0945
 3214W        W16628   7.240   7.195   1.081  0.2689  0.1537  0.0764
 3215W        W16629  12.321   4.030  16.456 -0.0640 -0.0994 -0.0845
 3216W        W16630  12.441   0.419   3.414  0.1863  0.1901 -0.0147
 3217W        W16631   4.662   1.088  16.076  0.0284  0.0337  0.0968
 3218W        W16632   3.760  14.344   5.615 -0.2588  0.0933 -0.2182
 3219W        W16633  16.808  14.728  12.590 -0.0587 -0.1306 -0.0644
 3220W        W16634   3.727   8.459   4.995  0.3523 -0.1198 -0.2332
 3221W        W16635   5.412  16.803  15.214  0.0561  0.1537  0.2981
 3222W        W16636   9.165  12.216   3.793  0.1605  0.0082  0.3933
 3223W        W16637   8.418   8.953  15.886  0.0409 -0.3666  0.0474
 3224W        W16638   3.970   0.283   5.983  0.0336  0.1151 -0.0122
 3225W        W16639  12.659   9.221  10.353 -0.2015  0.3447  0.2454
 3226W        W16640   0.357  13.144  11.929  0.1326 -0.0518 -0.0588
 3227W        W16641  15.494  17.548   4.706  0.1529 -0.0022  0.2388
 3228W        W16642  12.560   6.953  15.595  0.1591  0.0656 -0.0359
 3229W        W16643  11.806   7.275   1.325  0.1970 -0.1860  0.0257
 3230W        W16644   4.314   8.023   2.875 -0.1496  0.0948 -0.0097
 3231W        W16645   1.009  17.724   5.225 -0.0758 -0.1779  0.1386
 3232W        W16646   3.047  18.014   5.916 -0.3956  0.1237  0.0536
 3233W        W16647  10.458  13.659   3.137  0.0452 -0.0264  0.2828
 3234W        W16648  13.494  12.937   1.252 -0.0917 -0.0542 -0.0823
 3235W        W16649   4.650   9.460  16.386  0.1938  0.0102  0.0457
 3236W        W16650  13.177  17.627  12.820  0.0484 -0.1909  0.1316
 3237W        W16651   8.974  10.131  12.689 -0.2204 -0.1972  0.3727
 3238W        W16652   9.201   8.507  11.132  0.0685 -0.1522  0.2640
 3239W        W16653   2.469  11.705   1.355 -0.0400  0.2140 -0.0590
 3240W        W16654   9.905   8.552   2.118 -0.2838 -0.0679  0.0357
 3241W        W16655   1.066   0.482   1.070 -0.1698  0.3453  0.0106
 3242W        W16656  10.529   2.992   1.965  0.2077  0.1304  0.2126
 3243W        W16657   1.608   8.332  15.756 -0.0763 -0.0105 -0.0559
 3244W        W16658   2.916  11.974   3.837 -0.2463  0.1041  0.0259
 3245W        W16659  15.209   8.966  14.929 -0.1559 -0.0112  0.1739
 3246W        W16660  17.024  13.611  15.709 -0.0336 -0.0676 -0.2238
 3247W        W16661  11.055   3.560  12.153 -0.3314  0.0968  0.1139
 3248W        W16662   5.184  16.089   1.128 -0.1342 -0.1832  0.3010
 3249W        W16663   5.724  11.531   0.107 -0.0372 -0.3843  0.1719
 3250W        W16664   2.321  15.354   5.099  0.3180 -0.1575  0.2093
 3251W        W16665   8.017   9.213  10.826 -0.1348 -0.3091 -0.0736
 3252W        W16666   1.256  12.346  10.408 -0.0647  0.2559  0.0581
 3253W        W16667  11.271  11.412  16.216  0.0669  0.0943  0.0194
 3254W        W16668   2.889  14.843   2.997  0.2250  0.0613  0.1239
 3255W        W16669   7.485   7.904   3.814 -0.2506 -0.2089 -0.0034
 3256W        W16670  16.392   1.676  15.396  0.0066  0.2419  0.0114
 3257W        W16671  15.998  16.332   1.500  0.3975  0.1661 -0.1363
 3258W        W16672   5.928   9.046   2.841 -0.4822 -0.0906  0.2040
 3259W        W16673   5.348   3.073   3.511  0.0912  0.0725 -0.1920
 3260W        W16674   3.129   3.935   0.962 -0.1843 -0.3192 -0.3561
 3261W        W16675   3.861   5.280  10.198  0.1128  0.2037  0.0442
 3262W        W16676  11.051   6.731  13.911 -0.0108 -0.3939 -0.1786
 3263W        W16677   9.428   7.564   1.427 -0.2850  0.0381 -0.1167
 3264W        W16678   1.473   6.564  11.049  0.0170  0.2047 -0.0059
 3265W        W16679  16.092  14.852  14.836 -0.1099 -0.0567  0.2073
 3266W        W16680  11.574   4.227   0.200  0.0068  0.1209 -0.2521
 3267W        W16681   3.046  14.860  16.473  0.3337 -0.2120  0.1943
 3268W        W16682  14.261  12.929  14.499 -0.0827 -0.0131  0.0788
 3269W        W16683   6.955   9.092   3.808  0.1958 -0.0454  0.0202
 3270W        W16684   3.129  11.731   1.010  0.2499  0.0632  0.1602
 3271W        W16685  10.758  14.848   6.043 -0.0231  0.2331 -0.1040
 3272W        W16686  11.177  13.422   0.971  0.0441  0.1997  0.1027
 3273W        W16687  16.403   3.307   0.477  0.1957 -0.1345  0.0923
 3274W        W16688   6.995  10.236  15.468  0.1242 -0.3770  0.0205
 3275W        W16689  16.029  11.733   4.491 -0.2403 -0.0347 -0.0342
 3276W        W16690  13.297  14.568   1.705  0.1314 -0.1861 -0.1631
 3277W        W16691   8.128   1.131  16.226 -0.3057 -0.1018  0.0479
 3278W        W16692   3.825   3.657   2.447  0.1162  0.2199 -0.0895
 3279W        W16693   0.218  10.830   0.676 -0.0138  0.1827  0.1086
 3280W        W16694  11.176  13.678  14.732  0.2028 -0.2239  0.0682
 3281W        W16695   8.256  16.724  12.702  0.0627 -0.1497 -0.1066
 3282W        W16696  16.730   3.394   2.748 -0.0210  0.0119 -0.0092
 3283W        W16697  15.579  11.978   3.019 -0.1075  0.1770  0.5624
 3284W        W16698   7.866   4.875  12.740  0.4956 -0.2022 -0.0518
 3285W        W16699   9.026   2.909   5.235 -0.1477  0.1926 -0.1006
 3286W        W16700   8.156  17.723  11.804  0.2682 -0.3664  0.0277
 3287W        W16701   5.085   7.359   6.007 -0.2735 -0.2142  0.1882
 3288W        W16702   4.563  14.873   5.155 -0.2376  0.0670  0.0890
 3289W        W16703  17.977  17.472   1.301 -0.0176  0.2729  0.0115
 3290W        W16704   8.505   6.978   3.817 -0.1563 -0.1060 -0.1512
 3291W        W16705  16.148   7.788  14.623  0.0076 -0.0517 -0.1842
 3292W        W16706  15.888  15.113  16.589 -0.0731  0.2655 -0.2477
 3293W        W16707  11.075  17.135   0.831  0.3659  0.1483  0.0146
 3294W        W16708   3.567   4.372  11.223  0.0042 -0.4022  0.1163
 3295W        W16709  15.499  13.104  11.079 -0.0790 -0.0301 -0.0076
 3296W        W16710  12.565   6.150   1.505 -0.3073 -0.1058 -0.0298
 3297W        W16711   1.578   4.216  14.591 -0.0954  0.0860 -0.0660
 3298W        W16712  13.584   6.252   4.729 -0.0105  0.3320 -0.0543
 3299W        W16713   9.476   8.167   3.068 -0.2236  0.0479  0.0124
 3300W        W16714   8.823  14.925   1.113  0.1569  0.1624  0.1045
 3301W        W16715  16.653   8.968   5.307 -0.3116 -0.1728 -0.0044
 3302W        W16716  13.270  17.200  12.565 -0.1037  0.1243 -0.0410
 3303W        W16717   3.475  10.770  14.651  0.2833  0.2239 -0.1115
 3304W        W16718   7.722   3.342   5.450 -0.0011  0.0714  0.2450
 3305W        W16719  17.107   4.951  14.183  0.2900  0.1559 -0.0507
 3306W        W16720  16.741   6.355   4.102 -0.0850  0.0022 -0.2446
 3307W        W16721   9.741   2.121  16.321 -0.2346 -0.2563  0.0906
 3308W        W16722  14.951   0.772  13.669  0.2471 -0.1605 -0.0829
 3309W        W16723  11.669   4.794  14.241  0.2376  0.0799 -0.1234
 3310W        W16724  13.403  15.047  15.647  0.2974 -0.1902 -0.0486
 3311W        W16725   6.561  13.553   5.945  0.0986  0.2344  0.1937
 3312W        W16726  17.922   7.248  13.008  0.2462 -0.0329 -0.0008
 3313W        W16727  14.197   7.791  15.480  0.0562 -0.1905  0.1226
 3314W        W16728  12.643  14.572   1.144  0.1983 -0.1493  0.0255
 3315W        W16729   4.903  17.426  14.665  0.3539 -0.0296  0.2373
 3316W        W16730  15.541  16.172   1.622 -0.1305 -0.0597 -0.0374
 3317W        W16731  14.791   6.401  11.945 -0.0673  0.3640  0.0672
 3318W        W16732  17.891  13.346   3.501 -0.0817 -0.0686 -0.2803
 3319W        W16733  11.736   5.684  16.237  0.2278 -0.0093  0.2252
 3320W        W16734   1.568   9.950  10.914 -0.0283  0.2167 -0.0961
 3321W        W16735   2.766  10.730  15.954 -0.1254  0.2718  0.2084
 3322W        W16736   4.336  14.420   4.581 -0.0887  0.0399 -0.0884
 3323W        W16737  11.008   7.122   1.654 -0.1509 -0.0488 -0.1522
 3324W        W16738  13.954   4.519   4.329  0.1373 -0.0440  0.1583
 3325W        W16739  15.053  13.691   0.876  0.0732 -0.0290  0.0829
 3326W        W16740   6.298  12.139   1.304 -0.0061  0.2368 -0.0643
 3327W        W16741   5.217   1.101   4.327  0.0015 -0.0489 -0.2839
 3328W        W16742   1.649  17.342   2.223  0.0074  0.1917 -0.3717
 3329W        W16743  15.670   8.900   4.835  0.1117 -0.0449  0.0310
 3330W        W16744   5.295  15.564   0.976 -0.1402 -0.2847  0.1280
 3331W        W16745  10.575   7.822  15.249 -0.2917 -0.0361  0.0470
 3332W        W16746   8.381  16.697  13.894 -0.0209  0.0094  0.1110
 3333W        W16747  12.189  17.948   1.063  0.1149 -0.1763 -0.0398
 3334W        W16748  12.724  10.065  15.753 -0.2020  0.4889  0.0583
 3335W        W16749  15.906   3.696  10.836  0.0146  0.1654 -0.0423
 3336W        W16750   2.407  14.326  16.389 -0.1584 -0.2019  0.1371
 3337W        W16751  10.163   8.489   1.608 -0.0861  0.0848 -0.1220
 3338W        W16752   0.793   9.196  10.524  0.0291 -0.1550  0.0732
 3339W        W16753  17.523  10.821  10.984  0.0552 -0.0064  0.4213
 3340W        W16754   9.124  13.356   0.850 -0.0251  0.4304  0.0879
 3341W        W16755   9.297   4.456  12.420 -0.2795  0.2353 -0.0029
 3342W        W16756  14.950   3.036   0.436  0.0889 -0.1206  0.0797
 3343W        W16757   1.951   2.180   6.469 -0.4296 -0.0235 -0.1415
 3344W        W16758   2.560   9.035   4.487  0.1229  0.0623 -0.2459
 3345W        W16759   6.420   0.258   2.873 -0.0789  0.3449  0.0126
 3346W        W16760  13.591   5.101  15.259  0.0131 -0.4255  0.2373
 3347W        W16761  15.705  16.916   2.525 -0.2437  0.0972 -0.2576
 3348W        W16762   2.238  13.019   4.343  0.4139 -0.2717 -0.0790
 3349W        W16763   9.765   3.058  11.160 -0.2202 -0.0147 -0.1607
 3350W        W16764   5.401   0.012  16.381 -0.3250  0.1814  0.2406
 3351W        W16765  11.559  16.944  12.569  0.3579  0.1033 -0.0756
 3352W        W16766   4.273   3.680   5.284 -0.2001  0.0496 -0.0324
 3353W        W16767  14.861   9.059  16.473 -0.0532 -0.3594 -0.0181
 3354W        W16768   1.465  11.116   2.253 -0.0332  0.0636 -0.4153
 3355W        W16769   6.521   9.044   4.076 -0.0129 -0.0949  0.0804
 3356W        W16770   5.077  13.958  15.739 -0.2723  0.0872 -0.2555
 3357W        W16771  12.296   1.977   2.451 -0.1452 -0.1890 -0.2613
 3358W        W16772   0.530   3.268   4.188  0.2740 -0.2174  0.2091
 3359W        W16773  12.924  10.083   5.435 -0.1288  0.0061 -0.1792
 3360W        W16774  12.425  13.640   0.609 -0.0953  0.1012  0.2227
 3361W        W16775   1.084   4.747   0.702  0.3045 -0.0155 -0.0035
 3362W        W16776   4.123  14.713   1.133 -0.1488  0.2169  0.0229
 3363W        W16777   2.491   6.109  15.605 -0.0221  0.2190 -0.2909
 3364W        W16778   1.636   1.528   0.659  0.0564 -0.5296 -0.0075
 3365W        W16779   0.316  11.100  12.854 -0.0510  0.0102 -0.0141
 3366W        W16780   5.233  10.930  11.291 -0.5129 -0.0571 -0.0807
 3367W        W16781   1.666   2.732  11.485  0.2667  0.3756  0.1484
 3368W        W16782   9.300  17.057   0.629 -0.3501 -0.1900 -0.0220
 3369W        W16783  15.330   3.524  12.644  0.4155 -0.0412  0.0087
 3370W        W16784   2.653  12.903  11.079  0.0687 -0.1938 -0.1636
 3371W        W16785   3.078   3.103   5.320 -0.0355 -0.1771  0.0192
 3372W        W16786  12.491   0.918   4.486 -0.1979  0.1349 -0.0994
 3373W        W16787   6.172  15.070  11.647 -0.2559  0.0366  0.0156
 3374W        W16788   6.665   9.752  13.676  0.3455 -0.0582 -0.0188
 3375W        W16789   9.286   2.109  12.351  0.0852 -0.0408 -0.1004
 3376W        W16790   4.246  17.618  16.359  0.2755  0.0154 -0.0606
 3377W        W16791  13.117   9.310  16.433 -0.0750 -0.3281  0.0258
 3378W        W16792  13.386   3.480  15.470 -0.2192 -0.0927 -0.1630
 3379W        W16793   1.983   6.959  13.555 -0.0556  0.0409  0.0299
 3380W        W16794  12.659   2.958  10.803  0.0881  0.0296  0.0095
 3381W        W16795  16.451  10.088  13.124  0.1023 -0.1559  0.0380
 3382W        W16796   3.516   1.955   2.952  0.0127  0.0148  0.1256
 3383W        W16797  16.799   6.110  11.615 -0.2155  0.1409  0.1277
 3384W        W16798   1.204  15.094   5.441  0.0669 -0.0556  0.2796
 3385W        W16799  12.297  12.756  10.652  0.1318 -0.2730  0.0947
 3386W        W16800   9.367   6.356  10.615 -0.2099 -0.4728  0.0462
 3387W        W16801  13.446  14.591   0.682  0.2350 -0.1365 -0.0521
 3388W        W16802   3.132   4.024   3.924 -0.0571  0.1055  0.1587
 3389W        W16803   2.559  10.284  14.006 -0.1316  0.0000  0.0173
 3390W        W16804   3.955   5.936  13.877 -0.1730  0.0785 -0.1951
 3391W        W16805  10.697   1.232   4.794 -0.0789  0.2535  0.0857
 3392W        W16806  11.824   4.486  13.006 -0.1984  0.2090  0.4208
 3393W        W16807   2.435   7.363   2.415 -0.0552  0.0902  0.1093
 3394W        W16808  10.946  12.784  15.028  0.3499  0.2318 -0.1134
 3395W        W16809   1.348  16.260  10.958 -0.1316 -0.3710 -0.1001
 3396W        W16810   8.781   0.184   4.008 -0.0894  0.2114 -0.3237
 3397W        W16811   8.116  10.500   3.201  0.1180 -0.1355 -0.1524
 3398W        W16812   1.237   3.762   0.988  0.3594 -0.2488 -0.0786
 3399W        W16813  17.939  12.601  10.717 -0.0734  0.0660 -0.0869
 3400W        W16814  16.212  12.158   2.982 -0.1555  0.1284  0.0031
 3401W        W16815   2.995   3.947  15.134 -0.1911 -0.0493  0.0719
 3402W        W16816   2.935   4.294   4.610 -0.2615 -0.0337  0.0390
 3403W        W16817  12.756  10.103  16.593 -0.3537 -0.2194  0.1136
 3404W        W16818  15.025  17.628   2.492  0.0451  0.1451  0.1724
 3405W        W16819   7.417  11.273  14.178 -0.0709 -0.2115  0.2970
 3406W        W16820  17.356  17.628  15.262  0.1886  0.1063 -0.0520
 3407W        W16821   8.756   7.904  11.371  0.3375 -0.1234 -0.1705
 3408W        W16822  13.529   5.833  12.529  0.0042 -0.0890  0.1156
 3409W        W16823   1.382  10.683   3.414 -0.0964  0.1053 -0.2766
 3410W        W16824  14.168  10.920  12.028  0.0138  0.1406 -0.1523
 3411W        W16825   7.939   5.239  15.312  0.2385 -0.0242 -0.0694
 3412W        W16826  10.472   5.589   0.060 -0.0345 -0.2685 -0.1952
 3413W        W16827  14.318   5.170   5.759  0.0059  0.1330 -0.0307
 3414W        W16828   4.731   0.878  11.415  0.1043 -0.2270  0.2330
 3415W        W16829  11.405  13.715   1.762  0.1084  0.0897  0.2529
 3416W        W16830   7.850   4.190   5.655  0.0275  0.1220  0.2357
 3417W        W16831  14.510   3.536   4.316 -0.1647 -0.0108  0.0916
 3418W        W16832  13.897   9.661  10.482 -0.0558 -0.2314 -0.1050
 3419W        W16833   4.375   4.873  13.004 -0.1409 -0.2279 -0.0355
 3420W        W16834   5.573  12.974  12.900  0.1415 -0.1067  0.0116
 3421W        W16835   2.741  11.342  15.041 -0.0047  0.1308  0.1769
 3422W        W16836   3.421  12.946   0.253  0.0682 -0.3744  0.1069
 3423W        W16837   4.977  17.421   1.446  0.1032 -0.1985 -0.0354
 3424W        W16838  17.244   9.252   6.413  0.0075  0.0413 -0.3225
 3425W        W16839   7.419   7.152   4.291  0.2927  0.3248 -0.1838
 3426W        W16840  14.924   2.412  11.604  0.0106  0.3106 -0.1331
 3427W        W16841   0.113   8.150  15.246 -0.1452  0.3019 -0.1688
 3428W        W16842  14.184   5.720  11.558  0.1519  0.0791 -0.0366
 3429W        W16843   8.807   2.708   4.805 -0.1376  0.1459  0.1747
 3430W        W16844  15.039   8.430  15.354  0.0159 -0.0107  0.1861
 3431W        W16845  11.878   5.459   0.484 -0.2052 -0.0288  0.0825
 3432W        W16846   6.617  13.240   5.561  0.0650 -0.1939  0.1539
 3433W        W16847   4.983   9.957  11.737  0.1308  0.0369 -0.0475
 3434W        W16848   0.132   0.606   4.989 -0.1343  0.0349 -0.2522
 3435W        W16849   2.879   8.043   5.171 -0.2502 -0.2691 -0.0078
 3436W        W16850   2.243   7.409   0.760  0.0336 -0.1808 -0.2933
 3437W        W16851  17.556  14.400   3.933 -0.0945  0.1051  0.1082
 3438W        W16852  11.193  14.629  11.314 -0.1651  0.0776 -0.0780
 3439W        W16853   5.188  17.179  12.658  0.0260 -0.0174  0.1250
 3440W        W16854   5.642  17.018   5.525  0.0713  0.1348  0.0425
 3441W        W16855   7.112   8.257   4.456 -0.2193 -0.1649 -0.1237
 3442W        W16856  10.627   7.702  16.693  0.1448  0.0610 -0.2352
 3443W        W16857   5.054  16.662   3.772  0.1944  0.1523  0.1337
 3444W        W16858   5.382   9.807  15.521  0.0705 -0.1684  0.1044
 3445W        W16859   1.720  16.544  15.232 -0.3638 -0.2356 -0.2768
 3446W        W16860  10.290   0.008  11.924  0.0019  0.0468 -0.1969
 3447W        W16861   7.560  13.979  10.139 -0.0650  0.0252 -0.0377
 3448W        W16862   5.973   2.031  14.936  0.1802  0.1804  0.0891
 3449W        W16863  15.821  11.024  10.286 -0.1579  0.2232  0.0467
 3450W        W16864  12.123  13.386   2.518 -0.1928 -0.2501 -0.0121
 3451W        W16865  15.807   3.309   2.264  0.2041 -0.3906  0.0591
 3452W        W16866   2.207   2.512   3.737 -0.2291 -0.1202 -0.1478
 3453W        W16867  15.197   9.200   5.676  0.0813 -0.3854  0.0701
 3454W        W16868   5.422   0.481  11.134 -0.2320 -0.2805  0.0109
 3455W        W16869   2.496   9.123   0.651  0.0121 -0.1292 -0.1603
 3456W        W16870  14.808   7.683   4.423 -0.1462 -0.0758  0.1358
 3457W        W16871  17.515   2.419  11.587  0.3181 -0.1295 -0.2463
 3458W        W16872   1.969  10.433  15.580 -0.2604 -0.1840  0.1126
 3459W        W16873   7.078   7.545  15.329  0.0132 -0.1052  0.0533
 3460W        W16874   6.870   0.272   5.261 -0.3091  0.0381  0.1037
 3461W        W16875  14.721   5.545   0.597 -0.0486 -0.2592 -0.1717
 3462W        W16876  12.415  13.532   4.567  0.2200  0.0191 -0.2015
 3463W        W16877   9.507   8.404   5.482 -0.1611  0.2481 -0.1569
 3464W        W16878   5.044  10.827   5.354 -0.4220 -0.0039  0.2847
 3465W        W16879   7.765  17.444   1.205 -0.1354 -0.1841 -0.1173
 3466W        W16880   3.141  17.473  12.281 -0.0791 -0.2206 -0.1659
 3467W        W16881   7.970   7.556   5.658 -0.2609 -0.2827  0.0897
 3468W        W16882  17.009  11.519  11.074 -0.2256 -0.0006 -0.0052
 3469W        W16883  16.306   7.470   2.389 -0.1180 -0.0224  0.4529
 3470W        W16884  10.294   0.871  12.996 -0.2327  0.0608  0.1632
 3471W        W16885  12.011  15.465  16.107  0.0928 -0.0660 -0.2266
 3472W        W16886   9.813   9.029   1.985  0.0232  0.2524 -0.0973
 3473W        W16887   1.855   0.228  12.980 -0.0703  0.3397  0.1464
 3474W        W16888   6.718   5.556  14.349  0.1667  0.0115  0.0194
 3475W        W16889   9.383   8.924  16.202 -0.3649  0.0425 -0.1625
 3476W        W16890   1.890  16.458   3.471  0.0758 -0.3301  0.1558
 3477W        W16891  13.037  11.555  10.576  0.3486  0.1879  0.0389
 3478W        W16892   0.697  16.345   0.455  0.3354  0.0334 -0.0973
 3479W        W16893   6.244  15.359   0.684 -0.0328  0.2215 -0.0602
 3480W        W16894   7.942   3.216   5.988  0.1724 -0.0824 -0.2407
 3481W        W16895   7.313   6.547   5.081  0.0437 -0.2176  0.0810
 3482W        W16896  11.213  10.314   2.895  0.2195 -0.1331 -0.0639
 3483W        W16897   6.082  15.925   0.982  0.1980  0.0184  0.0110
 3484W        W16898   7.096   2.712  15.638 -0.2937 -0.0890 -0.1015
 3485W        W16899   4.396   0.535   6.162  0.1913  0.0303 -0.0609
 3486W        W16900  14.177  14.798  13.869  0.0394 -0.1646  0.2662
 3487W        W16901   5.061  15.720  11.669 -0.0602  0.2234  0.3229
 3488W        W16902   4.549   8.488   2.756 -0.1627 -0.0532 -0.1137
 3489W        W16903  15.514   8.618  15.130  0.0094 -0.1843 -0.4395
 3490W        W16904   0.296  15.066  14.632  0.0358 -0.1995  0.1204
 3491W        W16905   1.968   3.278   4.848  0.0366 -0.1760 -0.1974
 3492W        W16906   6.731  14.453  12.605  0.2868 -0.0100 -0.1274
 3493W        W16907  11.229   0.701   2.248  0.1326  0.1278 -0.0614
 3494W        W16908  12.582   5.523  16.492  0.0482 -0.2640 -0.1332
 3495W        W16909  16.784   2.502   5.704 -0.0145 -0.0397  0.1509
 3496W        W16910  16.654   8.511   0.726  0.2967 -0.0233 -0.1511
 3497W        W16911  16.523   2.936   4.489  0.0819  0.0688  0.4690
 3498W        W16912   2.981   8.506  16.260 -0.0751  0.3634 -0.2629
 3499W        W16913   2.055  12.478   1.221  0.2276  0.0270  0.0396
 3500W        W16914  17.665   4.017  14.623 -0.0543  0.1252 -0.0497
 3501W        W16915  16.888   9.599   2.678  0.1566 -0.2847  0.2832
 3502W        W16916  17.834  14.952  12.928 -0.0030  0.0654  0.1481
 3503W        W16917  16.201   4.233  12.219  0.0975  0.2460  0.0860
 3504W        W16918   7.475  17.884  14.549  0.1092  0.2953 -0.1981
 3505W        W16919   9.861   3.175   1.117 -0.0398  0.0877 -0.2002
 3506W        W16920  10.088   4.446  16.148 -0.0933  0.2080  0.3150
 3507W        W16921  13.739  11.199  10.136  0.1142 -0.3091  0.1780
 3508W        W16922   5.867   0.194   2.265  0.1118 -0.1890 -0.2526
 3509W        W16923  10.550   2.636  14.236  0.1522  0.0551 -0.1611
 3510W        W16924   9.402   9.752   0.588 -0.1576  0.1628  0.0190
 3511W        W16925   0.334  12.557   2.406 -0.1621 -0.1635  0.3767
 3512W        W16926  15.966   8.309  12.228  0.1678 -0.2180 -0.0977
 3513W        W16927   8.463  14.069   1.823 -0.2376 -0.2604  0.1706
 3514W        W16928   3.920   5.768  12.173  0.0711  0.0983  0.0002
 3515W        W16929  10.883  11.220   9.979  0.0108  0.2891  0.1034
 3516W        W16930  17.622   4.933  15.172 -0.2921 -0.1611 -0.0019
 3517W        W16931   1.264   6.594   6.779  0.0985  0.0563 -0.0843
 3518W        W16932   6.488  16.065  16.397  0.1298 -0.1026  0.1463
 3519W        W16933   2.188   1.657  12.852  0.2143  0.0084  0.1676
 3520W        W16934   7.457  10.393   1.827  0.0639 -0.0343  0.1033
 3521W        W16935  14.258  15.754  14.712 -0.2915  0.0255  0.1779
 3522W        W16936  11.109   3.302  11.453 -0.3320 -0.0052 -0.0616
 3523W        W16937   5.587  11.289  15.523 -0.0347  0.1670 -0.0995
 3524W        W16938   0.713   4.707   1.107 -0.3012 -0.4043 -0.3310
 3525W        W16939   7.920  14.786  15.208 -0.1164  0.1781 -0.1273
 3526W        W16940   4.928   6.860  12.362  0.0469 -0.0486  0.0116
 3527W        W16941   8.719  15.556  16.679  0.3985  0.3077 -0.1091
 3528W        W16942  13.730  14.073  10.709  0.0726 -0.1542 -0.1516
 3529W        W16943   0.882   8.065   0.761 -0.3341 -0.1446 -0.1005
 3530W        W16944   0.648   8.014  13.849  0.0442  0.3625  0.0197
 3531W        W16945   5.153  12.226  11.900  0.2601 -0.1532 -0.1183
 3532W        W16946   7.613   3.706   3.244  0.1641 -0.0848  0.1922
 3533W        W16947  10.512   6.593   5.112  0.4149  0.0363 -0.0853
 3534W        W16948   2.161  12.596   6.061 -0.1542  0.1258 -0.2019
 3535W        W16949  17.620  10.946   3.038  0.0398 -0.0740  0.0474
 3536W        W16950   7.120   9.453   0.440  0.0029 -0.2461  0.0275
 3537W        W16951   0.090   3.525  15.910 -0.0393  0.1628 -0.3255
 3538W        W16952   2.561   0.484   0.080  0.0750 -0.1760  0.3445
 3539W        W16953   1.837   2.961   5.977 -0.2877  0.0042 -0.3165
 3540W        W16954  13.861   9.790  15.867  0.0971 -0.2145 -0.1010
 3541W        W16955   0.326  14.781  13.503  0.0024 -0.0053  0.2020
 3542W        W16956   2.953  17.654  16.619 -0.1531 -0.1775 -0.0262
 3543W        W16957   1.802  12.505   3.712  0.0203  0.2490 -0.0264
 3544W        W16958   1.748   7.892   1.921  0.0465 -0.0256 -0.0088
 3545W        W16959   5.916   5.610  14.988  0.1004 -0.0813  0.0575
 3546W        W16960   4.373   0.682   1.354 -0.0687 -0.0650 -0.2526
 3547W        W16961  11.716   2.931  11.588  0.0162 -0.0437 -0.1915
 3548W        W16962  17.105  14.155  15.308  0.3195  0.0199  0.0054
 3549W        W16963   5.478   5.476   1.914  0.2393  0.3434 -0.0724
 3550W        W16964  11.611   6.148  15.464 -0.1929  0.3542 -0.1448
 3551W        W16965  14.436   7.058   4.444  0.0326  0.0377  0.1477
 3552W        W16966   0.705   2.792   5.476  0.0426  0.0741 -0.0795
 3553W        W16967   9.880  14.434   3.879 -0.0160  0.0333  0.0547
 3554W        W16968  14.928   4.156   1.873 -0.0004  0.1287 -0.1220
 3555W        W16969  13.277   0.920  14.129  0.1909 -0.3216  0.0266
 3556W        W16970   4.026  14.147   0.325 -0.2650 -0.1938 -0.3125
 3557W        W16971   7.097   4.239  13.622  0.2740  0.2633  0.4365
 3558W        W16972   7.263   3.565  13.719  0.1052 -0.1386 -0.2566
 3559W        W16973   5.430   1.517  16.574 -0.0153  0.0583 -0.2175
 3560W        W16974   4.398  10.481  11.796 -0.0835  0.1357 -0.0998
 3561W        W16975   7.330  15.482   0.699 -0.1913 -0.3117  0.0499
 3562W        W16976   1.772  13.558   2.643  0.1876  0.2489  0.3097
 3563W        W16977  13.643  17.113  11.780 -0.1106 -0.1731  0.0761
 3564W        W16978   3.645  11.040  13.145  0.2606 -0.0604 -0.1088
 3565W        W16979   2.741  17.065  14.488  0.1114 -0.0566 -0.0537
 3566W        W16980   9.107  10.318   5.032  0.1033  0.0219  0.0057
 3567W        W16981  15.353   4.341   1.753  0.0400 -0.0570 -0.0270
 3568W        W16982   9.208   2.831  14.083 -0.1475  0.1002 -0.0714
 3569W        W16983  10.249  15.695  16.553  0.1897 -0.1969 -0.0181
 3570W        W16984   0.180  11.541   6.213  0.1632  0.0956  0.1083
 3571W        W16985  15.916   9.191  10.807 -0.2866  0.0984  0.2578
 3572W        W16986   6.259   3.849  16.336 -0.3116  0.1471  0.0688
 3573W        W16987   3.913  12.810   5.210 -0.2047 -0.1751  0.0448
 3574W        W16988  17.882   6.298  11.634  0.2722  0.0544 -0.0438
 3575W        W16989  11.510   0.445   4.325 -0.0630 -0.0418 -0.1629
 3576W        W16990  17.618  13.614   5.315  0.0969  0.2084  0.5626
 3577W        W16991  17.804  13.647  15.923  0.2453  0.0813 -0.0193
 3578W        W16992  17.388  17.889   1.150  0.2644 -0.0103  0.1052
 3579W        W16993  14.972  14.624   3.552  0.0517 -0.2994 -0.1828
 3580W        W16994   3.678   6.917  15.465 -0.0011  0.1436  0.0524
 3581W        W16995   3.546   9.351   0.506 -0.1210 -0.0824  0.1936
 3582W        W16996   1.962  11.158  12.838 -0.1587 -0.2068 -0.0659
 3583W        W16997   6.788  15.886  15.969 -0.2717  0.1974  0.3071
 3584W        W16998  12.754  14.585   5.424  0.1250  0.0443  0.0799
 3585W        W16999  17.162   3.706   6.636 -0.0489  0.1824 -0.0454
 3586W        W17000   9.179  16.947   5.101  0.0118 -0.1788  0.0923
 3587W        W17001  12.909  14.542  15.206 -0.3264 -0.2028  0.3651
 3588W        W17002   3.464   6.841   1.032 -0.2771 -0.0111  0.3304
 3589W        W17003  12.077  16.513   2.281 -0.0386 -0.2340  0.0182
 3590W        W17004   6.649  14.806  10.883  0.2735  0.1619 -0.0714
 3591W        W17005   6.784  15.281  13.916  0.1334 -0.1693  0.1891
 3592W        W17006   1.760  12.496  11.287 -0.4260  0.1570  0.2323
 3593W        W17007  17.863  16.119   2.328  0.1494  0.1310  0.0971
 3594W        W17008   8.973   2.216  10.458 -0.1286 -0.2440  0.1472
 3595W        W17009  11.680  10.438  14.985  0.3326  0.3690  0.1966
 3596W        W17010   9.006   2.181   5.569  0.4228 -0.1268 -0.0008
 3597W        W17011   3.969  14.565  15.032  0.0611 -0.0277  0.0334
 3598W        W17012   6.762   8.153   0.315 -0.0839 -0.2171 -0.0618
 3599W        W17013  16.217   6.604  13.398  0.2639 -0.0703 -0.3330
 3600W        W17014  10.147   2.281   1.313 -0.3844  0.0621  0.2280
 3601W        W17015   9.714  16.250   4.658 -0.0916  0.0146 -0.0422
 3602W        W17016  13.685   6.545   1.028 -0.3207  0.0246  0.1776
 3603W        W17017  11.967   8.102  12.097 -0.0178  0.1870  0.0359
 3604W        W17018  12.734   4.161   4.144 -0.1507 -0.0069 -0.0761
 3605W        W17019   7.353   7.114  11.542 -0.2995  0.3061  0.0740
 3606W        W17020   9.621   9.921   1.586 -0.1027 -0.1818  0.1262
 3607W        W17021  15.635  16.290  12.847 -0.0827  0.0176 -0.0829
 3608W        W17022   9.396  13.135   1.718  0.1558 -0.0362 -0.0609
 3609W        W17023  16.075  12.223   4.689  0.5614 -0.0296 -0.2964
 3610W        W17024  13.849  14.474  15.189  0.0750  0.1215  0.1125
 3611W        W17025  17.637  11.119   3.621  0.1787 -0.3435  0.0312
 3612W        W17026  15.723   6.638  11.233  0.0954  0.0072  0.0868
 3613W        W17027  12.999  12.224   2.149  0.0675  0.2648  0.1102
 3614W        W17028  14.129   3.364  12.900 -0.0066  0.0329  0.0111
 3615W        W17029   9.483   2.003   5.369 -0.0878  0.0383 -0.1077
 3616W        W17030   8.346   6.189  14.501 -0.0463 -0.0908 -0.0014
 3617W        W17031  10.586  13.677  10.894  0.2392 -0.0685 -0.2851
 3618W        W17032  11.617  13.858   3.665 -0.1341  0.0214 -0.0388
 3619W        W17033  14.187   7.849   2.259 -0.0987  0.1140  0.0725
 3620W        W17034   7.258   8.363   3.920  0.0052 -0.3770 -0.1254
 3621W        W17035  14.675   2.663   2.328  0.0686  0.1039  0.0149
 3622W        W17036   2.407   5.974  11.894  0.0143  0.0485 -0.0818
 3623W        W17037  14.998   7.482  15.133 -0.0084 -0.1312  0.1427
 3624W        W17038   9.348   4.385  16.406 -0.1196  0.2659 -0.0948
 3625W        W17039   9.956   8.243   1.022  0.1109 -0.1706 -0.1029
 3626W        W17040   5.249  14.957  14.292 -0.1131 -0.1073 -0.1844
 3627W        W17041  15.219  11.437  10.300 -0.1638  0.2060 -0.2519
 3628W        W17042  13.014  10.007  15.283  0.2165 -0.1347 -0.3047
 3629W        W17043  10.691   0.035  14.291  0.0776  0.0779 -0.0927
 3630W        W17044  11.833   4.699  16.156  0.1455 -0.0741  0.1396
 3631W        W17045   9.841  15.825  12.556  0.0137 -0.2700  0.2521
 3632W        W17046  11.658   1.235   4.908 -0.0769 -0.1225 -0.3243
 3633W        W17047  12.222   8.411  10.395  0.1005  0.1131  0.0851
 3634W        W17048   0.217   9.719  12.063  0.0404 -0.1961  0.1345
 3635W        W17049   6.265   7.794   5.990  0.1881  0.0239 -0.0582
 3636W        W17050   8.345   6.184  10.805 -0.0365 -0.1869  0.0077
 3637W        W17051   7.130   1.952   4.523 -0.0181  0.0180 -0.2312
 3638W        W17052  17.926  13.546  10.688  0.5584  0.0361  0.1884
 3639W        W17053   5.498  11.154   2.566 -0.1587 -0.1465  0.1529
 3640W        W17054  17.718   9.526   1.652 -0.0292  0.3832 -0.0656
 3641W        W17055   7.389  14.880  11.151  0.0355 -0.2465 -0.4109
 3642W        W17056   6.468   9.268  13.687  0.1449 -0.1162 -0.0055
 3643W        W17057  17.293   0.056  15.046 -0.2050 -0.2461  0.1529
 3644W        W17058   4.577  17.597   1.231  0.2563  0.0540 -0.2375
 3645W        W17059  10.877   1.777  10.564 -0.1929  0.3180  0.2168
 3646W        W17060   1.194  12.025  12.759 -0.0189 -0.1057 -0.1027
 3647W        W17061  16.811   8.638   4.068 -0.0261  0.0372  0.0269
 3648W        W17062   5.253   0.229  15.993  0.2077  0.0153 -0.1136
 3649W        W17063   8.612   3.326   5.346 -0.0414 -0.1228 -0.2235
 3650W        W17064  13.352  13.096  11.773  0.0811  0.0702 -0.0476
 3651W        W17065   5.508  14.259  15.330 -0.2685 -0.0726  0.1050
 3652W        W17066  17.718   5.124  13.421  0.1303  0.0992  0.1595
 3653W        W17067  11.950   1.916   5.634 -0.1368 -0.1971  0.1015
 3654W        W17068  10.804   1.671  12.845 -0.0171 -0.1479  0.2177
 3655W        W17069   6.631   1.572  12.759  0.1642  0.1024 -0.1842
 3656W        W17070   0.458   5.251   2.174  0.1295 -0.2040 -0.0520
 3657W        W17071  17.595   4.312   1.313  0.1663 -0.0750  0.2844
 3658W        W17072   0.059   3.383  12.794  0.1883  0.0400 -0.1386
 3659W        W17073   2.835  16.030  11.493 -0.2663 -0.1970 -0.0154
 3660W        W17074  17.953  17.966   1.139 -0.0337 -0.2283 -0.0084
 3661W        W17075   6.023  13.616  10.428 -0.0467  0.1221  0.4365
 3662W        W17076   9.299  17.371  14.501 -0.0126 -0.1462 -0.5439
 3663W        W17077  17.255  11.373   4.812  0.1052  0.0470  0.0732
 3664W        W17078  14.826   0.677   1.965 -0.1756 -0.0051 -0.1759
 3665W        W17079   5.438  13.657  14.210  0.0300  0.0071  0.2138
 3666W        W17080   4.481   5.835  16.049 -0.1369 -0.4439  0.0158
 3667W        W17081   7.261  15.276   3.350  0.3541  0.1119 -0.1707
 3668W        W17082   6.687  16.253  14.156  0.0932 -0.0294 -0.1714
 3669W        W17083   1.413   1.299  15.800 -0.0860 -0.0067  0.0830
 3670W        W17084   1.491  10.061   3.120  0.1110  0.1226 -0.2037
 3671W        W17085  14.513   4.642   2.970 -0.2982 -0.0310 -0.2881
 3672W        W17086   6.563  13.818   1.482  0.0280 -0.0041  0.0699
 3673W        W17087   9.899   8.370   5.175 -0.0331  0.3021  0.2461
 3674W        W17088  14.827  16.584   1.378  0.1649  0.0721 -0.0801
 3675W        W17089   3.395  17.430   4.054 -0.0642  0.3788 -0.1577
 3676W        W17090  17.635   0.195  13.631 -0.1051 -0.0817 -0.0806
 3677W        W17091   6.082  15.816  15.277 -0.1478 -0.0244 -0.1836
 3678W        W17092  12.930   6.051  15.699  0.1402  0.0103 -0.1195
 3679W        W17093  10.654   0.683   3.038 -0.2819 -0.0492  0.0509
 3680W        W17094  10.140   0.705   5.457  0.1229 -0.1763  0.1821
 3681W        W17095  15.007  10.251   6.105 -0.1884  0.1263 -0.0287
 3682W        W17096   8.712   0.524  14.541  0.0408  0.0049  0.0002
 3683W        W17097   1.680  17.592   2.713 -0.0352 -0.1084 -0.0180
 3684W        W17098   5.706   0.899   3.577  0.0345 -0.0049 -0.0448
 3685W        W17099   5.029   5.326  12.457  0.2589  0.1196 -0.3212
 3686W        W17100  16.289  13.122  16.660  0.3344 -0.3017 -0.0534
 3687W        W17101   6.159  17.991   1.947 -0.1156  0.1587  0.2165
 3688W        W17102  16.781   1.069  15.565 -0.0962 -0.0607 -0.0591
 3689W        W17103   1.756   9.766   6.203 -0.1972 -0.1791 -0.2240
 3690W        W17104   7.882  11.985  11.237 -0.0582 -0.0963 -0.0807
 3691W        W17105  13.559   4.640   5.294  0.0791  0.1203 -0.2113
 3692W        W17106   5.017   6.812   3.617 -0.2632 -0.0222  0.1222
 3693W        W17107  14.742   9.563  14.056 -0.0856  0.0555  0.0737
 3694W        W17108   3.236  15.118   3.248  0.1513 -0.3584 -0.0320
 3695W        W17109   9.600   5.082   5.023  0.0137 -0.1167 -0.1234
 3696W        W17110   9.625   1.895   0.587  0.0955 -0.4171 -0.1056
 3697W        W17111  14.097  14.612   2.840  0.1537 -0.0736  0.2921
 3698W        W17112   3.643  13.802  11.533 -0.0469  0.1060  0.1031
 3699W        W17113   7.465  14.587  15.131 -0.2805  0.1944  0.1571
 3700W        W17114  11.215  14.539  14.216 -0.2933  0.0087  0.1446
 3701W        W17115  10.339   6.693  11.425  0.4196 -0.0091 -0.6165
 3702W        W17116  11.125   9.679   0.351 -0.1109  0.0060 -0.0023
 3703W        W17117   4.077  17.741  10.559 -0.2274  0.3766 -0.2086
 3704W        W17118  16.332  15.998  16.140 -0.1204  0.1909  0.0182
 3705W        W17119  15.448  12.550  11.848  0.1699  0.2421 -0.3167
 3706W        W17120  13.071   8.580   0.139  0.1565  0.0457  0.2273
 3707W        W17121   6.171  13.786   3.350  0.0275 -0.2452 -0.2376
 3708W        W17122   3.778   4.688   3.902  0.0514 -0.2283  0.0173
 3709W        W17123   5.111   8.409  11.584  0.0308 -0.0230 -0.3646
 3710W        W17124   6.793   5.139   3.942 -0.1070 -0.0360  0.1305
 3711W        W17125   8.333   0.954  15.795 -0.1345  0.0012  0.2321
 3712W        W17126  14.546  11.807  15.443 -0.3566  0.0264  0.0610
 3713W        W17127   5.601  17.540  12.424  0.0465  0.3504 -0.1193
 3714W        W17128   0.050   0.947   1.904  0.4140 -0.1111 -0.1408
 3715W        W17129  13.778   2.232   1.277 -0.0642  0.2972  0.0664
 3716W        W17130   0.815  12.288  16.177  0.0949 -0.3460  0.0509
 3717W        W17131   7.645   8.298   3.562 -0.0859  0.3751 -0.2734
 3718W        W17132   7.728  16.573  11.248 -0.0540  0.0388  0.1065
 3719W        W17133   1.982   8.131   3.694 -0.1412  0.1836  0.0876
 3720W        W17134  10.691  13.182   0.305 -0.0487  0.1168  0.0345
 3721W        W17135   0.848  10.677   3.413  0.0049  0.0687  0.1427
 3722W        W17136   2.413  12.233   4.588 -0.1366  0.1206  0.3601
 3723W        W17137   8.497  11.811  13.642  0.0051  0.0085  0.1794
 3724W        W17138  13.249  17.909   4.900 -0.0700  0.1701  0.0722
 3725W        W17139  13.364   8.186  14.098  0.1431  0.1174 -0.1603
 3726W        W17140  14.103   2.669   5.468 -0.0414 -0.1005 -0.0061
 3727W        W17141  15.129  16.039  11.216 -0.1292 -0.0118 -0.4145
 3728W        W17142   8.572  16.655   2.338  0.1284  0.1498 -0.2028
 3729W        W17143  16.982   4.808  13.385  0.1782  0.1744 -0.0947
 3730W        W17144  15.691  15.760   2.703  0.0711 -0.4086 -0.1418
 3731W        W17145  10.309   3.850  10.632 -0.0521  0.2918 -0.1879
 3732W        W17146   4.911   5.056  11.936  0.0416 -0.1900 -0.0183
 3733W        W17147   3.585  10.080   1.547 -0.0030 -0.1360  0.2009
 3734W        W17148  10.367   3.878  11.931 -0.2835  0.0473  0.3779
 3735W        W17149   3.970  15.187   1.017  0.1815 -0.0239  0.1061
 3736W        W17150  16.190   6.991  12.686 -0.1330  0.2070  0.1266
 3737W        W17151   5.039   3.295  11.643 -0.1942  0.0797 -0.0325
 3738W        W17152  13.020  10.941   5.681 -0.1719 -0.1216  0.0914
 3739W        W17153   3.215  12.911  15.417 -0.0033  0.0063 -0.0169
 3740W        W17154   8.369   4.704  16.230  0.1231  0.2958  0.2645
 3741W        W17155   2.908   9.336  11.648 -0.0234  0.2423  0.0924
 3742W        W17156  17.400   7.212  16.672  0.0306  0.2148 -0.0578
 3743W        W17157   8.270  17.324   2.605  0.1200 -0.0453  0.3475
 3744W        W17158   8.058   2.151   3.218  0.1204  0.0170  0.0591
 3745W        W17159  13.829  18.038  10.004 -0.1775  0.2408  0.0413
 3746W        W17160  17.301   4.730   6.664  0.1200  0.1512 -0.0962
 3747W        W17161   5.238  17.560   4.105 -0.1382  0.0626  0.1399
 3748W        W17162   4.864  17.138  11.771 -0.2277 -0.1670  0.3902
 3749W        W17163  17.517   3.316   5.677  0.1885 -0.1757 -0.0299
 3750W        W17164  13.077   9.366   0.296 -0.2694 -0.0976  0.3531
 3751W        W17165   2.672  17.278  11.497 -0.2408  0.2209 -0.0396
 3752W        W17166  16.010  11.097  14.249  0.0008  0.0007 -0.0046
 3753W        W17167  10.657   6.517  16.540 -0.3106  0.1717 -0.0278
 3754W        W17168   8.409   0.757   2.990  0.0688  0.1710  0.0080
 3755W        W17169   6.839  14.766  14.780  0.0180  0.3016  0.2305
 3756W        W17170   0.064  18.023  15.384 -0.0196  0.0005  0.1420
 3757W        W17171  16.464  17.195  10.312 -0.2929 -0.0911 -0.2344
 3758W        W17172  16.004  14.743   5.532  0.0637  0.0318 -0.2077
 3759W        W17173   0.946   0.030  11.203  0.1647 -0.2034 -0.0749
 3760W        W17174  17.260  14.891   2.375  0.3843 -0.1338 -0.2563
 3761W        W17175   2.863   0.419  10.626  0.1265  0.0183  0.0908
 3762W        W17176   5.542   5.561  11.594  0.0432  0.2190  0.1102
 3763W        W17177  15.703   5.560   5.296  0.0522 -0.0443  0.3146
 3764W        W17178  15.834   4.466   6.533  0.2048 -0.2713  0.0370
 3765W        W17179  11.430  13.031  15.016  0.1056 -0.2153  0.1762
 3766W        W17180   4.913   1.756   4.398  0.2456 -0.1550 -0.0049
 3767W        W17181   6.863  16.880  16.535 -0.0933 -0.0627 -0.1684
 3768W        W17182  12.241   3.686   1.123  0.0583  0.0687 -0.1060
 3769W        W17183   3.726  17.203  11.650  0.0134  0.0773 -0.0298
 3770W        W17184   6.261  10.387   5.857 -0.1120 -0.1213  0.1059
 3771W        W17185   8.959  17.606   5.948  0.1674  0.0088  0.2646
 3772W        W17186   4.201  12.821  15.967  0.1715 -0.0560  0.0374
 3773W        W17187   0.279   7.751   1.814 -0.1960 -0.0117 -0.1710
 3774W        W17188   1.458   0.845   3.239  0.1745  0.2197  0.0539
 3775W        W17189   2.976   3.437   6.215 -0.0050 -0.3559 -0.0174
 3776W        W17190   8.582  17.681  12.040 -0.1495 -0.0627  0.0706
 3777W        W17191   7.059  16.238  13.614  0.1395  0.2549  0.1348
 3778W        W17192  13.517   9.397   2.105 -0.0845 -0.2154 -0.0918
 3779W        W17193  17.446   6.279  13.893 -0.1256  0.0917 -0.0923
 3780W        W17194   2.434  13.111  15.680 -0.0916  0.1326  0.0982
 3781W        W17195   9.868   8.829  13.549 -0.0707 -0.2283 -0.0223
 3782W        W17196  14.319  15.219  15.477 -0.1500 -0.0198 -0.1127
 3783W        W17197   7.912   3.810   5.336 -0.5660 -0.0547  0.1466
 3784W        W17198  16.267  16.990  11.242  0.2773  0.3014  0.0322
 3785W        W17199  14.512  13.784   1.779 -0.0334 -0.1295  0.2603
 3786W        W17200   4.257   7.097  15.886  0.0819 -0.0945 -0.0665
 3787W        W17201  15.896   5.582  16.554 -0.0513  0.2286 -0.1543
 3788W        W17202  17.696   9.314   6.180 -0.1589  0.2439 -0.3499
 3789W        W17203   8.629   5.564  13.819  0.0946  0.1938 -0.1818
 3790W        W17204   7.933   3.537  15.074  0.1953 -0.0093 -0.3023
 3791W        W17205   3.600   8.215   4.042  0.1675  0.0632  0.1758
 3792W        W17206  16.349  10.213  16.421  0.2384 -0.1126  0.0026
 3793W        W17207   9.016  17.993  12.486  0.0605 -0.0628 -0.0599
 3794W        W17208  17.373   5.171   1.411  0.0288 -0.3305  0.1400
 3795W        W17209  11.623   8.264   4.648 -0.2082 -0.2594 -0.0285
 3796W        W17210  10.622   7.482  10.731  0.0239  0.1965  0.2540
 3797W        W17211  13.335   9.337   4.070  0.0364  0.0788 -0.0008
 3798W        W17212  11.259   5.008   5.206  0.0966  0.1995 -0.1824
 3799W        W17213   3.244   0.462  14.489 -0.0896  0.0491  0.0178
 3800W        W17214  13.181   6.278  13.960 -0.2489 -0.0001 -0.3440
 3801W        W17215  14.181   8.526  14.909  0.2487 -0.3223  0.0438
 3802W        W17216   1.167  11.462   0.514  0.0513  0.2320  0.3569
 3803W        W17217   5.149   7.746   4.004 -0.1240 -0.2538  0.1841
 3804W        W17218   5.808  15.392   5.213 -0.0304 -0.2905 -0.3086
 3805W        W17219  14.956   3.655   0.123 -0.0979  0.5694 -0.2245
 3806W        W17220  14.150  11.305   4.190  0.0394  0.1975  0.1086
 3807W        W17221   5.819  12.121   0.647  0.0325  0.2474  0.0649
 3808W        W17222  13.345   7.622  12.936  0.3408 -0.1294  0.0037
 3809W        W17223   7.622  14.274  14.313  0.0887 -0.0524 -0.0875
 3810W        W17224  17.067  17.561   1.401  0.0140 -0.3907  0.1315
 3811W        W17225  13.480  13.034  11.294  0.2101 -0.0930  0.0654
 3812W        W17226   6.346  10.687  15.069 -0.4346 -0.1603  0.0362
 3813W        W17227  16.788  15.216  13.714 -0.0334  0.1205  0.1819
 3814W        W17228   9.332  11.895  13.996 -0.0083 -0.0345 -0.1009
 3815W        W17229   1.989   3.329   5.340 -0.1701  0.1207  0.2119
 3816W        W17230  16.996   7.703  15.854  0.3811  0.0342 -0.1478
 3817W        W17231  15.095   0.901   2.789  0.0392  0.3361 -0.0344
 3818W        W17232  17.786  13.203  14.369 -0.0166  0.4134  0.3482
 3819W        W17233   1.129   5.762  16.499  0.1524  0.1850 -0.0589
 3820W        W17234   5.986  15.774  12.303 -0.1044 -0.0974 -0.1733
 3821W        W17235  14.317  17.694   1.303  0.0109  0.2343  0.2009
 3822W        W17236   4.499  16.669  14.790  0.0114 -0.0736  0.2022
 3823W        W17237  12.730  15.739  14.495  0.2205  0.0473  0.1164
 3824W        W17238  10.720  17.410  13.311 -0.1239 -0.0474 -0.2851
 3825W        W17239   7.164   5.363   2.408  0.1433 -0.0847  0.2203
 3826W        W17240  13.551   7.233   3.526 -0.1247  0.1964  0.2245
 3827W        W17241   2.278   9.101  13.430 -0.1970 -0.1726 -0.0884
 3828W        W17242   3.830  10.312   4.292  0.0191  0.1073 -0.1551
 3829W        W17243  17.672  17.750   1.601 -0.1763  0.1401 -0.0291
 3830W        W17244  14.400   5.324   0.978 -0.0982 -0.0711 -0.3178
 3831W        W17245  12.393   6.599  13.322 -0.2312  0.0443  0.0306
 3832W        W17246   5.745  13.344   0.731 -0.0341  0.0604 -0.4036
 3833W        W17247  17.377   8.508   4.781  0.0613  0.0320 -0.0395
 3834W        W17248  16.654   6.893   1.893  0.1289 -0.0150  0.1098
 3835W        W17249   5.899  17.053  15.452 -0.2265 -0.0893  0.0841
 3836W        W17250   8.295  16.021  14.631 -0.0257  0.2467 -0.1867
 3837W        W17251   0.741  16.308  13.517  0.1032 -0.0573 -0.1113
 3838W        W17252  14.257   1.130  11.503 -0.0322  0.1100 -0.1542
 3839W        W17253  11.774   8.645  13.496  0.0771 -0.3128 -0.0248
 3840W        W17254   8.614   8.235  10.055  0.0226  0.2048 -0.1574
 3841W        W17255  11.132   4.118   4.710 -0.1905 -0.3513  0.2723
 3842W        W17256  10.627   5.597  12.872 -0.1670  0.0583  0.0413
 3843W        W17257  13.428   7.295  14.666  0.1022 -0.3900  0.2444
 3844W        W17258  16.422  14.336  12.592 -0.1739 -0.1082  0.0323
 3845W        W17259   8.408   5.665   5.245  0.1271  0.0680  0.1101
 3846W        W17260  10.255   2.726   4.138  0.2567  0.0217  0.4280
 3847W        W17261   7.217   1.104   0.758 -0.0150 -0.3282  0.5309
 3848W        W17262   6.884  16.611  14.454  0.2938 -0.1409 -0.1319
 3849W        W17263  17.132   8.459  14.322  0.0114  0.1986 -0.1149
 3850W        W17264   2.907  14.161   5.199  0.0098  0.2337 -0.0994
 3851W        W17265   4.605  10.537  15.444  0.0543  0.0803  0.3610
 3852W        W17266  14.567   6.683   5.408  0.0140 -0.1558 -0.1160
 3853W        W17267   1.245   1.311   1.626 -0.0965 -0.4577  0.1922
 3854W        W17268   7.365   3.330   5.796 -0.3688  0.0146  0.0836
 3855W        W17269   2.805   1.573   2.778 -0.1093 -0.1830  0.1057
 3856W        W17270  12.101   8.006  14.250  0.2187 -0.0321  0.4050
 3857W        W17271  16.075   2.023   5.654  0.2608  0.1030  0.1959
 3858W        W17272   8.060   8.895  15.216  0.2445 -0.3427  0.2658
 3859W        W17273  10.232  16.106   4.721 -0.2327 -0.1362 -0.1482
 3860W        W17274   4.050   7.244  13.912 -0.2086 -0.3706 -0.2107
 3861W        W17275   6.116   4.576  12.410  0.1758  0.1527 -0.1631
 3862W        W17276  10.518  17.872  13.249 -0.0002  0.1918  0.0428
 3863W        W17277  13.831   5.950  14.693 -0.0432  0.0285 -0.0969
 3864W        W17278  10.698   4.380   0.638 -0.1678 -0.0919 -0.2877
 3865W        W17279  13.255   6.589   4.107  0.1758 -0.2047  0.0600
 3866W        W17280   6.102  12.490   1.597  0.0047  0.1123  0.1319
 3867W        W17281   1.606   3.732  15.453 -0.0526  0.0409  0.1488
 3868W        W17282  16.313  10.712  11.355 -0.1214  0.1141 -0.0512
 3869W        W17283   3.728   9.757  13.477  0.0271  0.1006  0.0409
 3870W        W17284   6.587  16.857   3.997  0.3345  0.0416  0.0596
 3871W        W17285   5.975  14.282  13.291 -0.0913 -0.2261 -0.1203
 3872W        W17286  15.491   2.295   6.315 -0.0406 -0.0438  0.1203
 3873W        W17287  15.482  17.239  10.298 -0.1379  0.2653 -0.0992
 3874W        W17288  16.169  17.795  15.729  0.1438 -0.3757  0.0384
 3875W        W17289  17.872  12.518   4.156 -0.0423  0.0643 -0.1604
 3876W        W17290   5.182   6.970   0.625 -0.2087 -0.0873  0.1911
 3877W        W17291   0.507   4.884  14.105  0.0112  0.1314 -0.4060
 3878W        W17292   2.975  16.533   5.655  0.1237  0.3237 -0.0872
 3879W        W17293  15.791   8.777  15.973  0.0284 -0.1939 -0.1401
 3880W        W17294  10.885   9.547   2.510 -0.1278 -0.3225  0.1706
 3881W        W17295   9.942   5.727  12.227 -0.0242 -0.1648  0.0244
 3882W        W17296   2.906   6.617   2.008  0.0254  0.1634  0.0638
 3883W        W17297   9.710  16.493  11.349 -0.1010 -0.3043 -0.1742
 3884W        W17298  12.647   2.882   2.300  0.0418 -0.3494 -0.0958
 3885W        W17299   2.288   6.663  10.294  0.2189  0.0879 -0.1871
 3886W        W17300  17.030   3.507  13.633  0.1651  0.1591 -0.0518
 3887W        W17301  11.460  17.095   2.823  0.0899 -0.0514  0.1132
 3888W        W17302  13.515   3.547   3.876 -0.2112  0.4376 -0.2538
 3889W        W17303   6.674  12.981  14.049 -0.0677  0.1787  0.2453
 3890W        W17304   2.980  17.075   0.967 -0.3433 -0.1113 -0.1303
 3891W        W17305   6.805  10.940   3.427  0.2541 -0.0877 -0.1177
 3892W        W17306   0.514  13.241  16.361 -0.0578 -0.0905 -0.3025
 3893W        W17307   7.810  11.604   0.467  0.0292  0.2583  0.2252
 3894W        W17308   7.226  17.458   0.458  0.0733  0.0176  0.0478
 3895W        W17309  14.359  15.062   1.616 -0.2825  0.1882 -0.1090
 3896W        W17310  18.015   5.014   3.815  0.0456  0.0083 -0.1141
 3897W        W17311  15.319   5.007  16.302  0.1716  0.1524  0.0951
 3898W        W17312  17.577   3.863   6.434  0.0967 -0.3790 -0.1646
 3899W        W17313   7.217   3.303   3.220 -0.3358 -0.3718 -0.2451
 3900W        W17314  10.703   2.220  15.575  0.1974  0.1080 -0.1937
 3901W        W17315  16.909  10.137  14.635 -0.1713 -0.1254  0.1448
 3902W        W17316   0.731  16.055   1.223  0.0384  0.1450 -0.2089
 3903W        W17317   7.466   9.147   3.905 -0.1439 -0.1655 -0.1315
 3904W        W17318  12.584  13.023   2.763 -0.0877 -0.1857  0.2605
 3905W        W17319   4.141  10.895  15.424  0.0744  0.0389 -0.1348
 3906W        W17320  17.188   4.467   3.386  0.0414 -0.1930 -0.2137
 3907W        W17321  11.746   0.797   2.212 -0.2082 -0.1246 -0.1106
 3908W        W17322  10.945   2.992  15.284 -0.2197  0.1720 -0.0844
 3909W        W17323  11.153  15.778  12.083 -0.0442  0.0896 -0.0316
 3910W        W17324   1.407   0.750   0.054 -0.2017 -0.0408  0.0977
 3911W        W17325   4.253  10.614   0.413  0.0742  0.2456 -0.0841
 3912W        W17326  10.690   5.744  15.280 -0.0327 -0.3148  0.0983
 3913W        W17327   5.628  12.038   3.936  0.2209 -0.4325  0.0010
 3914W        W17328   2.381  17.313   5.181  0.0732  0.0160  0.0343
 3915W        W17329   7.012   1.298   2.423 -0.0812  0.0142 -0.1230
 3916W        W17330   5.428  11.633   3.742  0.0467  0.0853  0.0081
 3917W        W17331  11.908   9.049   0.504  0.1100 -0.1378  0.2310
 3918W        W17332   3.302  10.245   3.418 -0.0325 -0.2090 -0.1799
 3919W        W17333   6.733   8.808   2.827  0.1166 -0.2296  0.1991
 3920W        W17334   5.331   8.755  14.327 -0.0675 -0.1042  0.2177
 3921W        W17335  11.106   8.574   0.051 -0.0947  0.0263 -0.0301
 3922W        W17336   5.225   3.021   2.759  0.0923 -0.1835  0.0941
 3923W        W17337  13.565   1.796  13.865  0.0530 -0.1091  0.2007
 3924W        W17338   1.420   3.250  15.250  0.1842 -0.0935  0.0867
 3925W        W17339   9.552   5.857  10.828 -0.1241 -0.0273  0.1392
 3926W        W17340  10.892  15.448   2.990  0.1473  0.2779 -0.1466
 3927W        W17341   8.898  13.264   9.904  0.0285 -0.0832 -0.3828
 3928W        W17342  10.652   0.274  12.232 -0.1371  0.3942  0.0276
 3929W        W17343  12.990   9.916   2.037  0.0006  0.1865 -0.0381
 3930W        W17344  17.524   5.322  15.511  0.0843 -0.1740 -0.0769
 3931W        W17345  14.641  17.895   3.746  0.2257  0.2283  0.1988
 3932W        W17346   3.907  11.589  12.422 -0.0826 -0.3259 -0.3554
 3933W        W17347   2.716  11.975   4.914  0.1542 -0.0008 -0.2165
 3934W        W17348   6.937   6.300   2.104  0.0124  0.3356  0.1033
 3935W        W17349  15.260  14.303   0.131 -0.0438 -0.2008 -0.3279
 3936W        W17350   8.196  13.671   1.696  0.0405  0.0637 -0.1728
 3937W        W17351  10.826   5.247  12.359  0.0589 -0.0148 -0.0531
 3938W        W17352   7.242   6.726  13.200 -0.1525 -0.0161 -0.1113
 3939W        W17353   5.829  17.527   3.497 -0.1231  0.0536  0.0121
 3940W        W17354   3.599   1.816   6.469  0.0948  0.1409 -0.2702
 3941W        W17355  12.993  10.924  14.844  0.4227  0.0206  0.0777
 3942W        W17356  17.009   3.860  15.401 -0.1813 -0.0019  0.3003
 3943W        W17357  10.774   9.857  11.985  0.0831  0.2245  0.2161
 3944W        W17358  13.038   0.368  16.259 -0.0572 -0.0127 -0.0810
 3945W        W17359   5.250   2.761   4.359 -0.0332 -0.2755  0.0594
 3946W        W17360   1.751  10.283   3.581  0.1036  0.0030 -0.0154
 3947W        W17361   6.195  10.618  15.607  0.0620  0.3191  0.1370
 3948W        W17362   1.417  10.502   1.123 -0.2180  0.1852  0.2568
 3949W        W17363  13.037   1.159   0.864 -0.1733 -0.0925  0.0071
 3950W        W17364  15.272   3.585  15.317 -0.0126  0.1177 -0.1718
 3951W        W17365  10.646  10.251   0.624 -0.0308  0.2762  0.0842
 3952W        W17366   7.736  16.314   1.891  0.0209 -0.0962 -0.2461
 3953W        W17367   8.776   3.568  15.166 -0.1685  0.1184 -0.0982
 3954W        W17368   7.200   6.905   0.467 -0.3712  0.0798  0.2970
 3955W        W17369   7.698   7.646   2.447  0.1260 -0.0820 -0.3152
 3956W        W17370   1.351   8.335  12.723 -0.2465 -0.2144 -0.0294
 3957W        W17371  10.134   1.045  15.529 -0.0970 -0.1263 -0.1557
 3958W        W17372   1.842  16.484   4.394  0.0760 -0.0762  0.5682
 3959W        W17373   5.043  12.135   2.382  0.0641  0.0818 -0.0252
 3960W        W17374   3.453   0.402   5.966  0.0154  0.0428  0.0610
 3961W        W17375  15.191   9.995   2.970  0.0393 -0.0603  0.3308
 3962W        W17376  11.134  16.503  15.704 -0.1814  0.0683 -0.0156
 3963W        W17377   9.497  11.638  16.067  0.1194  0.4346 -0.2924
 3964W        W17378   6.161   8.888  12.306 -0.0147  0.0694 -0.0028
 3965W        W17379   0.193   6.102   1.865 -0.1933 -0.0014  0.0908
 3966W        W17380   5.898  11.961   1.600  0.0149 -0.1796  0.5463
 3967W        W17381  12.914  16.374  11.358  0.2223  0.0348  0.0698
 3968W        W17382  16.160   1.077   5.022 -0.2293  0.2819  0.1713
 3969W        W17383   3.758  14.101   2.674 -0.1377  0.1304 -0.2585
 3970W        W17384   0.628  10.110  14.870  0.2034  0.1951  0.3152
 3971W        W17385  17.543  12.616  15.601  0.1646  0.1182  0.0708
 3972W        W17386  17.814   5.640  10.998 -0.1466  0.0283 -0.0972
 3973W        W17387  16.419  13.915  13.893 -0.4449 -0.2590 -0.1361
 3974W        W17388  15.335   8.088  11.182  0.2118  0.1842 -0.1877
 3975W        W17389   5.026   4.909   5.433 -0.1453  0.2039  0.0290
 3976W        W17390   2.312   7.931  16.233 -0.1412 -0.0467 -0.2108
 3977W        W17391  10.126  10.447  11.532  0.1666  0.2692  0.3290
 3978W        W17392   2.439   5.419  13.775 -0.2448 -0.0058  0.2081
 3979W        W17393   1.815   3.673   3.931  0.0438 -0.0078  0.0172
 3980W        W17394   3.630  11.427  16.471 -0.1160 -0.1591 -0.0352
 3981W        W17395   4.237  14.470   1.769  0.2263  0.1744  0.2688
 3982W        W17396  10.229   9.489  14.865  0.1528  0.1695  0.1523
 3983W        W17397  14.010   1.091  10.630 -0.0257 -0.0822  0.0271
 3984W        W17398   8.234   3.083  11.117 -0.0799 -0.1679 -0.0656
 3985W        W17399  10.993   4.563  12.836  0.1557 -0.1458  0.0840
 3986W        W17400  11.328  18.016   6.295  0.1957  0.1010 -0.0142
 3987W        W17401  13.590  13.838   5.620 -0.2449 -0.0408  0.3106
 3988W        W17402   1.769  17.645  16.662 -0.0440  0.0121 -0.0061
 3989W        W17403   4.321   2.334   1.164  0.0724 -0.5365  0.4141
 3990W        W17404   7.429  17.018  16.333 -0.0328  0.2436 -0.1277
 3991W        W17405  12.072  15.967   3.727  0.0862  0.1739  0.0774
 3992W        W17406   6.833  10.242  12.060 -0.1448  0.0273 -0.0132
 3993W        W17407  16.482  13.102   2.448  0.2479  0.3557  0.2448
 3994W        W17408  12.982  16.985  14.496 -0.1824  0.0172 -0.3519
 3995W        W17409  14.285   2.987   2.490 -0.1243  0.0434 -0.0803
 3996W        W17410   1.967   1.896  15.497 -0.0084 -0.1120 -0.0625
 3997W        W17411   0.198  14.658   0.195 -0.1325 -0.1935 -0.1423
 3998W        W17412  11.529   0.835   3.356  0.1577  0.0813  0.0596
 3999W        W17413  17.040  14.919  10.247  0.3158  0.0128 -0.1637
 4000W        W17414   0.260  17.014  13.993 -0.0897  0.2704  0.2611
 4001W        W17415   1.013   7.481   2.489 -0.0931  0.0728  0.1960
 4002W        W17416   2.989   8.017   4.477 -0.0981  0.0143 -0.1516
 4003W        W17417  10.065   2.802  10.799  0.1388  0.3340  0.0724
 4004W        W17418  17.143   9.422  11.400 -0.0140  0.1476 -0.1546
 4005W        W17419   3.564   8.288   3.091 -0.1463  0.0325 -0.0668
 4006W        W17420  15.523   0.140   2.909 -0.1577  0.1345  0.1918
 4007W        W17421  15.488   0.223  11.311  0.0715  0.3305 -0.3305
 4008W        W17422  15.692   0.733  15.270  0.0490  0.1664  0.2036
 4009W        W17423   6.550   9.469  11.760 -0.1803 -0.0849 -0.3813
 4010W        W17424   7.862   3.244  15.656  0.1344  0.2888 -0.1316
 4011W        W17425  13.208   2.847   0.415  0.1649 -0.0824 -0.1585
 4012W        W17426   7.629   5.087  14.009 -0.0726  0.0781 -0.1939
 4013W        W17427   3.419   3.360   2.545  0.1755  0.0129  0.0883
 4014W        W17428  15.976   1.375  15.378  0.3108 -0.0611  0.0925
 4015W        W17429   4.832   7.692   3.574  0.1790 -0.0718  0.2324
 4016W        W17430  11.945   4.229   4.386 -0.1114  0.1743  0.3427
 4017W        W17431   7.031   2.420   0.270 -0.1154  0.3297  0.1872
 4018W        W17432  11.546  15.234   5.183  0.0656 -0.0158 -0.2409
 4019W        W17433   2.942  15.333  13.228 -0.4909 -0.0035  0.0229
 4020W        W17434  10.873   9.857   2.932  0.0637  0.2577  0.1219
 4021W        W17435   9.026  12.084  15.819  0.0015  0.0992 -0.0879
 4022W        W17436  12.361  12.627   0.217 -0.0002 -0.0597 -0.2794
 4023W        W17437  13.385   2.414   2.527  0.0925  0.0553 -0.0226
 4024W        W17438  14.561  17.699   4.274 -0.1689  0.0039 -0.3508
 4025W        W17439   9.977   9.848   2.958 -0.3382  0.2038 -0.5310
 4026W        W17440  13.110   4.095   1.900  0.3921 -0.2389 -0.0992
 4027W        W17441   0.333  10.730  11.321 -0.0729  0.0002  0.4223
 4028W        W17442   7.332   7.815   5.387  0.0075  0.1833 -0.1346
 4029W        W17443  10.389   5.066   0.447  0.0006  0.1591 -0.4192
 4030W        W17444   9.051   4.673  12.039  0.0898 -0.0107  0.2977
 4031W        W17445  13.213  14.794  14.847  0.0671 -0.0052  0.3247
 4032W        W17446   0.390  13.763   6.154  0.0644  0.0545  0.2162
 4033W        W17447  13.267   4.254   5.588  0.1996 -0.1484  0.0240
 4034W        W17448   3.196   4.201   1.481 -0.1092  0.0815  0.1039
 4035W        W17449   6.548   2.837  12.273 -0.1504 -0.1740  0.0124
 4036W        W17450   0.153  14.146  14.801  0.1643  0.0841  0.0535
 4037W        W17451   3.734   0.860   4.263  0.2088  0.0728  0.1220
 4038W        W17452   4.206  16.901  15.866 -0.0072  0.0118  0.1906
 4039W        W17453   5.713  13.277  14.213 -0.1936  0.0454 -0.0212
 4040W        W17454   0.230   9.019   2.165 -0.1054 -0.2308  0.0769
 4041W        W17455  10.253  14.999  13.911  0.2329  0.0502  0.1207
 4042W        W17456   7.776  15.798  11.856 -0.2746  0.1575  0.0268
 4043W        W17457   0.095  13.333   2.853 -0.0386  0.3188  0.0398
 4044W        W17458  16.813  17.916   5.265  0.2185 -0.0300 -0.0042
 4045W        W17459  12.757   2.593   0.787  0.0178  0.2314  0.1509
 4046W        W17460   1.057   3.232  14.859 -0.0821 -0.0638 -0.1917
 4047W        W17461  15.723   4.906   0.961 -0.1252  0.0033 -0.0673
 4048W        W17462  11.534   8.705  16.462  0.0004 -0.0593  0.0367
 4049W        W17463  10.716   9.299   4.416  0.2847  0.0827  0.1304
 4050W        W17464   4.460  15.939  15.618 -0.2218 -0.0997  0.1526
 4051W        W17465   3.662   9.218  12.894  0.1092 -0.1682 -0.1283
 4052W        W17466  13.032  11.803  15.189 -0.0579  0.0730  0.0688
 4053W        W17467   1.495  10.543  12.445 -0.1223  0.1315 -0.0048
 4054W        W17468  11.016   0.340  11.864  0.1361 -0.0820 -0.0826
 4055W        W17469  17.388  14.685  11.788 -0.0115 -0.1554  0.0158
 4056W        W17470   9.023   0.856   4.277  0.1182  0.1204  0.0985
 4057W        W17471   2.096   4.509   3.353 -0.2541  0.3320 -0.0118
 4058W        W17472   5.008  17.217  14.095  0.1811  0.2421 -0.0241
 4059W        W17473   8.068   6.542   2.274 -0.1096  0.3136 -0.1803
 4060W        W17474   0.028  17.561   4.894 -0.0253 -0.1828 -0.1445
 4061W        W17475  15.008  15.435   1.658  0.1075  0.0430 -0.3442
 4062W        W17476  15.758   2.257  14.988  0.1208  0.1238 -0.0165
 4063W        W17477  14.643  10.311   4.087 -0.0362  0.1816  0.1718
 4064W        W17478  14.016  18.000   5.062  0.0370  0.0357  0.0720
 4065W        W17479   3.300  17.241   0.010  0.2673  0.1122 -0.0916
 4066W        W17480  17.666   4.712   5.173 -0.1479  0.2617 -0.0244
 4067W        W17481   8.175   6.965  14.837 -0.5101  0.2560 -0.2785
 4068W        W17482  13.724   9.932   3.185 -0.1053 -0.1677 -0.1515
 4069W        W17483  15.744   0.612   6.189 -0.3445  0.2646 -0.1509
 4070W        W17484  10.493  12.981  14.946 -0.1128  0.0151  0.0736
 4071W        W17485   3.820   4.095   1.573 -0.0079  0.3409 -0.0218
 4072W        W17486   3.319  10.986  11.060  0.1413 -0.0041 -0.1469
 4073W        W17487  12.593  15.865   4.340  0.0587 -0.2782  0.2170
 4074W        W17488  10.148  10.155   3.419  0.3937  0.4683 -0.1270
 4075W        W17489  18.023  11.553   1.729 -0.0071  0.3275  0.2245
 4076W        W17490   6.931   9.300  11.473 -0.0177  0.4028  0.0331
 4077W        W17491  12.741  11.376  13.008 -0.0260  0.0761 -0.2820
 4078W        W17492  10.608  16.440  11.750  0.2539  0.2095 -0.0378
 4079W        W17493  11.936  12.909   2.754  0.0209 -0.0187  0.0894
 4080W        W17494  13.566   8.940   1.703 -0.1283  0.0075  0.1201
 4081W        W17495   2.858  17.988  14.717 -0.1498 -0.1664 -0.0392
 4082W        W17496   3.266   9.489   4.133 -0.0125 -0.2671 -0.0996
 4083W        W17497   4.832   9.574  12.053  0.3205 -0.1338 -0.0368
 4084W        W17498  13.898   6.123  11.380  0.0059  0.4035 -0.1350
 4085W        W17499   4.915   2.077  12.211 -0.1067 -0.1358 -0.0962
 4086W        W17500   3.590  14.860   2.469 -0.1753 -0.1742  0.2563
 4087W        W17501  10.100   1.808   3.914 -0.0550  0.1883  0.2011
 4088W        W17502  13.985  11.349   2.386  0.0346  0.1234 -0.1588
 4089W        W17503  10.107  11.316   5.565 -0.0670  0.2846  0.1597
 4090W        W17504  16.848  14.223   1.612  0.1135  0.1896 -0.0850
 4091W        W17505   4.209   9.376   1.639 -0.0984  0.3275 -0.0243
 4092W        W17506  16.837   5.996  11.055 -0.2669  0.1248 -0.4487
 4093W        W17507   8.691  18.033  14.309 -0.4510  0.0538  0.2226
 4094W        W17508  11.003   0.855  14.484  0.0569 -0.0918  0.0550
 4095W        W17509   7.233   9.250   5.919  0.0867 -0.0014 -0.1125
 4096W        W17510   6.436   0.264  11.250  0.1384 -0.2838 -0.1551
 4097W        W17511  12.370   5.290   0.212  0.2514 -0.0027 -0.0846
 4098W        W17512  17.071  10.791  15.783 -0.1707 -0.1683  0.0472
 4099W        W17513   3.055   5.059  13.911  0.1998 -0.2380  0.0639
 4100W        W17514  11.072   4.162   2.751 -0.2720 -0.1608  0.0029
 4101W        W17515   2.594   6.611  16.583 -0.0654  0.2540  0.2086
 4102W        W17516  10.941  12.711   4.601  0.0967 -0.6294 -0.0118
 4103W        W17517   6.252   1.328  13.843 -0.0769  0.1452  0.2012
 4104W        W17518   7.675  13.854  13.433 -0.0758 -0.2369 -0.3093
 4105W        W17519   2.385  12.118  13.338  0.2469  0.1453  0.0044
 4106W        W17520  13.306   4.714  15.997  0.0506  0.0932 -0.0184
 4107W        W17521   1.582   6.052   6.126 -0.2634  0.1185 -0.2777
 4108W        W17522  11.248   5.999   3.731  0.0941 -0.0123  0.1351
 4109W        W17523   1.418  10.345  15.215 -0.0232  0.2202  0.0498
 4110W        W17524  11.680   5.296   1.974  0.0159  0.2327 -0.3049
 4111W        W17525   1.745  16.498   1.401 -0.3268 -0.0564 -0.1620
 4112W        W17526  10.555   4.800  12.624  0.0914 -0.0725  0.1170
 4113W        W17527   5.360   8.436   4.322  0.2671  0.1297 -0.2423
 4114W        W17528  11.551  13.059  12.086  0.0003 -0.1642 -0.1176
 4115W        W17529  16.665   5.709   4.767  0.1275  0.0197 -0.2495
 4116W        W17530  16.726   3.917   2.110 -0.4842 -0.0560  0.2938
 4117W        W17531  12.724   1.455   5.438  0.1061  0.1567  0.0750
 4118W        W17532   9.654  16.958  13.860 -0.0102 -0.0677 -0.1217
 4119W        W17533  16.428  15.469  16.638 -0.3766 -0.0202  0.0951
 4120W        W17534   7.562  15.805   1.935 -0.1957 -0.0825 -0.1019
 4121W        W17535   7.681   9.013  16.591  0.1338  0.1273  0.0157
 4122W        W17536   7.105  15.359  13.273  0.0294 -0.0278  0.1493
 4123W        W17537   7.940  15.123   0.083 -0.0467 -0.3065 -0.1532
 4124W        W17538   6.173   0.176   5.900  0.1684  0.1848 -0.2510
 4125W        W17539  15.169  15.763  11.635 -0.2472  0.0242  0.0958
 4126W        W17540  13.545  11.040  16.156 -0.0985 -0.2988 -0.2235
 4127W        W17541   4.007  15.060   5.960 -0.0795  0.1589  0.2315
 4128W        W17542   7.725  10.256   4.872  0.0173 -0.0702  0.1993
 4129W        W17543  13.186   5.769  16.697  0.0032  0.1759 -0.0618
 4130W        W17544   5.783  11.240  14.536  0.0618 -0.0103  0.4423
 4131W        W17545   3.809  13.480  13.324 -0.3701 -0.4956 -0.0232
 4132W        W17546   4.730   8.734  12.217 -0.0188 -0.1710 -0.0563
 4133W        W17547   2.467  14.695   1.914 -0.6208  0.2028  0.1237
 4134W        W17548  14.892  11.478   1.893 -0.0223  0.2444  0.2390
 4135W        W17549  10.665  14.518  11.501 -0.0048  0.1184  0.1288
 4136W        W17550  13.462   7.631  15.126  0.1344  0.0306 -0.0600
 4137W        W17551   0.246   2.415   5.046 -0.2531 -0.1507 -0.1306
 4138W        W17552  11.195   4.506   2.425  0.2138  0.1719  0.1546
 4139W        W17553  11.889  15.805  10.561  0.1220 -0.1263 -0.1166
 4140W        W17554   2.095  15.232   4.665 -0.2876  0.0708 -0.0801
 4141W        W17555  14.491   4.925   1.485  0.1602  0.1940 -0.0992
 4142W        W17556  14.614  12.641  11.980  0.0902 -0.1649  0.0667
 4143W        W17557   6.867   1.346  13.784 -0.1135 -0.1458  0.2214
 4144W        W17558   5.626  10.291   1.310  0.0242  0.0153  0.0200
 4145W        W17559  13.128  15.876   4.129 -0.0791  0.1116 -0.0002
 4146W        W17560   8.542   4.629   4.953  0.2552 -0.1165  0.2965
 4147W        W17561  13.323  10.686   3.651  0.2644 -0.0340  0.0604
 4148W        W17562   6.547  10.927  13.464 -0.0094 -0.1504  0.2042
 4149W        W17563  13.773  15.133  11.895 -0.1679 -0.0866  0.0430
 4150W        W17564   6.877   7.549   1.963 -0.1153 -0.2316 -0.1658
 4151W        W17565  14.715   6.533  16.414 -0.0613  0.1042  0.0858
 4152W        W17566   7.958   7.767  15.294 -0.0236  0.2851 -0.2078
 4153W        W17567   2.221   8.295  13.974  0.1419 -0.4099  0.3891
 4154W        W17568  12.698  12.705  15.588  0.3452 -0.1636  0.2321
 4155W        W17569   5.707  15.315   3.244  0.1434  0.2932  0.1679
 4156W        W17570  13.257   6.289  16.597  0.0571 -0.3234 -0.2794
 4157W        W17571  10.770   6.654   2.826  0.2981 -0.1760  0.1779
 4158W        W17572   9.288   7.656   3.203  0.1113  0.0201  0.1803
 4159W        W17573   0.577  13.591   1.023 -0.1371  0.0559 -0.2150
 4160W        W17574   6.744  17.080  11.542  0.2649  0.2105 -0.2562
 4161W        W17575  13.755   5.062   2.612  0.0606 -0.1519 -0.0554
 4162W        W17576   8.912  11.073   1.401 -0.0223  0.0516  0.0951
 4163W        W17577   4.478   0.942   5.426 -0.2291  0.1688  0.0355
 4164W        W17578  11.901  12.470  11.510  0.1495 -0.0584  0.1505
 4165W        W17579  16.822   4.539   6.619  0.1233  0.1970 -0.1722
 4166W        W17580  17.707   1.409  14.142 -0.1234  0.0338  0.0452
 4167W        W17581   3.365  12.383   1.008 -0.1045 -0.1445 -0.1712
 4168W        W17582  12.788  12.707  10.595 -0.1322 -0.1157 -0.5176
 4169W        W17583   4.118  17.586  13.824  0.0368 -0.1714 -0.1313
 4170W        W17584   7.750  12.979  14.709 -0.0465 -0.3224  0.0719
 4171W        W17585   8.320   7.096   4.387  0.0389  0.0291  0.0196
 4172W        W17586   7.394   1.185   2.732  0.0583 -0.1977 -0.2737
 4173W        W17587  12.583  10.841   3.645  0.4079 -0.1177  0.2203
 4174W        W17588  12.922  17.060   1.336  0.1565  0.0198 -0.2696
 4175W        W17589   4.019   0.994   5.270 -0.0326 -0.0899 -0.0239
 4176W        W17590  12.374   9.403   5.193 -0.0698  0.0894  0.0101
 4177W        W17591   1.011   8.042   4.629 -0.2209 -0.1346 -0.1173
 4178W        W17592   1.891   7.530   2.436 -0.1815  0.2814  0.3774
 4179W        W17593  12.498   8.802  15.400 -0.1840  0.1006 -0.0125
 4180W        W17594   1.657   7.180   4.688 -0.1802 -0.2645  0.0626
 4181W        W17595   3.031   9.892  14.728  0.3420  0.0220  0.0518
 4182W        W17596  16.553  11.261   0.872  0.0399 -0.3567  0.0824
 4183W        W17597  14.399   7.094  16.696 -0.2588  0.2087 -0.0946
 4184W        W17598  10.807   4.645   1.099  0.0045 -0.0485 -0.1105
 4185W        W17599  13.671   1.503   2.498 -0.2051  0.0335  0.2279
 4186W        W17600   2.196  13.601   4.483  0.4394 -0.3271  0.1368
 4187W        W17601   8.054   6.495  15.060 -0.1443 -0.2549  0.4323
 4188W        W17602   7.233  10.220  11.630 -0.1131  0.2451 -0.0152
 4189W        W17603   5.128   7.259  13.334  0.2090  0.2445  0.0422
 4190W        W17604   5.465   5.808   0.943  0.1770  0.0628 -0.0112
 4191W        W17605  13.385  13.858  10.463  0.0763 -0.0137 -0.1229
 4192W        W17606   9.981  13.588   5.899  0.0918 -0.1742 -0.0176
 4193W        W17607   2.191   8.759  15.159 -0.0754 -0.0611  0.0181
 4194W        W17608   7.130   9.676  12.951  0.0021  0.2812 -0.2807
 4195W        W17609  13.142   4.347  12.455  0.1675 -0.1433 -0.0127
 4196W        W17610   5.431   1.766   3.306  0.3101  0.1822 -0.0322
 4197W        W17611  11.921  11.240   0.117 -0.0185  0.2246  0.0483
 4198W        W17612  11.109  12.567   4.117 -0.2491 -0.0512  0.1147
 4199W        W17613   5.728  12.810  14.424 -0.1916  0.2795 -0.1659
 4200W        W17614   0.607   8.643  11.122  0.0480  0.1524 -0.0600
 4201W        W17615   6.089   4.759   3.128 -0.0658 -0.3721 -0.0391
 4202W        W17616  16.275  15.112   3.805 -0.1691 -0.1177 -0.0741
 4203W        W17617  17.955  16.174   3.329  0.0786  0.2553  0.1943
 4204W        W17618  14.671  10.655  16.141 -0.2432 -0.1148 -0.1122
 4205W        W17619  12.756  16.915   1.816 -0.1112 -0.0941 -0.1622
 4206W        W17620   8.139   4.383  10.479 -0.3231  0.0974  0.1144
 4207W        W17621  12.263   9.218  11.229 -0.0712 -0.3522 -0.1170
 4208W        W17622  17.636   9.575   2.809 -0.2217 -0.2154  0.0977
 4209W        W17623   5.440  13.002   0.140 -0.0213 -0.2706 -0.2729
 4210W        W17624  13.842   2.223  15.409 -0.1506 -0.2030 -0.1917
 4211W        W17625  15.998   2.593   1.892 -0.1713 -0.2207 -0.0512
 4212W        W17626  10.896   2.501  13.048  0.2521  0.0571 -0.1964
 4213W        W17627  13.770   0.985   2.354 -0.0293  0.0043  0.1297
 4214W        W17628   9.064   8.926  15.432 -0.2485 -0.1292  0.0808
 4215W        W17629   4.731   5.075   5.813 -0.2574 -0.3027  0.1015
 4216W        W17630  12.275  10.319   2.040 -0.0026  0.2116 -0.0923
 4217W        W17631   3.096   2.287  10.415  0.0253  0.0186  0.1092
 4218W        W17632   5.739  11.536  11.731  0.0757  0.1602 -0.1438
 4219W        W17633   3.104  13.348   2.901  0.0080 -0.1761 -0.1316
 4220W        W17634   6.023   2.225  16.235  0.1603 -0.1155 -0.0345
 4221W        W17635   6.033   5.687  11.186 -0.0678 -0.2935 -0.1695
 4222W        W17636   2.800   7.417   0.967 -0.2359 -0.2884 -0.0745
 4223W        W17637  17.810   5.946   1.468 -0.3822 -0.1117  0.0088
 4224W        W17638   8.510  16.659   3.747 -0.0636  0.1106  0.1183
 4225W        W17639   6.268  14.560  16.180  0.3593 -0.2478  0.0288
 4226W        W17640   5.649   9.172   5.917 -0.0577 -0.1428  0.1858
 4227W        W17641   5.122   4.594  11.857  0.0469  0.1830  0.0980
 4228W        W17642   3.347  10.974   2.424 -0.1506 -0.0907  0.0265
 4229W        W17643  16.402  16.025  14.653  0.3155  0.0841  0.1131
 4230W        W17644   7.565  14.539  12.508 -0.0488 -0.3307 -0.1799
 4231W        W17645   2.830  11.112  13.967  0.1837 -0.0122  0.2586
 4232W        W17646   6.222   0.903   4.785  0.0369  0.0708  0.0420
 4233W        W17647   1.669  11.800  11.990  0.0324 -0.0946 -0.1555
 4234W        W17648   0.410   4.648   4.564 -0.0501  0.1937 -0.0533
 4235W        W17649   0.288   3.791  15.205  0.0340 -0.0202 -0.3187
 4236W        W17650   4.576  15.219  15.237  0.1791  0.0462 -0.1961
 4237W        W17651   4.585   4.374   3.702  0.0338  0.3956  0.0670
 4238W        W17652  16.689   1.760   4.586  0.3518  0.1948 -0.0220
 4239W        W17653   1.053  17.649   5.732 -0.1537  0.1594 -0.0673
 4240W        W17654  15.602   6.801  10.732  0.0396  0.1852 -0.1750
 4241W        W17655   7.189   5.371   1.065  0.0401 -0.1155 -0.2892
 4242W        W17656  17.581   4.416   4.151 -0.1405 -0.2377 -0.3514
 4243W        W17657   9.077   3.208  10.509  0.0745  0.1042 -0.0259
 4244W        W17658   5.175   6.107  16.078 -0.0162 -0.2726 -0.0621
 4245W        W17659  14.314   5.501  12.466  0.2829  0.1563  0.1339
 4246W        W17660  16.362  17.280  14.521 -0.3914  0.2082  0.1476
 4247W        W17661  15.853   9.224   3.075  0.1814 -0.1509 -0.0684
 4248W        W17662   4.780  10.995   4.357 -0.1861 -0.1314  0.1579
 4249W        W17663  17.314  12.147  11.577 -0.1417 -0.1552  0.1178
 4250W        W17664   0.986   5.218   2.392 -0.3604 -0.1772 -0.2979
 4251W        W17665   7.156  11.045  12.850 -0.0948 -0.0138  0.1723
 4252W        W17666   0.249  10.384  16.040 -0.0736 -0.0534  0.0099
 4253W        W17667   9.256  16.250  13.877  0.0098  0.3313 -0.2578
 4254W        W17668  17.268   2.851  11.614  0.2581 -0.2731  0.0459
 4255W        W17669   5.942   9.162  15.140  0.1601  0.0180 -0.0008
 4256W        W17670   5.632  12.419  13.513 -0.2166  0.2024 -0.1202
 4257W        W17671   5.278   4.470   2.452 -0.3956  0.1881 -0.2439
 4258W        W17672  16.657   7.819  11.978 -0.0027 -0.0096  0.2395
 4259W        W17673   9.031   8.941  16.532  0.1644  0.0443 -0.3393
 4260W        W17674   2.099   8.219  13.505  0.1275  0.1174 -0.2243
 4261W        W17675   5.670   4.106  15.031  0.1942 -0.0965  0.1798
 4262W        W17676   8.737  15.704  13.110  0.3123 -0.4702 -0.0967
 4263W        W17677   9.509  15.242  11.307  0.0809 -0.1885 -0.0620
 4264W        W17678  16.680   7.233   2.195 -0.1376 -0.0797  0.4296
 4265W        W17679  11.062  11.071   4.737  0.0484  0.4383  0.0463
 4266W        W17680   1.962   7.546   3.513 -0.1109 -0.1346  0.2185
 4267W        W17681   3.208   4.817   2.348  0.3126 -0.0325  0.3259
 4268W        W17682   2.299  10.167  12.526 -0.1496 -0.0093  0.3954
 4269W        W17683   3.424  12.589   4.711 -0.3775  0.3488 -0.2367
 4270W        W17684   1.958  17.463  10.709  0.0231 -0.0763  0.3156
 4271W        W17685   0.880   6.426  12.685  0.0020 -0.1118  0.3637
 4272W        W17686   7.942   5.680  15.682 -0.2825  0.0755 -0.1521
 4273W        W17687  14.138   8.411  11.421  0.0342  0.1280 -0.0989
 4274W        W17688   6.745   6.320   4.500  0.1905  0.2987 -0.0460
 4275W        W17689  11.457   7.186  14.530  0.0723  0.1174 -0.0984
 4276W        W17690  11.506  14.892  13.948 -0.1029  0.1622 -0.0889
 4277W        W17691  15.403   9.694  11.684 -0.1192  0.0896  0.1255
 4278W        W17692   1.378   2.349  15.378 -0.0577  0.0546  0.1767
 4279W        W17693   7.753   7.860   1.935  0.2189 -0.1439  0.1987
 4280W        W17694  14.035   1.456   1.055 -0.0056  0.0547  0.2588
 4281W        W17695  17.775  12.410  12.316 -0.1004 -0.1352 -0.0583
 4282W        W17696   8.459   8.628   3.902  0.2498  0.1609  0.3508
 4283W        W17697   8.159   5.411  10.327  0.5882  0.1374 -0.1046
 4284W        W17698   0.884   8.679   0.979 -0.1594 -0.0181  0.0586
 4285W        W17699   9.006   9.460  10.879 -0.0641  0.1170  0.0271
 4286W        W17700  10.854  10.920  11.151  0.0024  0.0641  0.0392
 4287W        W17701   6.103   2.368   3.668 -0.1093  0.2784 -0.0242
 4288W        W17702  17.955  17.073  15.695  0.1453 -0.0187 -0.0987
 4289W        W17703  15.708  16.803   1.577 -0.0524  0.3198 -0.1458
 4290W        W17704  11.187   5.429  10.650 -0.1674  0.2247 -0.1837
 4291W        W17705  16.786  16.143  15.954 -0.2066 -0.0911  0.2177
 4292W        W17706   0.576   7.278  11.346 -0.0245 -0.0460 -0.0093
 4293W        W17707   7.009  17.708   2.341  0.1787  0.0902  0.1200
 4294W        W17708   2.235   6.006   4.664 -0.1788  0.0129  0.2307
 4295W        W17709  10.872  17.939   4.945 -0.4711 -0.0033 -0.3039
 4296W        W17710  12.549  14.112   1.370  0.0333 -0.0718  0.0421
 4297W        W17711   4.271   7.599  12.571 -0.2257 -0.1250 -0.2657
 4298W        W17712   9.974  17.832  13.815  0.1263  0.0561  0.2379
 4299W        W17713  11.666   8.403  12.380 -0.1280 -0.0600  0.1176
 4300W        W17714  17.406  13.313  14.871 -0.0036 -0.0359 -0.2385
 4301W        W17715  16.050   7.323  16.121 -0.2209 -0.3611  0.3199
 4302W        W17716  17.069  13.544   3.175 -0.0226  0.2469 -0.1128
 4303W        W17717  15.439   8.439  16.133 -0.2035  0.2924 -0.3007
 4304W        W17718  14.793  10.280   4.645 -0.1055 -0.1411  0.0120
 4305W        W17719  10.612  10.645   1.525  0.1299 -0.1749 -0.0535
 4306W        W17720  14.118   1.666  11.691  0.1230  0.1068 -0.1208
 4307W        W17721  15.652  16.708   2.088 -0.1841  0.3628  0.2012
 4308W        W17722   0.126   6.416   0.115  0.0214  0.1023 -0.0095
 4309W        W17723   7.344   1.013  11.547 -0.5856  0.1213 -0.1035
 4310W        W17724  15.303   7.191   0.497 -0.4880 -0.1951 -0.1905
 4311W        W17725   8.077   3.246   2.589  0.1166  0.0362  0.2296
 4312W        W17726   4.838   0.602   5.233 -0.0820  0.4897 -0.2287
 4313W        W17727   9.650   7.192   5.915 -0.0934 -0.1471  0.0084
 4314W        W17728  16.173  13.323  14.454  0.3211  0.2790  0.1550
 4315W        W17729   7.826   8.522   0.063 -0.0696 -0.2084  0.0071
 4316W        W17730  17.735  10.364  13.993 -0.2236 -0.1605 -0.0409
 4317W        W17731   4.753  11.388  12.192 -0.0630 -0.0940  0.1232
 4318W        W17732   3.411   3.559  11.489 -0.3068 -0.0487  0.1355
 4319W        W17733   6.393   1.909  12.446 -0.0519  0.1917  0.0132
 4320W        W17734  15.541  12.820   0.938 -0.0186  0.1740 -0.3970
 4321W        W17735  14.971   0.621   1.125  0.0169 -0.1325  0.0044
 4322W        W17736   1.163   1.554   3.714  0.0077  0.0714 -0.3101
 4323W        W17737  12.545  16.066  12.835 -0.0048 -0.1897  0.2144
 4324W        W17738  11.379   1.460   1.031 -0.1936  0.1194 -0.0232
 4325W        W17739  14.559   9.871   6.080 -0.0510  0.1159  0.2531
 4326W        W17740   0.557   0.562   3.166 -0.0595  0.0603  0.1042
 4327W        W17741  13.164   2.771   1.760  0.0028  0.3671  0.1150
 4328W        W17742  16.848   1.475  15.220 -0.1292  0.0080  0.0921
 4329W        W17743   0.762  11.525   0.175  0.2682  0.0385  0.2853
 4330W        W17744   6.472  13.259   2.767 -0.1797  0.6037  0.0743
 4331W        W17745  12.198   7.650  12.972  0.3540 -0.0323 -0.3335
 4332W        W17746   9.879  10.048  15.670 -0.0415 -0.0051 -0.0015
 4333W        W17747  15.023  13.713  10.595  0.2570  0.0927  0.1119
 4334W        W17748   5.077   9.214   2.064 -0.1255 -0.1043 -0.0676
 4335W        W17749   3.003   4.849  11.706 -0.1686  0.3644 -0.1507
 4336W        W17750  12.059   4.846  13.924 -0.1589 -0.0230 -0.1429
 4337W        W17751   3.929   8.641   4.159  0.0775 -0.0069 -0.3386
 4338W        W17752  11.994   5.308  12.996 -0.0101  0.0014 -0.1851
 4339W        W17753   7.952  11.143   5.947  0.1053  0.1632  0.1652
 4340W        W17754   4.550  17.236  16.127  0.0988 -0.0753 -0.1280
 4341W        W17755  13.530  14.692   3.632 -0.0570 -0.1284  0.1897
 4342W        W17756   6.415  14.370   5.186 -0.0741  0.1471  0.1555
 4343W        W17757  16.248   2.492  12.800  0.3103  0.0266  0.2366
 4344W        W17758  17.209   8.578   1.569 -0.1983  0.1378 -0.0070
 4345W        W17759  13.520   5.384   0.038  0.0684 -0.1198  0.0804
 4346W        W17760   5.168  14.143  10.343 -0.2642  0.0617  0.0785
 4347W        W17761   8.205  12.449  10.964 -0.1988 -0.1789  0.0816
 4348W        W17762   0.299  15.913   5.348  0.1690  0.0477 -0.0613
 4349W        W17763  17.659  16.568  13.307 -0.0794 -0.3624  0.0761
 4350W        W17764  13.943   0.292   2.982 -0.1008 -0.0754 -0.1531
 4351W        W17765  15.114   7.467  15.676 -0.2737 -0.0155 -0.0845
 4352W        W17766   1.529  13.166  14.325  0.0447 -0.2934  0.2530
 4353W        W17767   8.893  13.061   5.273 -0.0104  0.1242  0.5138
 4354W        W17768  12.307   1.726   2.005 -0.1219  0.2737 -0.1231
 4355W        W17769  12.727   1.945   2.233  0.0937  0.4039  0.0209
 4356W        W17770  11.108   6.323   2.863 -0.0836  0.0611 -0.0332
 4357W        W17771   3.574   7.583  11.901 -0.1470 -0.1358 -0.3122
 4358W        W17772  13.526  16.824   5.636 -0.0851  0.1094  0.0385
 4359W        W17773  12.204   9.486  14.481  0.0586 -0.3037 -0.0532
 4360W        W17774   0.314  17.293  12.395  0.1511  0.1896  0.0020
 4361W        W17775  15.937  11.708   2.765  0.4524  0.0523  0.0127
 4362W        W17776   4.239   7.986   0.608 -0.1980 -0.0648  0.2554
 4363W        W17777   8.596   9.274  14.453  0.1264  0.1173  0.1322
 4364W        W17778   4.156  15.493   1.810 -0.2820  0.2230  0.3418
 4365W        W17779  11.909   8.989   3.938  0.1587 -0.1754 -0.0027
 4366W        W17780   8.629   8.116   5.608  0.0689  0.1173  0.0754
 4367W        W17781  11.487   2.336  14.873  0.0546 -0.0804 -0.0223
 4368W        W17782  15.153  16.232  15.369 -0.2631 -0.0126 -0.4084
 4369W        W17783   3.286  15.163   2.716  0.0431  0.0551  0.2518
 4370W        W17784  14.294  12.040  14.667 -0.2015 -0.3184  0.0041
 4371W        W17785  14.220  11.042   3.817  0.1070 -0.1408  0.1520
 4372W        W17786  12.018  14.373  14.393  0.1031  0.0294 -0.2306
 4373W        W17787  12.732   1.429  14.861 -0.2759 -0.3499  0.1203
 4374W        W17788  12.764   0.915   0.146 -0.0289 -0.1271 -0.1354
 4375W        W17789  13.754  13.372   4.168  0.0089  0.2149 -0.1107
 4376W        W17790   1.919   4.298   2.515  0.0238 -0.1828 -0.0350
 4377W        W17791   6.552  18.013  12.841 -0.2005 -0.2638 -0.0081
 4378W        W17792   3.496  11.487  12.200  0.0435 -0.0791 -0.1846
 4379W        W17793   0.548   9.987  15.943 -0.1534 -0.0486  0.2200
 4380W        W17794   3.579  11.644  15.580 -0.2463  0.0119  0.1404
 4381W        W17795  16.290   8.965  15.451 -0.1202  0.4494 -0.1874
 4382W        W17796   7.723  10.926  14.434  0.0096 -0.2484 -0.0697
 4383W        W17797   5.290  12.839  13.938  0.0000  0.0627 -0.0982
 4384W        W17798   6.423   4.691  16.612 -0.1408  0.0281 -0.2264
 4385W        W17799  10.330  11.626  16.390  0.1499 -0.1197  0.0752
 4386W        W17800  12.658   3.847   0.816  0.1079  0.0183  0.2041
 4387W        W17801   5.340  15.389  13.977  0.2433  0.1249  0.1604
 4388W        W17802   2.887   7.356   3.912 -0.1007  0.1570 -0.2643
 4389W        W17803  14.808   1.006   4.062  0.1679  0.0381 -0.2069
 4390W        W17804   8.317   0.782  12.615 -0.1438  0.0312 -0.1166
 4391W        W17805   7.880   3.490  12.740 -0.3818  0.0114 -0.0995
 4392W        W17806  16.119   1.622  13.397  0.2072  0.1476  0.0547
 4393W        W17807  15.446   0.721   4.841  0.1512  0.2481  0.0803
 4394W        W17808   7.819  10.510  12.198 -0.1220  0.0268  0.0483
 4395W        W17809   4.388   7.746  15.108 -0.1773  0.0194 -0.1395
 4396W        W17810  12.825   5.469  14.752 -0.3169 -0.0633 -0.2596
 4397W        W17811  10.631  15.738  11.216 -0.0521  0.2624  0.1598
 4398W        W17812   2.837  10.464   3.347  0.0296  0.0118 -0.1261
 4399W        W17813   4.747   2.034  10.806  0.0606 -0.4088 -0.0250
 4400W        W17814   7.492  11.171   0.162 -0.0910  0.0486  0.2325
 4401W        W17815   5.161   0.091  10.862 -0.0717  0.1983  0.0702
 4402W        W17816   2.658  17.483   5.683 -0.1704 -0.3200  0.1616
 4403W        W17817  12.536   1.509  10.927 -0.0067 -0.0164 -0.0376
 4404W        W17818  15.804   9.190   3.554 -0.0149 -0.0434  0.0561
 4405W        W17819  17.615  10.368  11.246 -0.2307 -0.4583 -0.0145
 4406W        W17820  11.042  13.596   0.399  0.2947 -0.0656 -0.1824
 4407W        W17821  14.949  13.545  11.066 -0.2346  0.4226  0.1008
 4408W        W17822  17.850   2.343   0.766  0.1285  0.0515 -0.1571
 4409W        W17823   5.811  17.667   1.426 -0.1129  0.2370 -0.0956
 4410W        W17824   6.652  11.720   5.816 -0.1323 -0.2315  0.1189
 4411W        W17825  12.139   2.852  11.884 -0.0622 -0.2689 -0.1272
 4412W        W17826   3.938   9.228   2.448  0.1163 -0.4312  0.1173
 4413W        W17827   9.691   8.642   0.252 -0.0048  0.0741  0.0411
 4414W        W17828   9.752  17.190  16.320 -0.3046 -0.0236  0.1911
 4415W        W17829   9.770  10.922   4.149  0.0046 -0.0469 -0.0313
 4416W        W17830   7.042   4.551   4.035 -0.2853 -0.0190 -0.0024
 4417W        W17831  11.262  13.668  12.151 -0.0640  0.0704 -0.3088
 4418W        W17832   9.864  13.772  14.501 -0.1754  0.0487  0.1760
 4419W        W17833   8.745   9.562  15.139  0.0863 -0.0487 -0.0262
 4420W        W17834  16.803   2.808  12.099  0.1514 -0.0768 -0.1053
 4421W        W17835  12.946  12.884  13.666  0.0609  0.1423  0.0768
 4422W        W17836   7.731   3.522   2.322  0.0384  0.3352 -0.1866
 4423W        W17837   4.285   4.146  10.681  0.1957 -0.1338  0.1224
 4424W        W17838   9.633   9.481   3.682  0.0540  0.0672  0.0057
 4425W        W17839   6.093  16.739   4.637  0.2810  0.4315  0.1380
 4426W        W17840   6.203   4.194   0.014 -0.1253 -0.0278  0.1985
 4427W        W17841  10.292   0.148   3.692  0.2942 -0.1088  0.2336
 4428W        W17842   6.442   8.198  14.119  0.0225  0.0136  0.0654
 4429W        W17843  15.054  10.049   4.267 -0.1314  0.0512 -0.2011
 4430W        W17844   7.439   9.177  11.518 -0.2134 -0.1638 -0.2554
 4431W        W17845   0.442   3.131   0.451  0.1224  0.0832  0.0270
 4432W        W17846   6.118  15.760  12.846 -0.1114 -0.0313  0.0509
 4433W        W17847  17.190   7.073  14.645  0.4932  0.0174  0.0534
 4434W        W17848   6.925   2.568  16.497  0.0682 -0.2629 -0.1281
 4435W        W17849   0.136  12.440  11.143 -0.0393  0.1455 -0.0889
 4436W        W17850   2.431   2.059  12.392  0.1442  0.0089  0.1417
 4437W        W17851   7.395  14.293  10.545 -0.3186 -0.0982 -0.2974
 4438W        W17852   3.902   2.109   0.335  0.2708  0.0153  0.1314
 4439W        W17853   9.677  14.222   0.961 -0.5257  0.0506 -0.0748
 4440W        W17854   2.438  11.026  15.737 -0.1277  0.1141 -0.1325
 4441W        W17855   2.534   3.414  11.705 -0.1030  0.2107 -0.2882
 4442W        W17856   4.214  14.230   2.582  0.0239  0.1264  0.0259
 4443W        W17857   5.390  10.235  11.734 -0.1348  0.0089  0.2594
 4444W        W17858  11.175  10.329  15.197  0.1735 -0.3823 -0.0432
 4445W        W17859   0.666  13.695  10.374 -0.0346  0.2689  0.0932
 4446W        W17860  16.716  17.609   4.329  0.0749  0.0953  0.2278
 4447W        W17861   4.530  12.457  13.892  0.1941  0.0003  0.2090
 4448W        W17862   8.499   5.561   1.412 -0.0095  0.1039  0.0321
 4449W        W17863   5.529   3.584  15.765  0.2740  0.1681 -0.1412
 4450W        W17864  10.991  13.075  13.534  0.2634  0.1922  0.0328
 4451W        W17865  10.119   9.454  14.262  0.0021  0.1303  0.0261
 4452W        W17866   1.823   7.653  11.521 -0.0570  0.0299 -0.2058
 4453W        W17867   2.430  13.485   3.689  0.1475 -0.0245  0.0802
 4454W        W17868   0.841   4.875   3.386  0.0136  0.1014  0.0169
 4455W        W17869  17.315   7.550  14.892  0.0846  0.1637 -0.0126
 4456W        W17870   0.918  16.404  13.992  0.0772  0.3637  0.1794
 4457W        W17871   5.525  16.297   5.064  0.2101 -0.2376 -0.0405
 4458W        W17872   2.617   2.523  16.135  0.2280  0.1672 -0.0263
 4459W        W17873   0.875   9.650   1.185  0.0457 -0.3616 -0.1880
 4460W        W17874  14.161   6.161  13.027 -0.0219  0.0441 -0.2486
 4461W        W17875   6.495   0.351  14.193  0.0274 -0.0117  0.2526
 4462W        W17876   1.236  17.638   2.080 -0.1878 -0.1646 -0.1156
 4463W        W17877  14.303  12.785   3.193  0.0791 -0.0792 -0.1112
 4464W        W17878  15.765   7.938   2.994 -0.0765 -0.1672 -0.0723
 4465W        W17879   4.588  12.197  11.515 -0.0295 -0.0713 -0.2593
 4466W        W17880   1.826   4.511   3.780  0.0720 -0.2333 -0.0364
 4467W        W17881   5.099   7.872  12.316  0.0089  0.2313  0.0599
 4468W        W17882   0.513  15.629   4.081 -0.2333 -0.1015 -0.1322
 4469W        W17883   8.803   1.624  14.674 -0.1515 -0.0907 -0.0444
 4470W        W17884  12.397  12.280  10.610 -0.1706  0.1825  0.0716
 4471W        W17885  17.351   0.681   1.608 -0.1206  0.2979 -0.0512
 4472W        W17886   9.994  10.559  12.030  0.2543  0.1945 -0.2378
 4473W        W17887   5.965  13.232   0.136  0.0622 -0.1607  0.0040
 4474W        W17888   0.592   0.952  11.849 -0.0963  0.0251  0.2052
 4475W        W17889  12.008  10.983   3.505  0.2411 -0.1034 -0.0386
 4476W        W17890   1.624   5.758   2.374 -0.0146 -0.0755 -0.1267
 4477W        W17891  15.384  11.402  15.387 -0.1822  0.0386  0.0795
 4478W        W17892  13.277  12.699  13.298 -0.2528 -0.1789 -0.0639
 4479W        W17893  14.321  11.905   5.104 -0.0397 -0.0059 -0.0567
 4480W        W17894   8.235  12.439   2.937  0.0080 -0.0136 -0.0376
 4481W        W17895   5.465   2.546   2.868 -0.1242  0.3004 -0.0254
 4482W        W17896  12.727   2.406  13.994 -0.0073 -0.0925  0.0549
 4483W        W17897   7.362   3.143  11.364 -0.1936  0.0210 -0.1030
 4484W        W17898   8.649   8.347   5.175 -0.0398  0.0235 -0.0946
 4485W        W17899  15.060   6.700   2.670  0.0375  0.0924  0.0668
 4486W        W17900   9.173  15.910  10.636 -0.0968  0.0267 -0.1403
 4487W        W17901   7.823  10.305  15.775 -0.2219  0.1669  0.2073
 4488W        W17902  12.061   0.152  11.115 -0.4364 -0.1773 -0.0008
 4489W        W17903   2.521   4.673   3.662 -0.3095 -0.1220 -0.0386
 4490W        W17904  15.421   2.353   0.754  0.1666 -0.1324  0.0587
 4491W        W17905  17.766   2.893  11.613 -0.0610 -0.0814 -0.1591
 4492W        W17906  11.567   6.153  14.821 -0.2103 -0.1837 -0.1036
 4493W        W17907  16.712  10.594  13.239  0.0319 -0.1755  0.0379
 4494W        W17908  15.325   7.723  10.811  0.0228  0.2501  0.0244
 4495W        W17909   5.107   6.021   4.703 -0.1103  0.2626 -0.4034
 4496W        W17910   4.020   8.739   0.820 -0.0493  0.0605  0.3940
 4497W        W17911   7.712  15.950  15.989 -0.2638  0.1786  0.0631
 4498W        W17912  15.764   6.840  14.858  0.1848  0.0069 -0.0345
 4499W        W17913  16.130   5.399  14.054  0.3864 -0.0255  0.0365
 4500W        W17914   7.594   3.271  16.080 -0.1225 -0.0632 -0.0709
 4501W        W17915  11.833  13.507  11.964 -0.2337 -0.0494 -0.1250
 4502W        W17916  10.663  14.501  15.767  0.1789 -0.0366 -0.0296
 4503W        W17917   3.312  13.998   6.446 -0.0506  0.2244 -0.0181
 4504W        W17918  12.095   8.224   5.831 -0.0188 -0.0462  0.0628
 4505W        W17919  13.272  11.352   5.681  0.1744  0.0893 -0.3153
 4506W        W17920   3.771  14.002   3.454  0.0350 -0.0218  0.0704
 4507W        W17921   5.373   7.043   2.718  0.3413 -0.3469 -0.1739
 4508W        W17922   4.889  13.895   5.677 -0.1660  0.0618  0.0449
 4509W        W17923  12.257  17.479   2.415 -0.0702  0.1286 -0.1025
 4510W        W17924  13.437   6.881   6.131  0.1253  0.1155 -0.2808
 4511W        W17925  14.130  14.886  11.588 -0.1107  0.2291  0.0158
 4512W        W17926   9.675  13.085   3.006 -0.0247 -0.1087 -0.1185
 4513W        W17927  17.146   1.416  11.804  0.0401  0.0703 -0.0121
 4514W        W17928   9.592  13.788  12.011 -0.1236  0.5581 -0.1720
 4515W        W17929   2.025   7.593  16.092 -0.0249  0.0100  0.4044
 4516W        W17930   1.562  17.346   3.919  0.2827 -0.2198  0.0304
 4517W        W17931   0.483   5.772   2.050  0.0461  0.1886  0.2498
 4518W        W17932   8.492  12.396   1.354  0.1719 -0.1639  0.0560
 4519W        W17933  11.892  12.871   2.210 -0.0631 -0.1636 -0.5259
 4520W        W17934  11.086  14.070   2.468  0.0065 -0.1243 -0.1644
 4521W        W17935   9.600  14.238  14.304  0.0248 -0.0124 -0.3034
 4522W        W17936   0.633  16.384  14.344 -0.0958  0.0351 -0.0892
 4523W        W17937   2.137   7.419  14.870  0.0057 -0.1409 -0.3279
 4524W        W17938   4.857   4.455   2.716 -0.0250 -0.4581 -0.0619
 4525W        W17939   6.795  14.608  15.642  0.1047 -0.0527  0.0398
 4526W        W17940   9.566   4.909  14.173 -0.3575 -0.0371  0.1036
 4527W        W17941  15.076   5.805  14.231 -0.0026 -0.2803  0.0911
 4528W        W17942  13.764  17.291   3.433  0.2611 -0.0918  0.0391
 4529W        W17943  16.863  13.760   0.294 -0.3365 -0.0694  0.1424
 4530W        W17944   7.338  10.449   2.814 -0.1163  0.1611  0.2602
 4531W        W17945   3.963   0.250  11.430  0.0708 -0.1413 -0.1496
 4532W        W17946  10.119   4.766   1.795  0.3347 -0.1900  0.0756
 4533W        W17947  10.546   1.526   3.117  0.2663 -0.1652  0.0454
 4534W        W17948  16.646  10.200   1.985 -0.0337  0.2000 -0.1049
 4535W        W17949  14.157  15.231   0.243  0.1349  0.1992 -0.1390
 4536W        W17950   4.203   2.666   4.256 -0.0172 -0.0117 -0.1898
 4537W        W17951  16.552  15.030   5.771 -0.1586 -0.0205 -0.1042
 4538W        W17952   8.577  17.421   5.691  0.0759 -0.0529  0.2453
 4539W        W17953   5.044   0.209  12.543 -0.0729 -0.6062  0.0872
 4540W        W17954   5.416   9.509   5.561 -0.0548 -0.1532  0.2397
 4541W        W17955  14.278  13.263  13.029  0.0102 -0.2111 -0.3493
 4542W        W17956  14.358   3.726  12.585  0.0642  0.0965  0.2460
 4543W        W17957   3.576   7.204  16.491 -0.0579 -0.0762  0.2694
 4544W        W17958   6.857   9.195   4.658  0.1485  0.0199  0.0483
 4545W        W17959  13.310   7.307  11.118  0.1220  0.0153 -0.1041
 4546W        W17960   1.578   5.985  15.469 -0.3541 -0.1692 -0.1342
 4547W        W17961  10.359   9.936   5.370 -0.0108 -0.0073  0.0812
 4548W        W17962  13.880   5.573   1.725  0.0932  0.1016 -0.2222
 4549W        W17963   2.297   8.266  11.126 -0.0515  0.2034  0.1300
 4550W        W17964   2.040   0.984   0.836  0.0298  0.2022 -0.3119
 4551W        W17965  13.937   6.957   3.652 -0.0426 -0.3540 -0.0771
 4552W        W17966   7.767  10.549  13.964  0.3632 -0.1366 -0.3614
 4553W        W17967   4.301   1.846   1.005  0.0961  0.1731 -0.2473
 4554W        W17968  17.727  14.026   3.013  0.0981  0.0459 -0.1415
 4555W        W17969  17.635  15.117  12.421 -0.0110 -0.2677  0.0967
 4556W        W17970  10.339   0.975   3.887 -0.1063 -0.0905 -0.1691
 4557W        W17971   6.161  10.511   0.286 -0.2240 -0.0080 -0.1108
 4558W        W17972   5.831  12.364   2.186  0.2019  0.2469 -0.0371
 4559W        W17973  14.525   2.664   0.648 -0.0786  0.1254  0.0920
 4560W        W17974  13.723  10.662  12.180 -0.4737 -0.0802 -0.0639
 4561W        W17975  11.004  12.160   3.446 -0.1334  0.1717 -0.2293
 4562W        W17976  13.840   4.588   2.554  0.0844  0.0452  0.2718
 4563W        W17977   6.601   8.345   2.648  0.4143 -0.0574  0.0072
 4564W        W17978   5.030   9.789  14.167 -0.1098 -0.0378  0.1951
 4565W        W17979   9.251   4.883  11.524  0.5087 -0.1659 -0.1058
 4566W        W17980  13.840   8.958  15.130 -0.0107  0.0568 -0.1738
 4567W        W17981  13.942   4.442  14.626 -0.0776  0.3513  0.0095
 4568W        W17982  16.275  17.614  16.591 -0.0829  0.1697  0.0885
 4569W        W17983   9.573  14.108   5.429 -0.1492  0.0674  0.1412
 4570W        W17984   0.714  13.102   5.021  0.1220  0.0788  0.0105
 4571W        W17985  12.028   1.936  16.028 -0.0036  0.1179 -0.1986
 4572W        W17986   4.076  13.570   5.144  0.2025 -0.0894 -0.0190
 4573W        W17987   6.217   3.504   0.687  0.0397 -0.1782 -0.1799
 4574W        W17988  15.938  16.032  13.896  0.0324 -0.0480  0.0017
 4575W        W17989  10.934   3.228  14.850 -0.1487 -0.1968 -0.0212
 4576W        W17990   2.785  11.392   1.073 -0.0287 -0.0201  0.1950
 4577W        W17991   5.463   0.296   5.890 -0.4700 -0.0488 -0.0383
 4578W        W17992   7.075  14.817  15.284 -0.1259 -0.2471  0.1993
 4579W        W17993  10.824   1.357  14.825 -0.4323 -0.2952  0.0212
 4580W        W17994  10.338  15.954  11.633  0.0378 -0.2742  0.3912
 4581W        W17995   2.031  16.573   0.648 -0.0309  0.1671  0.0107
 4582W        W17996   1.796  11.202  14.944 -0.3046  0.1838 -0.0050
 4583W        W17997   1.406   3.101   4.547  0.2043 -0.0852 -0.0226
 4584W        W17998   0.006   0.871   3.563 -0.2584 -0.0711 -0.0105
 4585W        W17999   9.088  10.984  10.533  0.1652  0.2579  0.0496
 4586W        W18000   8.976   0.858  13.064  0.1242 -0.2748 -0.0676
 4587W        W18001  11.822  15.190   3.131  0.2716  0.0727  0.1341
 4588W        W18002   3.649  16.857  15.058 -0.1472 -0.1511 -0.1720
 4589W        W18003   5.811  16.471  15.475  0.1131 -0.1629 -0.1629
 4590W        W18004  15.604   8.456   2.896  0.0556  0.0144 -0.0350
 4591W        W18005   6.446  13.705   2.504 -0.1456  0.1451 -0.1598
 4592W        W18006   9.920   3.105   2.172  0.1057 -0.1629  0.2924
 4593W        W18007   4.464  15.223   2.496  0.1108 -0.0777 -0.0749
 4594W        W18008  16.891  10.113  14.093  0.0434 -0.0685  0.1014
 4595W        W18009   8.804  13.716  15.346  0.3148 -0.1457  0.0776
 4596W        W18010   2.143  15.355  14.628 -0.1024  0.1872  0.4243
 4597W        W18011  16.481   7.020  13.278 -0.0758 -0.2782 -0.0072
 4598W        W18012  10.771   3.052   2.441 -0.1160 -0.2460  0.1861
 4599W        W18013   7.165   4.339   1.008  0.1496 -0.1627  0.2294
 4600W        W18014  15.214   4.853   4.375 -0.0878  0.0954 -0.2837
 4601W        W18015   4.045   2.138  12.632 -0.0110  0.2095 -0.2301
 4602W        W18016  11.270  10.765  14.589  0.0743 -0.0680 -0.2245
 4603W        W18017  17.294   6.599   2.152 -0.0818  0.0943 -0.4404
 4604W        W18018  17.682   3.609  16.587  0.1269 -0.2294 -0.0179
 4605W        W18019   2.748  17.962   1.311 -0.2709 -0.1342  0.2810
 4606W        W18020   3.460  17.748   1.507  0.2067  0.1729  0.1349
 4607W        W18021   6.400  14.072  12.520 -0.0550  0.2171  0.0034
 4608W        W18022  10.140   6.101   3.727  0.1017 -0.0473 -0.1552
 4609W        W18023   5.922   0.396   1.786 -0.0908 -0.2110 -0.3168
 4610W        W18024   5.924   0.750   2.775  0.0372 -0.0326  0.0704
 4611W        W18025   3.046   7.770  15.700 -0.0487 -0.3053  0.3045
 4612W        W18026   9.256   0.509  11.299 -0.1250 -0.0679  0.0764
 4613W        W18027  13.187  12.805   2.981  0.0570 -0.0651 -0.1152
 4614W        W18028   6.856   0.315  14.690 -0.0574 -0.2736 -0.2266
 4615W        W18029   5.292  12.015   3.384 -0.2202  0.1624  0.0853
 4616W        W18030   5.803   7.001   4.270  0.1394 -0.3825 -0.2288
 4617W        W18031   7.520   0.090  14.001 -0.2081 -0.3756  0.1152
 4618W        W18032  15.978  15.008  13.004 -0.2262 -0.0425  0.0718
 4619W        W18033  17.207   4.290   1.755  0.0937  0.2068 -0.0835
 4620W        W18034   6.930   0.968   2.850  0.0619  0.0921 -0.0318
 4621W        W18035   8.388  17.352  16.485  0.1315  0.1115  0.0318
 4622W        W18036   3.396  13.086   4.532  0.0711 -0.2717  0.1701
 4623W        W18037   7.737   3.722   3.798 -0.1703 -0.1748 -0.0061
 4624W        W18038   8.024   7.479  14.855 -0.2287 -0.0645 -0.0059
 4625W        W18039  17.473  16.070  12.170 -0.1802 -0.0837  0.1058
 4626W        W18040   2.997  15.385   1.233 -0.0022  0.1950 -0.0958
 4627W        W18041  12.718   5.697   0.297  0.0661  0.0204  0.3494
 4628W        W18042   6.485  10.451  13.857  0.0791 -0.1083 -0.0484
 4629W        W18043  15.832   4.881   5.608  0.2013 -0.1937 -0.2494
 4630W        W18044  14.650   7.828  14.573 -0.0986 -0.0925  0.0976
 4631W        W18045  15.781   2.929   4.488  0.0488 -0.0217 -0.0928
 4632W        W18046   9.264   5.357  15.393 -0.0124  0.0780  0.0209
 4633W        W18047   9.019   7.238   1.441  0.0026  0.0090 -0.0376
 4634W        W18048   1.251   9.393   0.340 -0.1807  0.2999 -0.0567
 4635W        W18049   2.325   2.010   4.750 -0.1406  0.0973 -0.4621
 4636W        W18050  15.017  15.913   1.424  0.0834  0.0406  0.1231
 4637W        W18051  12.775  12.705  11.905 -0.0130 -0.0527 -0.2249
 4638W        W18052   3.626  11.542   4.022  0.0799  0.0411  0.0050
 4639W        W18053  15.351   3.819  13.515 -0.3485  0.0772 -0.0073
 4640W        W18054   8.162   3.355   5.075  0.2159 -0.2323 -0.0116
 4641W        W18055   7.674  14.419   1.860 -0.0930  0.1065 -0.1543
 4642W        W18056   3.749   4.950   1.638 -0.0760  0.0078  0.2591
 4643W        W18057  10.086   6.631  14.246 -0.1773  0.1589  0.2577
 4644W        W18058   8.491  16.624  16.036  0.1456 -0.1811  0.4975
 4645W        W18059   9.679  16.737   2.725 -0.1241  0.0594 -0.2408
 4646W        W18060  15.212  12.842  13.322  0.1317 -0.3083  0.2401
 4647W        W18061  11.171  10.253  16.270 -0.0960  0.1799 -0.1044
 4648W        W18062   5.444  15.615  13.553 -0.1802 -0.2858  0.0915
 4649W        W18063  12.455  14.054  15.952  0.2595  0.1421  0.2677
 4650W        W18064  11.262   1.592  15.159 -0.2226  0.2375 -0.1104
 4651W        W18065   7.190  14.488  14.540  0.1915 -0.1619  0.1585
 4652W        W18066   3.177  10.263  11.545 -0.0525  0.1857  0.0712
 4653W        W18067   8.705  15.734  15.661 -0.0240 -0.2460 -0.3119
 4654W        W18068   4.994  12.656   5.232 -0.2277  0.0925  0.1338
 4655W        W18069   0.487   9.919  14.373  0.1016 -0.1743 -0.0288
 4656W        W18070   4.015  17.421  11.306 -0.2963 -0.1538 -0.0248
 4657W        W18071  12.196   3.788   5.022  0.2357 -0.0218 -0.0331
 4658W        W18072   1.745  10.744   0.892  0.0169  0.1368  0.0482
 4659W        W18073   2.190  13.566  11.608  0.0379  0.1858  0.1440
 4660W        W18074  17.715  14.663  13.789  0.0310  0.1006  0.1348
 4661W        W18075  13.312   5.435  12.878  0.1453  0.1022  0.0310
 4662W        W18076   6.006   1.613  11.729 -0.0646  0.0733 -0.0753
 4663W        W18077   4.736   3.633   1.290 -0.0821 -0.2071 -0.0103
 4664W        W18078   6.489   3.026   9.894  0.1032 -0.1336  0.2746
 4665W        W18079   9.171   9.778  15.415  0.1229  0.0705 -0.1434
 4666W        W18080   2.004   7.945  13.079 -0.5281 -0.0405  0.1696
 4667W        W18081   3.055  11.452  16.263 -0.1734  0.0955 -0.1810
 4668W        W18082  15.037  13.730   1.860  0.1454 -0.0359 -0.2670
 4669W        W18083   2.468   0.338   3.609  0.3193  0.0004  0.0036
 4670W        W18084   9.065   8.265  13.795 -0.1465 -0.3444 -0.2119
 4671W        W18085  14.540  12.772   4.478  0.0219  0.1315 -0.1181
 4672W        W18086   7.458   1.620  14.429 -0.3040  0.3194  0.2064
 4673W        W18087   1.799  15.173  15.049  0.0892 -0.2518  0.1235
 4674W        W18088   2.992   3.901   1.892  0.2083  0.2059 -0.0572
 4675W        W18089  10.113  16.395   3.356  0.0838 -0.1719 -0.3709
 4676W        W18090  17.917  11.518   1.166 -0.0782 -0.0828 -0.0623
 4677W        W18091   8.054  11.911  15.799 -0.0141 -0.0922  0.1807
 4678W        W18092   7.488   4.090  12.104  0.1024  0.1021 -0.0475
 4679W        W18093  15.293  15.911  10.768  0.0375 -0.1277 -0.1252
 4680W        W18094  14.459   3.601   1.195 -0.0591  0.3256  0.0795
 4681W        W18095  17.100  10.852   1.167  0.1616 -0.0550  0.1168
 4682W        W18096   1.960   9.690  12.755 -0.1071  0.0359  0.0707
 4683W        W18097  12.681   2.646  14.893 -0.1138  0.0532 -0.0836
 4684W        W18098  15.645   0.843  12.047  0.2910  0.0190 -0.2527
 4685W        W18099   2.056  12.013  12.921 -0.1444 -0.0212  0.2524
 4686W        W18100   7.389  13.159  12.786  0.1354  0.2396 -0.2754
 4687W        W18101  17.057  18.041  10.729  0.3274 -0.3072  0.2439
 4688W        W18102   4.388   0.434  11.230 -0.0616  0.2197 -0.0794
 4689W        W18103   5.625   7.244  11.304  0.0958  0.0380  0.0413
 4690W        W18104  11.018   7.287  14.803 -0.0035  0.0832  0.0442
 4691W        W18105   4.578   4.811  13.446  0.0429 -0.2201 -0.2174
 4692W        W18106   3.821   0.220  15.663 -0.2519 -0.1866  0.1628
 4693W        W18107   0.159  13.691  11.207 -0.0592 -0.2100 -0.2113
 4694W        W18108   2.969  12.894   3.146 -0.0174  0.0577  0.2316
 4695W        W18109  17.507  17.105  15.441  0.2411  0.0662 -0.1240
 4696W        W18110  16.922   7.129  16.069  0.3425 -0.0592  0.0984
 4697W        W18111  10.657   7.490  12.044  0.0855  0.0420  0.0102
 4698W        W18112   9.242   6.206   1.270 -0.1142 -0.0335  0.0073
 4699W        W18113  13.492   1.894   4.978  0.0876  0.0681 -0.0598
 4700W        W18114   8.124   0.439   4.616 -0.3032  0.2400 -0.0371
 4701W        W18115  17.336  11.145   2.150 -0.2606  0.4187 -0.1084
 4702W        W18116   5.934   2.668   0.966 -0.2919  0.3887 -0.2669
 4703W        W18117  16.984   6.856   2.954 -0.0298 -0.0357 -0.1773
 4704W        W18118  16.784   4.231   3.721  0.0445  0.0062  0.0803
 4705W        W18119  17.909  11.078  10.735 -0.0039 -0.0658  0.1174
 4706W        W18120  13.832  14.364  14.456 -0.1703 -0.0868  0.0371
 4707W        W18121   9.804  14.652   5.022  0.2625  0.1915 -0.0971
 4708W        W18122  16.556   2.153   5.414  0.2224 -0.1391  0.0254
 4709W        W18123   7.105  12.511  11.155  0.1236  0.1495 -0.1478
 4710W        W18124   2.944   5.386  14.685  0.1815 -0.0816 -0.0930
 4711W        W18125  15.543  10.123   3.305  0.0797  0.0737 -0.3005
 4712W        W18126   1.841   8.736  12.466 -0.0683 -0.0416 -0.1775
 4713W        W18127  13.217   2.335  12.518 -0.0630 -0.0379  0.1601
 4714W        W18128  14.210   3.509   2.498  0.0483  0.2094 -0.0671
 4715W        W18129  10.803   0.687   2.527 -0.1874  0.1764  0.0873
 4716W        W18130  15.032  12.141   0.360 -0.3277 -0.1248  0.0149
 4717W        W18131   8.382  16.711   3.237 -0.1531  0.1388  0.0345
 4718W        W18132  12.554   8.255   0.899  0.0437  0.2838 -0.1676
 4719W        W18133  15.060  14.083  10.941  0.1116 -0.0618  0.1471
 4720W        W18134  13.753   7.723   5.221 -0.0289  0.1544  0.0979
 4721W        W18135  17.192  12.720  16.393 -0.1557 -0.0667 -0.0036
 4722W        W18136  13.373   9.204  12.071  0.3159 -0.1783  0.2050
 4723W        W18137   4.445  10.525   1.889 -0.0094  0.1322  0.0150
 4724W        W18138  18.008   2.608   4.452  0.3155  0.2250  0.0020
 4725W        W18139   3.044   6.118  12.636 -0.2121  0.0940  0.0357
 4726W        W18140  16.276   9.552   4.214  0.0741  0.0052  0.1476
 4727W        W18141   2.272  15.993   1.369 -0.1615 -0.1813 -0.3985
 4728W        W18142   4.509   4.781   1.142  0.0778  0.2025  0.0822
 4729W        W18143   9.124  11.551  15.694  0.2207 -0.3004 -0.2771
 4730W        W18144   9.427  15.748   5.302 -0.2391  0.1614  0.0869
 4731W        W18145   2.635   8.483  11.405  0.2485 -0.0096  0.0898
 4732W        W18146   5.350  14.134   0.085  0.2202 -0.0375  0.0877
 4733W        W18147  14.517   1.448   4.050 -0.1052 -0.0002  0.1112
 4734W        W18148   4.436   2.011   0.161 -0.1842  0.2103 -0.1659
 4735W        W18149   2.470  11.054   2.808  0.2497 -0.2632  0.1332
 4736W        W18150   1.947   1.356  13.222  0.1180 -0.1104 -0.3434
 4737W        W18151   5.985   4.427   6.376 -0.0765  0.2801  0.0952
 4738W        W18152   4.321   3.832   1.459 -0.0953 -0.0245 -0.3557
 4739W        W18153   7.770  13.138   2.480  0.0701 -0.0701  0.1137
 4740W        W18154  13.004   0.804  15.930 -0.3216  0.0989  0.1178
 4741W        W18155  10.905  15.589   4.161 -0.0521 -0.1186 -0.2202
 4742W        W18156  15.729   4.659  14.410  0.2780  0.0571 -0.0536
 4743W        W18157   9.409   2.853  12.467 -0.0473  0.0034 -0.2244
 4744W        W18158  16.010  11.150  13.721  0.2361  0.2176  0.1045
 4745W        W18159   4.909  13.483   1.100 -0.1468 -0.2088  0.1518
 4746W        W18160   4.000  17.828   0.588  0.0938 -0.2675 -0.3860
 4747W        W18161   2.910  12.429   4.867  0.0102  0.0527 -0.1533
 4748W        W18162   3.422   1.269  13.848 -0.0632 -0.0644 -0.3857
 4749W        W18163   7.856   4.468  13.805  0.2621 -0.2775 -0.2528
 4750W        W18164   1.277   0.029   3.583  0.0557  0.2040 -0.3936
 4751W        W18165   1.095   6.946   1.481 -0.0475 -0.1303 -0.1454
 4752W        W18166   2.693  17.958   3.866  0.0269  0.1064  0.0797
 4753W        W18167   6.835   4.343  15.831 -0.0249 -0.0780 -0.1959
 4754W        W18168  17.439  13.726  10.776  0.2351  0.1797 -0.0107
 4755W        W18169   7.643  11.363   3.397 -0.2774 -0.2134  0.0103
 4756W        W18170  14.641  15.358  10.674 -0.0000 -0.1559  0.1614
 4757W        W18171   7.125   0.820  10.736  0.1514 -0.4541 -0.1538
 4758W        W18172   9.173   5.783   0.285  0.0292  0.0412 -0.3888
 4759W        W18173  13.984  15.443   2.338 -0.0683 -0.0815  0.0169
 4760W        W18174   0.594  13.887  11.629  0.0404  0.0138 -0.3400
 4761W        W18175   8.193  13.124   5.667 -0.2016  0.0115  0.1029
 4762W        W18176  16.974  11.035  13.979  0.1492  0.0980 -0.1419
 4763W        W18177   6.750  10.262   4.524  0.1826  0.0759 -0.2958
 4764W        W18178  14.510  16.012  13.875  0.0495  0.0648  0.1959
 4765W        W18179   5.649   5.795   0.034  0.1185 -0.0747 -0.3417
 4766W        W18180   1.751   9.609   0.861  0.3083 -0.0725  0.2982
 4767W        W18181  15.838  17.437  14.299  0.0365  0.1451 -0.0946
 4768W        W18182  17.664   9.009   3.135  0.2391 -0.1077 -0.1490
 4769W        W18183  11.510  12.313  14.687  0.0071  0.0801  0.1565
 4770W        W18184   0.181  18.041   4.842  0.1916 -0.0376  0.2290
 4771W        W18185  16.225   1.841  11.997  0.1112 -0.3617  0.3137
 4772W        W18186  16.484  14.122  13.468  0.1158 -0.3111  0.2112
 4773W        W18187   2.044   2.723  11.926 -0.2057  0.1119  0.4150
 4774W        W18188   3.395  15.492   5.163  0.1500 -0.0512  0.1322
 4775W        W18189  14.930   7.568  10.562 -0.0925  0.0705  0.3196
 4776W        W18190   0.694  14.410  13.629 -0.4200 -0.0718 -0.0997
 4777W        W18191   1.791   4.650   5.492 -0.4085  0.0019  0.3479
 4778W        W18192   0.826   5.434   1.907  0.1222 -0.0378  0.3377
 4779W        W18193  16.784   2.785  11.564  0.2147 -0.1976  0.2000
 4780W        W18194   5.929  15.678   4.066 -0.0954  0.0445 -0.1700
 4781W        W18195   4.221  15.548  11.262  0.1646 -0.1209  0.0741
 4782W        W18196   6.539  10.415   5.427  0.2234 -0.1533 -0.3238
 4783W        W18197  14.437  10.130   5.258  0.0554  0.3558 -0.1094
 4784W        W18198  11.280  12.344  11.621  0.2449  0.1119  0.0122
 4785W        W18199   0.628  17.238   3.970 -0.1506  0.1943  0.1008
 4786W        W18200  13.609   3.710   4.340 -0.2591  0.3185 -0.1481
 4787W        W18201   1.883   6.268   2.174 -0.1419  0.0776  0.0536
 4788W        W18202   4.628   3.662   2.191  0.0067 -0.1581  0.0253
 4789W        W18203  11.827   8.698   0.898  0.2112  0.2684  0.1414
 4790W        W18204  10.093   8.967  15.763  0.2530 -0.0919  0.0199
 4791W        W18205   1.551   7.151  16.599 -0.0329 -0.0007 -0.0484
 4792W        W18206   8.823  13.781   3.403 -0.0156 -0.2126  0.0523
 4793W        W18207  16.789   1.719   5.140 -0.1752 -0.0848  0.2928
 4794W        W18208   2.814   3.996   5.978 -0.1746  0.1574 -0.1237
 4795W        W18209   3.382   7.008   4.586 -0.1432  0.0359  0.1843
 4796W        W18210   6.747   9.484   4.256  0.2665 -0.0922  0.2072
 4797W        W18211   5.077   6.728   2.434 -0.2794 -0.1332 -0.2118
 4798W        W18212  10.552   4.322  12.816  0.3720 -0.0778  0.0592
 4799W        W18213   5.889   0.107  14.120  0.2597 -0.0726 -0.0528
 4800W        W18214  13.530   9.929  10.123 -0.2264 -0.1715 -0.2424
 4801W        W18215   3.918  10.426   5.124  0.1709 -0.1909 -0.2519
 4802W        W18216   5.140   5.501   4.746 -0.5635 -0.1794 -0.2109
 4803W        W18217   1.257  15.621   5.649  0.4307 -0.3102 -0.1925
 4804W        W18218  13.871   8.965  13.040  0.0583 -0.2545 -0.0984
 4805W        W18219  13.589  17.701  16.309  0.2049 -0.1105 -0.0939
 4806W        W18220  12.955  11.978  13.288  0.0844 -0.0069  0.0545
 4807W        W18221   8.266   8.894  11.490  0.1450  0.0302 -0.2504
 4808W        W18222   3.755   9.150   4.245  0.0262  0.1099  0.1111
 4809W        W18223  12.833  16.241   0.875 -0.0710 -0.1084 -0.0192
 4810W        W18224  17.276   7.333  13.739 -0.0452 -0.1256 -0.0786
 4811W        W18225  14.549   1.047   1.853  0.3610 -0.1038  0.2752
 4812W        W18226  10.982  15.569  14.102 -0.2158  0.0614 -0.3657
 4813W        W18227  11.231   3.045   2.633 -0.0939 -0.0095 -0.1180
 4814W        W18228  10.841  17.640  14.169 -0.1035  0.4308 -0.0237
 4815W        W18229   6.190  17.955   1.379 -0.0508 -0.0008 -0.0024
 4816W        W18230   1.150  12.348   5.439 -0.0677 -0.2987 -0.0874
 4817W        W18231  13.517  17.750  13.196 -0.2646  0.2187 -0.0661
 4818W        W18232   1.010  12.287   1.162 -0.2439  0.0671  0.3098
 4819W        W18233   9.929   3.199   3.020 -0.0912 -0.2154 -0.1041
 4820W        W18234  15.716  12.796   0.099  0.1291 -0.1439 -0.0267
 4821W        W18235   2.718  16.508  15.160  0.0162  0.0369  0.0278
 4822W        W18236   2.971   5.945   4.020  0.1672  0.2363  0.0158
 4823W        W18237   4.237   3.407   1.137 -0.0058  0.2162  0.1488
 4824W        W18238   9.211  12.800   3.509  0.0606  0.1892  0.1568
 4825W        W18239  13.413  15.490   4.750 -0.1018 -0.3849  0.2593
 4826W        W18240   8.794   5.923   1.324  0.1207  0.0581 -0.2381
 4827W        W18241   7.964   2.177  10.600 -0.3028 -0.1653  0.3222
 4828W        W18242   1.814   2.127  16.020  0.3685  0.3306 -0.0981
 4829W        W18243   4.955   8.972  15.363  0.1255  0.4750 -0.1861
 4830W        W18244   8.965   7.347  13.915  0.0061  0.1136  0.0907
 4831W        W18245   3.186  11.659   6.565 -0.1378  0.0039  0.1768
 4832W        W18246   3.774  10.913  14.161  0.0782 -0.2163  0.1346
 4833W        W18247  14.515   3.638   4.817  0.1024 -0.1525  0.1530
 4834W        W18248  13.906  12.287  11.567  0.1378  0.2052 -0.2300
 4835W        W18249  13.067   6.462  11.016 -0.0187 -0.2574  0.3154
 4836W        W18250  10.524  15.639   3.816  0.0219  0.1443 -0.0157
 4837W        W18251   1.984  15.652   0.544 -0.1353  0.0544 -0.1974
 4838W        W18252  12.804   7.233  14.197  0.2253  0.3001 -0.0793
 4839W        W18253   3.826   2.748  13.830  0.0883 -0.0067  0.3945
 4840W        W18254   1.956  10.942  15.570 -0.2009  0.0488  0.0755
 4841W        W18255   0.960   7.533   5.787 -0.1494 -0.1184  0.0272
 4842W        W18256  14.191   3.754  10.980 -0.0988  0.2230  0.3984
 4843W        W18257  17.012   3.099   4.608 -0.0601 -0.2017 -0.1212
 4844W        W18258   8.285   3.396  12.521 -0.1976  0.0205  0.2826
 4845W        W18259  13.039   0.381   3.332 -0.1664 -0.0801  0.0214
 4846W        W18260   5.903   0.480  12.183  0.0290 -0.0949  0.0943
 4847W        W18261   9.783   7.883   1.326  0.0947  0.5621 -0.1649
 4848W        W18262   1.478   1.729   0.102 -0.1564  0.1364 -0.4665
 4849W        W18263  17.437   6.771  16.094  0.2416  0.1124  0.0082
 4850W        W18264   1.649   4.219   1.504 -0.1546 -0.0625  0.0918
 4851W        W18265   7.084  17.162  11.963 -0.0347  0.0892 -0.1744
 4852W        W18266   6.140   6.585  14.685 -0.1401 -0.0120  0.1668
 4853W        W18267   4.842  16.859   5.344 -0.0175 -0.1129  0.5399
 4854W        W18268  14.326   6.969   0.481  0.0174  0.1908 -0.1595
 4855W        W18269  17.823  12.041   1.011  0.2996 -0.0126 -0.2310
 4856W        W18270  15.252   9.672  13.885  0.3605 -0.0151  0.0961
 4857W        W18271  12.784   1.224  16.009 -0.2941 -0.2716 -0.3462
 4858W        W18272   6.322   3.872   1.560  0.0135 -0.0994  0.2388
 4859W        W18273   1.672  13.189   5.180 -0.2019 -0.0207  0.4968
 4860W        W18274  16.590   0.251   5.042  0.0986 -0.2109 -0.2110
 4861W        W18275   5.579   0.281   5.125  0.1113 -0.4024 -0.0084
 4862W        W18276  12.354   6.595   2.693 -0.0247  0.0015  0.1855
 4863W        W18277   8.617   9.596  12.988 -0.0231 -0.0443  0.2110
 4864W        W18278  11.318  15.635   0.286 -0.4574 -0.1438 -0.2125
 4865W        W18279   0.219   1.010   5.314 -0.0341 -0.1194  0.0590
 4866W        W18280   6.669   8.154   5.767  0.2641  0.0853  0.2981
 4867W        W18281   7.693  15.491   0.297  0.1514 -0.4538  0.1094
 4868W        W18282  15.460  15.591   1.391 -0.1987 -0.0275  0.3691
 4869W        W18283   9.764  10.448  14.236  0.2096 -0.0421 -0.0528
 4870W        W18284  16.238  10.424   3.788 -0.0878 -0.0398  0.2180
 4871W        W18285   7.243  16.062   1.026 -0.1437  0.0584  0.0495
 4872W        W18286   9.449   8.240   2.125 -0.0500 -0.2714  0.3336
 4873W        W18287   1.530   0.961  15.445 -0.1564 -0.1520 -0.1861
 4874W        W18288   8.411   4.698  13.527 -0.0124  0.1324  0.0110
 4875W        W18289  13.909  14.046  12.577 -0.1352 -0.0353 -0.0233
 4876W        W18290   0.106   3.146   6.140 -0.0704  0.0595  0.0011
 4877W        W18291  14.439  17.599  11.583 -0.1307 -0.1452 -0.0522
 4878W        W18292   7.154   0.415  10.392 -0.1916  0.0073  0.1645
 4879W        W18293   9.516  12.456   1.279  0.3321  0.0574 -0.0601
 4880W        W18294  17.124  12.055  12.667  0.1872 -0.3688  0.1460
 4881W        W18295  16.377  11.105  16.298  0.0535  0.2778  0.0531
 4882W        W18296  14.770  15.799   0.715 -0.1825 -0.0144  0.0428
 4883W        W18297   8.230   4.238  15.514  0.0364  0.0075  0.0484
 4884W        W18298  17.488   3.475   2.523  0.1143 -0.2217  0.1378
 4885W        W18299  16.267   8.920  13.741 -0.0563  0.0994 -0.0593
 4886W        W18300   3.856   4.114   2.656 -0.1143  0.1816 -0.2740
 4887W        W18301   0.489  10.658   4.699 -0.0582 -0.0104 -0.0080
 4888W        W18302   1.871  14.392   4.331  0.3982 -0.0385 -0.3811
 4889W        W18303   0.217   8.096  11.707 -0.0983  0.2705 -0.0265
 4890W        W18304   2.271   5.320  13.351 -0.1737  0.0400  0.2465
 4891W        W18305  17.999  10.768  16.410  0.1962  0.0982  0.1860
 4892W        W18306  10.390  13.851  14.126 -0.1841  0.1677 -0.0817
 4893W        W18307  17.368   6.740  16.634 -0.2560 -0.2845 -0.1492
 4894W        W18308   0.839  12.788   2.500 -0.4250  0.0278 -0.0729
 4895W        W18309   3.070   8.032   5.706  0.0495 -0.0781 -0.0480
 4896W        W18310  17.890   2.062   6.315  0.0294 -0.3026 -0.2000
 4897W        W18311  15.773  13.036  12.484  0.2442 -0.0899 -0.0837
 4898W        W18312  13.293   4.459  11.679 -0.2221  0.1553 -0.1370
 4899W        W18313  17.940   1.196  11.010 -0.0527 -0.0359 -0.1205
 4900W        W18314   0.384   1.946  14.422 -0.0043  0.0070 -0.1880
 4901W        W18315   3.591   0.897   6.124 -0.0584 -0.1474  0.0147
 4902W        W18316   9.668  16.658   0.177  0.0393 -0.0019 -0.2753
 4903W        W18317   0.541  13.833   0.368  0.0416  0.0416 -0.0611
 4904W        W18318  10.338   7.278   3.595 -0.0144 -0.0100  0.1054
 4905W        W18319   8.204  16.941  15.196  0.0905 -0.3488 -0.1444
 4906W        W18320   0.997  15.289   2.215  0.3999  0.4089 -0.2211
 4907W        W18321  12.689  15.469  15.209 -0.0554  0.1794  0.4381
 4908W        W18322   1.888   4.448   0.782  0.0200  0.0350 -0.0272
 4909W        W18323   8.989   2.890  16.315 -0.2383  0.0331  0.1117
 4910W        W18324  17.598   5.981   3.924 -0.2106 -0.2315 -0.0481
 4911W        W18325  12.510  14.544   3.549 -0.1446  0.1890 -0.0309
 4912W        W18326   1.902  10.523  12.791  0.0207  0.3362  0.0419
 4913W        W18327  11.288  13.099  13.006  0.2018 -0.1484 -0.0060
 4914W        W18328  15.510   1.514   3.798 -0.0436  0.0216  0.1873
 4915W        W18329   8.651  13.457  12.902 -0.0549  0.1199 -0.0809
 4916W        W18330  10.165  13.666   1.782 -0.0657 -0.1204  0.1689
 4917W        W18331   8.693   1.608   4.154  0.0295  0.1422 -0.0082
 4918W        W18332   4.332   6.832   2.194  0.0554  0.3337  0.0640
 4919W        W18333   4.507   9.878   4.234  0.1626 -0.1272  0.0933
 4920W        W18334   0.453   6.918  10.836 -0.2932  0.1480  0.1350
 4921W        W18335   9.765  17.310  13.113  0.0213  0.0988 -0.1864
 4922W        W18336   2.230  17.785  14.111  0.0456 -0.0234 -0.1456
 4923W        W18337   2.053  16.679  11.855 -0.0443  0.1769  0.0780
 4924W        W18338  15.638   9.233  15.927 -0.0205 -0.0046 -0.0149
 4925W        W18339  15.532   6.047  14.278 -0.2675  0.3340  0.0240
 4926W        W18340  10.242   2.062   2.828  0.2626  0.1867 -0.3883
 4927W        W18341  15.221   9.988   5.711 -0.0032  0.1153  0.0056
 4928W        W18342   4.082   7.980  12.305 -0.0218  0.0338 -0.0622
 4929W        W18343  14.348  12.174  15.169  0.0408 -0.0190  0.0066
 4930W        W18344   5.780   3.052  12.766 -0.0297  0.2158 -0.0382
 4931W        W18345  17.285  16.409   5.201  0.0858 -0.3920 -0.0062
 4932W        W18346   4.154  18.050   2.098  0.1422 -0.1104 -0.2105
 4933W        W18347  14.362  12.119  16.608  0.0772 -0.1462 -0.0019
 4934W        W18348   7.645   1.427   3.082  0.5085  0.0132 -0.1174
 4935W        W18349  13.604   2.079   0.828 -0.1369  0.0345 -0.1426
 4936W        W18350  10.981   4.866  16.641  0.1871  0.0980  0.1907
 4937W        W18351  10.854   7.578  13.461  0.2234 -0.1583 -0.0473
 4938W        W18352  11.984   0.122   5.579 -0.3128 -0.0160  0.1031
 4939W        W18353   4.841   2.133  16.517  0.0689  0.0480 -0.1336
 4940W        W18354  12.265  10.496  11.519  0.1124  0.0216  0.3265
 4941W        W18355   6.154   1.185   2.967 -0.2690 -0.1133 -0.0701
 4942W        W18356   7.267   6.304   4.635  0.2051  0.3305  0.0577
 4943W        W18357  15.171  16.832   0.474 -0.1709  0.0274 -0.1772
 4944W        W18358   5.422  10.428   5.386  0.3442 -0.1048  0.1099
 4945W        W18359   5.242  17.657  11.155  0.0451 -0.0905  0.0505
 4946W        W18360   1.590   0.345   5.597 -0.0136  0.1593  0.0060
 4947W        W18361  13.671   5.630  13.856  0.0213 -0.1068 -0.0960
 4948W        W18362   5.247  11.909   4.279  0.2304 -0.0958 -0.0020
 4949W        W18363  17.399  12.694  13.704 -0.1239 -0.1949  0.2528
 4950W        W18364  11.544   4.568   1.247 -0.0587  0.0388 -0.0124
 4951W        W18365   8.199  16.937   2.253  0.0077 -0.0247 -0.1270
 4952W        W18366  16.366   0.159  14.960  0.3173  0.2528 -0.0433
 4953W        W18367  15.816  17.536  11.891  0.1659 -0.0345 -0.1054
 4954W        W18368   2.225  13.302   2.341 -0.0208 -0.0982  0.0529
 4955W        W18369  17.956   1.816   0.852  0.1944 -0.1486  0.0471
 4956W        W18370   9.644   1.019  10.459 -0.0771 -0.0204 -0.0303
 4957W        W18371   3.683   5.104   5.643 -0.0181  0.2228 -0.3626
 4958W        W18372  10.802   5.575   3.744  0.2698  0.2923 -0.2630
 4959W        W18373  10.869   8.086   0.778 -0.0698  0.2447 -0.0509
 4960W        W18374   9.785  12.136  12.205  0.1075  0.1169 -0.3050
 4961W        W18375   4.242   7.469   0.377  0.0880  0.1877 -0.1632
 4962W        W18376  13.922   5.508   4.401 -0.0927  0.0563 -0.1345
 4963W        W18377   5.444   6.119   5.514  0.2915  0.2213  0.1001
 4964W        W18378   4.565   6.567   3.605 -0.1164  0.0734 -0.1757
 4965W        W18379  17.098   8.542  13.018 -0.2491 -0.2212 -0.0368
 4966W        W18380   6.836   7.206  14.492  0.0979 -0.3056 -0.1811
 4967W        W18381  17.162   3.061   2.686  0.4645 -0.2254 -0.0562
 4968W        W18382  14.158  14.296  14.030 -0.0518 -0.0665 -0.0262
 4969W        W18383  15.297   3.000  15.653 -0.0906  0.0205  0.0108
 4970W        W18384  17.494  17.645   3.699 -0.2827 -0.1981 -0.0959
 4971W        W18385   8.521  10.361  13.289  0.3564  0.2316 -0.2595
 4972W        W18386   0.701   3.654  12.307 -0.0834 -0.0566 -0.1871
 4973W        W18387  13.125   8.326   4.333  0.3832  0.1156  0.0365
 4974W        W18388   1.491  12.233   9.965 -0.3387 -0.0803  0.0384
 4975W        W18389  13.372   1.353   4.784 -0.1534 -0.1324  0.3065
 4976W        W18390  10.462  16.579  12.181  0.2145  0.0056  0.3196
 4977W        W18391  15.035  15.529   1.070 -0.0389  0.0153  0.0941
 4978W        W18392   7.720  13.083   5.503 -0.0984  0.0052  0.0916
 4979W        W18393   9.231  15.096  11.706  0.1458 -0.0659 -0.1295
 4980W        W18394   5.587   5.543   0.535  0.0724  0.1454  0.0861
 4981W        W18395   8.172   0.365   0.231 -0.0941 -0.2694  0.4719
 4982W        W18396  10.749   0.591  16.242  0.0914  0.2234  0.1108
 4983W        W18397   2.714   6.333  11.047  0.0202 -0.1595  0.3668
 4984W        W18398   0.821   6.716   0.684 -0.2135  0.0340 -0.0813
 4985W        W18399  17.534   9.360   0.426 -0.1147  0.0935  0.0056
 4986W        W18400  10.098   6.404  15.741  0.1697  0.1115 -0.1414
 4987W        W18401   9.496  16.759  12.424 -0.1500  0.4098  0.1069
 4988W        W18402  10.869   7.102   2.463 -0.1425 -0.0837  0.4149
 4989W        W18403   6.183   0.166  12.556 -0.1290 -0.2400 -0.0429
 4990W        W18404   4.550   1.544   1.337 -0.2065 -0.3022  0.1268
 4991W        W18405  16.130  10.290  11.428  0.1060  0.1167  0.0967
 4992W        W18406  17.567   4.430   2.541  0.0055 -0.1353 -0.2443
 4993W        W18407  14.412  13.287  11.535  0.0614 -0.0677 -0.1627
 4994W        W18408   2.863  12.163  13.263  0.2656 -0.4186  0.1383
 4995W        W18409  13.794   3.213  11.680  0.2405  0.2105  0.0287
 4996W        W18410   4.205   0.640   6.702 -0.2151 -0.1327  0.0872
 4997W        W18411  13.216  15.505  14.367 -0.0951 -0.1922  0.1340
 4998W        W18412   8.908  12.146   2.836  0.0445  0.1922 -0.3207
 4999W        W18413   1.501   7.105  12.254  0.2279  0.1494 -0.1426
 5000W        W18414   2.198  14.346  12.327  0.0834  0.0584  0.2848
 5001W        W18415  10.975   7.789   5.133 -0.0759 -0.0189  0.0888
 5002W        W18416   7.234  13.619   0.325  0.0702  0.3297 -0.1555
 5003W        W18417   3.663   6.266  10.753  0.3089  0.0139  0.0476
 5004W        W18418   1.289  14.174   4.852  0.1791 -0.0726 -0.0695
 5005W        W18419  15.088   7.581   3.695  0.1465 -0.2001 -0.1246
 5006W        W18420   1.076  15.366  11.491  0.0751  0.0563 -0.1030
 5007W        W18421   7.502   1.346   0.390 -0.1081 -0.3361  0.1945
 5008W        W18422   5.695  12.647   2.962 -0.0467 -0.2394 -0.0160
 5009W        W18423  13.548  14.695  11.368 -0.1956  0.2112 -0.1982
 5010W        W18424  16.111  10.807  15.697 -0.1556  0.0586  0.0891
 5011W        W18425  12.609   9.708  12.393  0.0933 -0.1333 -0.0829
 5012W        W18426  16.872  16.833   3.787 -0.3163  0.0568 -0.3349
 5013W        W18427  12.088   0.094  10.630 -0.1487 -0.1968 -0.1220
 5014W        W18428   2.176   9.449  15.726 -0.2384 -0.0239  0.1839
 5015W        W18429   2.336  12.498   1.761  0.3049  0.0515 -0.2530
 5016W        W18430  12.021   6.173  16.666  0.0310  0.2689 -0.0913
 5017W        W18431  12.420   1.633  15.992  0.1997 -0.3238 -0.0754
 5018W        W18432   0.632  16.797   0.208  0.1082 -0.2571 -0.4750
 5019W        W18433  14.138  17.552  12.574 -0.2085 -0.1344  0.0191
 5020W        W18434   7.638  17.856   0.232  0.0089  0.0968  0.1805
 5021W        W18435  12.170   4.657   0.929  0.1876 -0.1130 -0.2369
 5022W        W18436   9.837   7.385   1.107 -0.3110  0.1719  0.0199
 5023W        W18437   6.499   2.261   0.156  0.0902 -0.3035  0.1028
 5024W        W18438   6.888  10.817  13.823  0.0616 -0.1841 -0.0149
 5025W        W18439   2.368  15.488   2.712  0.2393  0.0867  0.2393
 5026W        W18440   1.008  15.858  12.870 -0.0128 -0.1226 -0.2996
 5027W        W18441  12.147   2.190  13.297  0.0916  0.5998  0.3602
 5028W        W18442   3.534   9.690  11.012  0.1285 -0.0388  0.2124
 5029W        W18443  10.237   2.325  10.933  0.0246 -0.0370 -0.0473
 5030W        W18444   9.498   2.604   3.070 -0.1286 -0.1228  0.1444
 5031W        W18445   8.399   6.058   1.536  0.1684  0.0868 -0.0425
 5032W        W18446  17.565  13.122   5.387 -0.0417 -0.0433 -0.0272
 5033W        W18447  14.221  13.713   1.373  0.2403 -0.0462 -0.0324
 5034W        W18448   4.733   5.275   2.584 -0.0415 -0.0388  0.3060
 5035W        W18449  10.227  10.234   9.977  0.0362 -0.0531  0.0111
 5036W        W18450  14.306   8.055  14.980  0.0102 -0.2703  0.2683
 5037W        W18451  17.868  16.809  14.163 -0.0655  0.1875 -0.3034
 5038W        W18452   6.243   6.600  13.389 -0.2308  0.0045 -0.1166
 5039W        W18453  10.679  12.656   0.455 -0.0056  0.0795  0.0120
 5040W        W18454  14.977   2.622   0.873  0.0011  0.2158 -0.0236
 5041W        W18455   0.496   1.529  11.632 -0.3195 -0.0858 -0.0159
 5042W        W18456   7.170   0.010  14.939 -0.2794 -0.1285 -0.1037
 5043W        W18457   8.724  17.590  15.558  0.1913 -0.1727 -0.3962
 5044W        W18458  17.342   4.185   4.556  0.0030 -0.0739 -0.0687
 5045W        W18459  16.209   9.786   1.189 -0.0195  0.2452  0.1504
 5046W        W18460  11.338   2.103  10.627  0.3068 -0.1089  0.0746
 5047W        W18461   8.588  14.385  14.151  0.0802 -0.1347 -0.3750
 5048W        W18462   0.662   1.888   2.917  0.0205 -0.0829 -0.2440
 5049W        W18463  14.043   0.934   1.844 -0.1134  0.3860 -0.2287
 5050W        W18464  14.777  14.239  13.171  0.0400  0.0769 -0.1701
 5051W        W18465  15.431   9.523   0.910  0.3267 -0.0947  0.0884
 5052W        W18466   6.548   7.196  15.942 -0.2630  0.2919  0.0843
 5053W        W18467   2.079   4.889  16.150  0.0629  0.0329  0.2213
 5054W        W18468   5.210   5.518   0.199 -0.2186 -0.5086 -0.0142
 5055W        W18469   1.982  13.304  14.067  0.0215 -0.0070  0.0488
 5056W        W18470  13.951  14.382   0.406  0.0588 -0.1418  0.0297
 5057W        W18471   3.709  13.120   1.613  0.1263 -0.0457  0.1982
 5058W        W18472  15.873   4.034  15.379  0.1898  0.0454 -0.0421
 5059W        W18473   1.653   5.963  14.668 -0.3277 -0.0040 -0.0715
 5060W        W18474   9.978  14.513   2.324  0.1132 -0.1552 -0.1179
 5061W        W18475  15.531   2.655  15.941  0.4146 -0.2507 -0.0376
 5062W        W18476   2.593   0.951  11.711 -0.3171 -0.0971 -0.1528
 5063W        W18477   8.465   8.381   2.293 -0.4360 -0.3332 -0.3253
 5064W        W18478   3.405   5.031  10.988  0.1730  0.1784 -0.0791
 5065W        W18479  13.363   5.024   3.387  0.0897 -0.2289 -0.0550
 5066W        W18480  13.332   3.680  12.812  0.1053 -0.1530  0.1052
 5067W        W18481  12.892  16.985  16.285  0.0542 -0.1455  0.1492
 5068W        W18482   9.082   2.242   3.142  0.0071  0.0443 -0.0597
 5069W        W18483  11.306  15.302  13.794 -0.1399 -0.1514  0.1294
 5070W        W18484   5.455  14.419  12.448 -0.0655 -0.0706 -0.3062
 5071W        W18485  14.847   4.403  15.777 -0.0082 -0.1557 -0.2015
 5072W        W18486   0.580   6.697   3.565 -0.1968  0.0417 -0.0216
 5073W        W18487  13.855  14.361  13.084  0.0219  0.2309 -0.1739
 5074W        W18488  16.401   7.636   1.935 -0.0055 -0.0371  0.2321
 5075W        W18489   3.097   7.178   4.998 -0.1555 -0.1178  0.4345
 5076W        W18490  17.804   0.163  14.130  0.0480  0.2785 -0.3433
 5077W        W18491   6.868  14.538  13.537  0.0973 -0.1861 -0.1008
 5078W        W18492   1.170  12.892  13.897 -0.0648  0.2009  0.3792
 5079W        W18493   3.341   3.727   2.226  0.3276 -0.2064 -0.2311
 5080W        W18494  16.793   7.914   5.832 -0.1237  0.0824 -0.2780
 5081W        W18495  12.299   8.922  10.763 -0.0324  0.0629 -0.1606
 5082W        W18496   9.801  15.972  15.749  0.0658  0.0851 -0.3218
 5083W        W18497   6.957   4.865   4.942  0.1513  0.0563 -0.2917
 5084W        W18498   7.316  17.370   1.452  0.1235  0.2334  0.2556
 5085W        W18499   2.054  14.105  10.796  0.0080  0.2241  0.0926
 5086W        W18500   0.943   5.084   5.380  0.2476 -0.1403  0.3431
 5087W        W18501   7.217   7.430  14.216 -0.0163  0.0484  0.2811
 5088W        W18502   6.756   2.145  14.235 -0.1498 -0.2164  0.1314
 5089W        W18503  10.673   7.216   5.872 -0.1040 -0.1445  0.1219
 5090W        W18504  17.707  16.995   0.404 -0.5416 -0.1262  0.1766
 5091W        W18505   5.536   8.078   5.018 -0.2539 -0.0513 -0.1185
 5092W        W18506   5.578   9.160  10.902 -0.1109 -0.0121  0.0577
 5093W        W18507  12.029   2.793   2.289  0.0401 -0.0402  0.2431
 5094W        W18508  10.325   9.556  10.858  0.3432 -0.1450  0.0762
 5095W        W18509  13.567   3.911  14.536 -0.2684  0.0881 -0.1280
 5096W        W18510  17.780  14.349  16.006 -0.2152 -0.0830  0.0887
 5097W        W18511  13.703   3.687   4.916  0.0037 -0.0213 -0.2134
 5098W        W18512  12.229   6.056  15.607 -0.0246  0.2259 -0.1744
 5099W        W18513   4.398   6.269  14.199 -0.0455  0.3041  0.1981
 5100W        W18514   1.552   0.523  12.391 -0.1377 -0.3881 -0.0913
 5101W        W18515   9.969   2.319  12.980  0.4281  0.3003  0.1991
 5102W        W18516  15.316  15.901   6.198  0.2075  0.3199  0.1662
 5103W        W18517  12.494  12.222   2.239 -0.0906  0.1304 -0.0343
 5104W        W18518   8.821   9.309  15.615  0.2015 -0.1308 -0.0333
 5105W        W18519  11.709   8.602   5.119  0.1060 -0.1098  0.1336
 5106W        W18520   6.180  10.439  10.779  0.2882 -0.0478  0.2166
 5107W        W18521   7.545   5.208   2.718  0.1524 -0.0013  0.1342
 5108W        W18522  13.914  15.477  13.824 -0.0068  0.0767 -0.0300
 5109W        W18523  16.125   3.300   4.662 -0.1234 -0.0214  0.3337
 5110W        W18524  16.731  14.443  13.065 -0.2180  0.0148  0.0829
 5111W        W18525   3.766   8.940  11.493 -0.0607  0.1157  0.2589
 5112W        W18526  11.120  11.762   3.170  0.0365  0.6991 -0.2626
 5113W        W18527   6.385   0.279   5.418 -0.0196  0.2574 -0.1169
 5114W        W18528  12.279  17.847  16.442  0.0530  0.2647 -0.1265
 5115W        W18529   8.851  14.968  12.712 -0.0235 -0.0842  0.0247
 5116W        W18530   5.141   4.648   3.154 -0.0248  0.1354  0.1989
 5117W        W18531  15.733   4.569   0.057  0.0169  0.1387  0.2465
 5118W        W18532  15.434   3.743   3.098 -0.0320  0.1013  0.2632
 5119W        W18533  12.136  13.819   2.836 -0.1323 -0.1921  0.1649
 5120W        W18534  14.387  15.957   5.240  0.1817  0.0428  0.0599
 5121W        W18535   6.908   3.249  13.929  0.1984 -0.0466  0.0544
 5122W        W18536   0.561   5.576   2.615  0.2176 -0.0252  0.2317
 5123W        W18537  17.623   3.221  13.184  0.0313 -0.1325  0.1647
 5124W        W18538  12.387  16.214   0.591  0.4714  0.0626  0.0176
 5125W        W18539  17.511  11.287  15.202  0.1895 -0.0982  0.1631
 5126W        W18540   3.210   0.348  13.492  0.0268  0.1316 -0.0015
 5127W        W18541   2.785   0.019  12.492 -0.0211 -0.0188 -0.2275
 5128W        W18542   0.242   0.697   1.497  0.0084  0.0636 -0.0749
 5129W        W18543  15.562  13.708   2.050  0.0788  0.2342 -0.2938
 5130W        W18544  13.603  16.405   2.414 -0.0308 -0.0598  0.1379
 5131W        W18545   0.135  15.919  14.123  0.1264 -0.2050 -0.2554
 5132W        W18546  11.293  11.764  11.476 -0.3032  0.0912  0.1157
 5133W        W18547  16.762   4.323  11.347 -0.1515  0.1856  0.2110
 5134W        W18548   4.833  17.197   3.351  0.1986  0.5261  0.0547
 5135W        W18549   8.603   4.082   1.557 -0.0206 -0.1322  0.4784
 5136W        W18550   9.307   1.107   4.594  0.0042  0.0411 -0.1735
 5137W        W18551  16.033   7.754   6.585  0.0437  0.2630 -0.1340
 5138W        W18552   4.961  15.823  12.258 -0.2365 -0.1075 -0.0893
 5139W        W18553  11.518   3.374  11.140  0.2081 -0.0360 -0.0223
 5140W        W18554   4.935   8.517  12.981 -0.2659 -0.0463  0.1010
 5141W        W18555  11.291  16.062  12.439  0.2436 -0.0216 -0.0264
 5142W        W18556   9.477   0.159   3.191 -0.1386  0.1127 -0.0876
 5143W        W18557   8.464   2.085  15.903 -0.1340 -0.1211 -0.2286
 5144W        W18558   1.872   8.124  11.468 -0.1823  0.1098  0.0883
 5145W        W18559   7.364  13.747  16.102 -0.0836 -0.0780  0.1645
 5146W        W18560   4.329   9.219   3.295 -0.1568  0.0306  0.0374
 5147W        W18561   1.933   7.072  15.360 -0.0706 -0.0963 -0.0863
 5148W        W18562  11.103   6.617   3.247 -0.1529  0.0907  0.0142
 5149W        W18563   3.398  13.566   4.490  0.1660 -0.0164 -0.1115
 5150W        W18564   7.116   6.295   2.574 -0.1005 -0.1586  0.1330
 5151W        W18565   6.837  13.576   3.983  0.0319  0.0050 -0.1832
 5152W        W18566   9.861   2.627  15.991 -0.1888 -0.1261  0.0715
 5153W        W18567  14.292  15.302  13.167 -0.1373 -0.3286  0.1193
 5154W        W18568   4.152   1.646  15.664 -0.0594  0.2115  0.0068
 5155W        W18569   5.887  17.541  15.471 -0.2982 -0.3477  0.0182
 5156W        W18570   0.693   9.665  12.978 -0.0363 -0.0131 -0.0018
 5157W        W18571  12.420  15.914  14.153 -0.0824 -0.0815 -0.2176
 5158W        W18572  16.348  15.972   1.393 -0.1932  0.1199 -0.0204
 5159W        W18573   8.800   3.808  16.019  0.1098  0.0603 -0.0369
 5160W        W18574  10.519   0.928  10.736  0.1569 -0.2210  0.0278
 5161W        W18575  11.076  17.203   5.608 -0.1444  0.5440 -0.1669
 5162W        W18576  15.101  15.728  15.442 -0.0371  0.1086 -0.1994
 5163W        W18577   8.442   9.148   5.183 -0.1717 -0.0736  0.1439
 5164W        W18578  15.819  15.206  13.994 -0.0647  0.2381 -0.1005
 5165W        W18579   9.205  10.266   2.226  0.0519 -0.2180  0.0760
 5166W        W18580  17.010  10.465   2.305 -0.2518 -0.0756  0.2693
 5167W        W18581   4.349  16.341  13.933 -0.0477  0.0446 -0.0616
 5168W        W18582   1.664   0.117  12.034 -0.1754  0.0947 -0.1975
 5169W        W18583   1.771   7.117  11.872 -0.1745 -0.0431 -0.2700
 5170W        W18584  14.134   2.935  12.002 -0.1409  0.0789 -0.0471
 5171W        W18585   9.517  16.807  10.091 -0.1520 -0.4139 -0.0446
 5172W        W18586  11.474   0.799  15.649  0.1608 -0.0402 -0.1680
 5173W        W18587  17.800   3.102   4.061 -0.0228 -0.3287 -0.1583
 5174W        W18588  10.388   0.186  14.781 -0.1117  0.0094  0.0909
 5175W        W18589  12.439  17.543  15.049 -0.0312 -0.0078 -0.2215
 5176W        W18590  17.411  15.795  13.136 -0.1490 -0.1128 -0.0030
 5177W        W18591  17.699  13.266   2.557  0.1363 -0.2816  0.2415
 5178W        W18592  12.213  17.510  12.924  0.4645  0.0756  0.1890
 5179W        W18593   0.079   4.581   1.311 -0.1541 -0.0944  0.0228
 5180W        W18594   2.267   4.664   6.186 -0.3873  0.0325  0.1325
 5181W        W18595  10.508  16.122   1.594 -0.2003  0.1036  0.3311
 5182W        W18596  10.015  14.725  12.141 -0.1486 -0.1177 -0.0487
 5183W        W18597  12.193   1.740  16.481  0.1238 -0.3468  0.1875
 5184W        W18598   8.139  11.139  11.903  0.0850 -0.0908 -0.2466
 5185W        W18599   0.578  14.451  15.689  0.2751 -0.1511 -0.3413
 5186W        W18600   6.207  13.316  14.057 -0.1468 -0.1885 -0.0345
 5187W        W18601  14.801   7.665   2.933 -0.0323  0.0129  0.0102
 5188W        W18602  13.034  11.660  13.655  0.0979 -0.2998 -0.0183
 5189W        W18603  15.766  10.142  13.894  0.0289  0.2407  0.2322
 5190W        W18604  16.991  17.659  15.652  0.1210 -0.0902  0.0532
 5191W        W18605   3.328  16.543  13.761  0.1391  0.0269 -0.3094
 5192W        W18606  13.238   9.596   1.246 -0.2980  0.2646 -0.0532
 5193W        W18607  17.540   8.616   3.431  0.1561  0.3608  0.1696
 5194W        W18608  13.906   0.407  15.849 -0.4361 -0.0190 -0.2084
 5195W        W18609   3.445   5.703  13.834  0.2729 -0.0236 -0.0169
 5196W        W18610   3.135  12.670   1.403 -0.0340 -0.0730  0.0015
 5197W        W18611  14.184   1.987  12.119  0.1776  0.1508  0.1404
 5198W        W18612   6.363   8.586  15.829 -0.0992  0.2095 -0.0885
 5199W        W18613   7.147  15.801   2.294  0.0158 -0.2779 -0.1379
 5200W        W18614  15.429   5.070  11.301  0.0238  0.0173 -0.0404
 5201W        W18615   4.644   6.939  16.373 -0.1419  0.0626  0.2403
 5202W        W18616  10.922   2.818   1.123 -0.1811 -0.2553  0.0386
 5203W        W18617  12.071  12.884  12.285  0.1698 -0.0156  0.1000
 5204W        W18618   8.299   5.778   3.129  0.0134  0.0716 -0.1391
 5205W        W18619   0.443   2.395   3.790 -0.1537 -0.2686 -0.0050
 5206W        W18620  14.293   7.025   5.588  0.1625 -0.1988 -0.1849
 5207W        W18621  14.677   4.918   4.619 -0.0333 -0.0112 -0.2009
 5208W        W18622  16.599  11.956  14.796  0.0005  0.1104 -0.1733
 5209W        W18623   0.555  11.443  10.734  0.1053 -0.5526  0.2096
 5210W        W18624  13.413   0.465  15.875  0.1220  0.1188  0.1435
 5211W        W18625  12.792  17.577   5.449  0.1874 -0.1004 -0.2086
 5212W        W18626   5.075  11.248  16.321 -0.4198 -0.2084  0.1897
 5213W        W18627  11.213  17.927   2.959 -0.0592 -0.2001 -0.1639
 5214W        W18628   9.060  15.406  13.721  0.0601 -0.2062 -0.0976
 5215W        W18629  11.981   4.426   2.300 -0.0346  0.0584 -0.0823
 5216W        W18630   6.771   3.799   3.314  0.1396 -0.1424  0.0591
 5217W        W18631   9.963  17.884  15.534 -0.2639 -0.2108 -0.0477
 5218W        W18632   0.645   9.183  13.115  0.1041 -0.3134 -0.2018
 5219W        W18633  13.053  14.306   0.930  0.1136 -0.3165 -0.5101
 5220W        W18634  16.175  16.493   4.494  0.0161 -0.0483  0.0817
 5221W        W18635   7.852  12.580  11.321 -0.0896  0.1576 -0.0141
 5222W        W18636   0.650   8.435  13.297 -0.1396  0.3827  0.1276
 5223W        W18637   7.875   0.446  11.306 -0.0654 -0.0713  0.0558
 5224W        W18638   1.206  11.014  10.280  0.3048 -0.0202 -0.0640
 5225W        W18639   4.119  17.429  15.858  0.1947  0.1711  0.5292
 5226W        W18640  10.542  13.619   0.342 -0.2929  0.1263  0.1921
 5227W        W18641  17.138   9.630   0.193  0.0936 -0.0861 -0.0813
 5228W        W18642   0.963   8.496   0.486  0.0550  0.0245 -0.0653
 5229W        W18643   0.062   5.701  16.371 -0.2007  0.1214  0.1716
 5230W        W18644  12.033  12.858  11.212  0.2725  0.1522 -0.0916
 5231W        W18645  15.616   8.376   3.658 -0.1288 -0.0017 -0.2903
 5232W        W18646  16.852  16.584  11.995 -0.1108  0.1520  0.0459
 5233W        W18647   6.606   8.044  12.650  0.1909 -0.2465  0.3637
 5234W        W18648   0.047   2.388  12.391  0.0467 -0.0239 -0.0641
 5235W        W18649  13.543  15.620  11.126 -0.0057  0.1648  0.0911
 5236W        W18650  10.492  14.979   0.914  0.2465  0.0848  0.3793
 5237W        W18651  14.056  10.311   6.115 -0.3055  0.0217 -0.3017
 5238W        W18652   0.716   2.517   1.108  0.0989  0.0784  0.0884
 5239W        W18653  13.982   4.393   6.826 -0.2084  0.3156  0.3559
 5240W        W18654  13.332   0.031  12.856 -0.0422 -0.0812 -0.0529
 5241W        W18655  14.836  17.952   1.063  0.1801  0.2287  0.1401
 5242W        W18656   8.140   5.693  13.598 -0.2161  0.0287 -0.0453
 5243W        W18657   1.500   9.736   3.588  0.2012 -0.1316 -0.1243
 5244W        W18658  15.688  16.769  12.653  0.2770  0.0107 -0.0744
 5245W        W18659   6.243   1.855  14.475 -0.1231  0.0821  0.0687
 5246W        W18660   7.095   4.827  11.006  0.0641  0.2584  0.1759
 5247W        W18661  11.972   6.581   2.995  0.2066 -0.3280 -0.0282
 5248W        W18662  12.532   7.324  16.535 -0.2898 -0.1661 -0.1929
 5249W        W18663   7.367   4.827   1.782 -0.2856 -0.4263 -0.1814
 5250W        W18664   5.721  15.180  13.491 -0.1058  0.0761 -0.0764
 5251W        W18665   6.637   9.111  12.162 -0.0180 -0.1389  0.0539
 5252W        W18666   3.441   5.650   4.853  0.0576  0.0780 -0.2557
 5253W        W18667   4.883  14.322   0.721 -0.1258  0.1655 -0.2692
 5254W        W18668   1.035  15.525  14.381  0.2530  0.0244  0.1233
 5255W        W18669   3.563   6.776  14.284 -0.2722 -0.0737  0.0741
 5256W        W18670  10.076  13.330   3.106  0.0886 -0.1466 -0.2062
 5257W        W18671   8.072  11.540  11.317 -0.0843 -0.1130 -0.0971
 5258W        W18672  14.480   0.505  11.943  0.0889  0.1804 -0.2048
 5259W        W18673   0.680  16.815  14.677  0.0226  0.2261 -0.0833
 5260W        W18674   2.093  15.237   3.445 -0.1154  0.1244 -0.1529
 5261W        W18675   2.131   3.203  12.732  0.1728  0.2144  0.0267
 5262W        W18676  13.051   1.061   5.824  0.1215  0.0615 -0.1635
 5263W        W18677   5.028  13.659  13.595  0.2323 -0.0742  0.2508
 5264W        W18678   5.868  13.685   4.320 -0.0446 -0.0115 -0.0236
 5265W        W18679  10.261   7.213  10.545  0.0044 -0.0407 -0.0437
 5266W        W18680  12.921  13.942   0.647 -0.0678 -0.1388 -0.0715
 5267W        W18681  10.507   9.210  13.929 -0.1717 -0.1468  0.0237
 5268W        W18682  11.039   8.958   4.654 -0.1552 -0.0918 -0.1096
 5269W        W18683   6.164   3.296   6.112 -0.0655 -0.2161 -0.1108
 5270W        W18684  15.320  13.341  11.548 -0.3288 -0.1323  0.0802
 5271W        W18685  13.320  12.591   0.675 -0.1524  0.0024 -0.0179
 5272W        W18686  14.744   5.018   5.952 -0.1692  0.0914 -0.1166
 5273W        W18687   4.448  17.455   4.217  0.0409 -0.0682 -0.0071
 5274W        W18688  13.808   1.164   0.410 -0.1239  0.1378 -0.0414
 5275W        W18689  15.310   0.443  16.481 -0.5495  0.0677  0.0704
 5276W        W18690  10.511  15.749   2.100  0.0496  0.1886 -0.0573
 5277W        W18691   3.244  12.562   0.568  0.1397 -0.4007 -0.0862
 5278W        W18692   4.991  10.365   0.656  0.0077 -0.0220  0.0520
 5279W        W18693   0.994   3.109  14.051  0.1075  0.1137 -0.1239
 5280W        W18694  15.983  12.780   1.217 -0.4274 -0.2479 -0.2518
 5281W        W18695  10.205   8.294  11.257  0.0756 -0.1304 -0.0074
 5282W        W18696  15.146   8.634   2.621 -0.1891 -0.0710  0.2039
 5283W        W18697   9.275   8.892   5.375  0.0204 -0.1142 -0.0016
 5284W        W18698   9.427  10.644  13.260  0.1456  0.1303 -0.0428
 5285W        W18699  10.958   3.248  11.009 -0.0998 -0.2154 -0.1792
 5286W        W18700   5.077  14.850  13.178 -0.1115 -0.3237  0.1094
 5287W        W18701   2.240  16.036  10.546 -0.1472  0.1547  0.3211
 5288W        W18702  17.044   8.781   2.138 -0.2808  0.3447  0.2180
 5289W        W18703   5.066  11.690  11.138 -0.3175 -0.1418 -0.1544
 5290W        W18704   1.415  14.774  13.578  0.0089  0.2301 -0.1977
 5291W        W18705   8.049  13.381   0.023  0.0403  0.0090  0.2304
 5292W        W18706   4.864   3.338   3.656  0.0597 -0.0716 -0.0712
 5293W        W18707   4.552  15.234  11.099  0.3592  0.2791  0.1177
 5294W        W18708   1.094   1.618   0.670  0.0920  0.0519  0.2438
 5295W        W18709  13.277   4.060   1.415 -0.1843 -0.3818 -0.0981
 5296W        W18710   3.679   6.156   5.739 -0.1061  0.1459 -0.1019
 5297W        W18711   2.395   4.814  13.070 -0.0213  0.0163 -0.0324
 5298W        W18712   3.887   4.790  11.224  0.3482  0.1536 -0.1178
 5299W        W18713  11.539   6.368  15.914  0.4211 -0.2190 -0.2765
 5300W        W18714   3.060  14.219   3.832 -0.0145  0.5670  0.2433
 5301W        W18715   3.199   3.932   5.616  0.2240 -0.2311  0.0483
 5302W        W18716   9.139   6.118  11.015 -0.0072  0.3138  0.0727
 5303W        W18717   8.281  15.493   3.731  0.0685 -0.3813  0.0638
 5304W        W18718   5.697   6.427  14.037  0.0114  0.0493  0.0405
 5305W        W18719  13.354  14.962  12.729  0.5003  0.0108 -0.2144
 5306W        W18720   6.439  15.239   1.545  0.0387  0.2519  0.1003
 5307W        W18721  17.178   2.456  11.242 -0.0939  0.1217 -0.0452
 5308W        W18722  11.053   4.341   0.205  0.0635 -0.2214  0.1257
 5309W        W18723   2.801   7.416  14.526 -0.4420  0.1456 -0.0526
 5310W        W18724  16.739   3.832   6.340 -0.0809 -0.0010  0.0957
 5311W        W18725   1.222   8.752  15.481 -0.0864  0.0460 -0.0131
 5312W        W18726   2.472   3.814   1.807  0.0842  0.3223 -0.1637
 5313W        W18727   6.312  15.028  16.387  0.0979  0.2280 -0.0756
 5314W        W18728  12.945   7.577  14.513  0.2393  0.0623 -0.1900
 5315W        W18729  12.386  12.071   1.407  0.2907  0.2079 -0.1156
 5316W        W18730  14.609   4.543  11.179 -0.0398  0.3068 -0.0381
 5317W        W18731   5.226   3.209  15.903  0.1361 -0.0354  0.0206
 5318W        W18732  10.854   9.733  13.005 -0.1440 -0.0056  0.0911
 5319W        W18733   2.919  10.830   0.385  0.1427 -0.3471 -0.1350
 5320W        W18734   4.060  12.708   3.736 -0.0248 -0.1404  0.1688
 5321W        W18735   5.700   5.504  13.795 -0.0224 -0.1704  0.3033
 5322W        W18736  15.714   5.739   4.276 -0.4075  0.2579 -0.1004
 5323W        W18737  15.565   0.372   0.266 -0.3240 -0.1070 -0.1105
 5324W        W18738  11.785   2.934  11.127 -0.0453  0.1812 -0.2003
 5325W        W18739  13.151   3.868  16.361 -0.0359  0.1469  0.1116
 5326W        W18740  14.535  16.791  16.627 -0.1637 -0.4135  0.0610
 5327W        W18741  16.373  17.355   2.453  0.4377  0.0275  0.5298
 5328W        W18742   2.596   6.104   5.914  0.1950  0.3555  0.1322
 5329W        W18743  12.925  16.780   9.914 -0.1334  0.2963 -0.0098
 5330W        W18744   5.838   5.051  13.630  0.2238 -0.2147 -0.5269
 5331W        W18745   1.996   5.774  12.102 -0.1162  0.3286 -0.0857
 5332W        W18746  17.322   6.860  15.152 -0.0676  0.1177 -0.2808
 5333W        W18747  14.689  13.600  12.870 -0.2723  0.1580 -0.2429
 5334W        W18748   4.422   2.203   6.175  0.0575  0.1327  0.0197
 5335W        W18749   9.545   1.888  13.567  0.0253  0.0671 -0.1021
 5336W        W18750   7.119   3.543   4.482 -0.0319 -0.1432  0.1568
 5337W        W18751   2.556   1.000  12.471 -0.0222 -0.3001  0.2311
 5338W        W18752   9.184  11.269  13.368 -0.1084 -0.2048  0.1575
 5339W        W18753   8.492   8.803  14.790 -0.1917  0.0837 -0.0618
 5340W        W18754  16.994   4.984   1.088  0.0066  0.2861 -0.2629
 5341W        W18755   3.988  14.787  13.840 -0.3319 -0.3556 -0.0820
 5342W        W18756   4.099   6.397   1.024 -0.3815 -0.0296  0.3616
 5343W        W18757  10.542   2.681   1.442  0.1213 -0.0997 -0.0555
 5344W        W18758   4.501  11.366  13.121 -0.0340 -0.2709 -0.2039
 5345W        W18759   9.186  16.889   0.111 -0.3229  0.0546  0.1702
 5346W        W18760  13.574  17.700  11.721 -0.3365  0.1633 -0.3407
 5347W        W18761   5.934   3.316  15.450 -0.0050  0.1144  0.5103
 5348W        W18762  17.052   0.621   5.241 -0.0073 -0.2022 -0.2962
 5349W        W18763  13.262   8.336  13.245 -0.1105  0.1839  0.2147
 5350W        W18764  17.842   8.631  16.284 -0.1333 -0.1457  0.0293
 5351W        W18765   3.376  10.117  12.557 -0.0116 -0.1130 -0.0952
 5352W        W18766   0.114  10.540   5.054  0.1159 -0.1204  0.0832
 5353W        W18767  13.744  16.268  11.167 -0.0081 -0.0749  0.3904
 5354W        W18768   5.760   8.772  15.545  0.3367  0.1384  0.2238
 5355W        W18769   2.206  15.647   3.153 -0.0017 -0.0911 -0.0051
 5356W        W18770  13.933  15.491  16.625  0.0715 -0.2030  0.1885
 5357W        W18771  15.259   3.685  14.373  0.2390  0.2199  0.0485
 5358W        W18772  10.654   0.271   0.346 -0.1236 -0.1129 -0.2110
 5359W        W18773   6.045   3.509   5.127 -0.0517  0.0892 -0.2214
 5360W        W18774  17.857  11.977   6.055  0.1493 -0.1184  0.1159
 5361W        W18775  16.355   9.254  14.539 -0.0591  0.2196 -0.0220
 5362W        W18776  15.213  13.725   2.495  0.0796 -0.1446 -0.1975
 5363W        W18777   1.214   5.540  16.036  0.1846  0.0970  0.2205
 5364W        W18778  11.426   2.838  15.375 -0.0638 -0.2664  0.0498
 5365W        W18779  12.414  17.610  13.953  0.4546  0.1101  0.3591
 5366W        W18780   4.149  10.424   4.678  0.0878 -0.1657 -0.1544
 5367W        W18781  13.958   4.792  13.662 -0.0776 -0.0191  0.3395
 5368W        W18782  17.787   1.862   2.286 -0.1786  0.1061 -0.2055
 5369W        W18783   2.575   6.604   0.800 -0.0472  0.0411 -0.0290
 5370W        W18784   5.028   6.431   1.578 -0.0109 -0.2531  0.0642
 5371W        W18785  13.222  14.843  10.331 -0.0554 -0.0544  0.1449
 5372W        W18786  17.043  10.137  10.476 -0.1549  0.0289  0.0685
 5373W        W18787  15.524   0.551   2.519 -0.1095 -0.2328 -0.1674
 5374W        W18788  15.935   3.239   3.370  0.1804  0.0011  0.0753
 5375W        W18789   6.853  17.776  15.929 -0.2387 -0.0205 -0.1938
 5376W        W18790  16.112   7.711   0.344  0.0904 -0.1526  0.0514
 5377W        W18791   2.163  15.949  13.494  0.0336 -0.3172  0.3966
 5378W        W18792   0.239   1.582  11.208  0.0958  0.2315  0.1919
 5379W        W18793   3.123   7.767  12.177  0.0250  0.0872 -0.1081
 5380W        W18794   9.656  17.999  14.200 -0.1772  0.3169 -0.3115
 5381W        W18795   2.754   1.771  12.734 -0.1347  0.1139 -0.1442
 5382W        W18796  11.564   7.364  11.625 -0.1300  0.0445 -0.0183
 5383W        W18797  12.605   4.049   2.852 -0.1019 -0.1062 -0.2015
 5384W        W18798   0.231   3.812  12.641 -0.2225 -0.0123 -0.0805
 5385W        W18799  16.385  16.668   2.374 -0.1498  0.1583 -0.1927
 5386W        W18800  11.521   5.399  13.312  0.3125  0.1224  0.1175
 5387W        W18801   6.322  15.530  14.579  0.1823 -0.0174  0.0659
 5388W        W18802   4.255   1.668   0.518  0.1030 -0.0198 -0.1527
 5389W        W18803   9.151   6.318   2.148 -0.2038 -0.0129 -0.0311
 5390W        W18804   0.348   8.193  14.215  0.0949  0.1391 -0.1091
 5391W        W18805  14.322   6.798  11.006  0.0864 -0.1332  0.2768
 5392W        W18806   1.985  12.012  14.940  0.2040 -0.2375 -0.0502
 5393W        W18807  15.931   5.860  15.059  0.1628 -0.1680 -0.0977
 5394W        W18808  15.913  16.658  10.926 -0.1218  0.1000 -0.1576
 5395W        W18809  16.929  17.144   1.146  0.4704  0.1724  0.0914
 5396W        W18810  17.908  13.233   1.558 -0.0999  0.1179 -0.0982
 5397W        W18811   8.115  17.837   5.237 -0.0436  0.2712 -0.5036
 5398W        W18812   4.540  10.878  12.034 -0.3001 -0.0203 -0.1174
 5399W        W18813   1.207   8.809  11.684  0.1822  0.0862  0.0785
 5400W        W18814   2.080  14.774  11.672 -0.0187  0.1362 -0.1364
 5401W        W18815   1.252  10.063   1.471  0.0906 -0.1778 -0.0490
 5402W        W18816   3.532   3.215  14.464  0.0212  0.0966 -0.2096
 5403W        W18817  14.158   1.139  16.651  0.1598 -0.2172 -0.0558
 5404W        W18818   1.158   7.903   4.124 -0.2026  0.0862  0.2236
 5405W        W18819   6.010   6.917   5.656  0.2070  0.2316 -0.0349
 5406W        W18820   6.948   0.769  12.656  0.0532 -0.0048  0.2606
 5407W        W18821   9.002  10.619  15.932  0.1380  0.1576  0.0235
 5408W        W18822   6.414  12.209  10.624 -0.3403  0.3052 -0.2167
 5409W        W18823   6.749  15.978   3.687 -0.0026 -0.0391  0.0050
 5410W        W18824   2.421  17.706  15.961 -0.0293  0.3373  0.0179
 5411W        W18825   2.505  15.823   1.910  0.0759  0.0013  0.1662
 5412W        W18826   9.531   3.178   3.837  0.1396  0.0308 -0.0888
 5413W        W18827  11.924   5.864  14.634  0.0861  0.1299 -0.1766
 5414W        W18828   9.386   0.939   3.221  0.2082  0.5425  0.1681
 5415W        W18829   7.374   8.654  12.924  0.1284  0.0565 -0.0979
 5416W        W18830  12.843   0.743  14.270 -0.1682  0.1556  0.2206
 5417W        W18831  10.839   6.618   4.663 -0.4058 -0.1644 -0.1363
 5418W        W18832   9.151   6.485   1.694  0.1919 -0.0717  0.0055
 5419W        W18833   8.290  15.346  15.560  0.0215 -0.0014  0.1116
 5420W        W18834   2.006   3.676   2.661  0.0424  0.2558  0.2570
 5421W        W18835   7.527   6.877  10.790  0.0226  0.1446 -0.4251
 5422W        W18836  12.531  10.223  14.777  0.0897  0.0162 -0.0936
 5423W        W18837  11.918  12.541  14.955 -0.0391 -0.1616  0.0606
 5424W        W18838   6.487   9.938   4.221 -0.1471 -0.0196  0.1729
 5425W        W18839  16.948  12.438  11.585 -0.3178  0.0585 -0.2197
 5426W        W18840   0.986  13.953   0.078 -0.1119 -0.0929  0.0223
 5427W        W18841   8.779   9.483   4.275  0.1382 -0.2515  0.0414
 5428W        W18842  17.490   0.899   3.769 -0.2365  0.2293 -0.1822
 5429W        W18843   0.592  17.020   4.584  0.3505 -0.0724 -0.1527
 5430W        W18844   7.406   2.870   5.629 -0.2199 -0.4188  0.0181
 5431W        W18845   3.014   3.639   2.781 -0.1062 -0.1137 -0.2765
 5432W        W18846  14.832  10.714   1.412 -0.3413 -0.2619 -0.1729
 5433W        W18847  17.551  10.006   4.983  0.3208 -0.0395 -0.2848
 5434W        W18848   8.806  13.218   3.584 -0.1640 -0.0820  0.0130
 5435W        W18849   4.360  16.173   1.164  0.0240  0.2725  0.0406
 5436W        W18850   3.893   1.363   4.836  0.0274 -0.1874  0.3854
 5437W        W18851   8.257  12.801  16.014  0.0049 -0.2434  0.0279
 5438W        W18852   0.583   3.581  16.614 -0.0915 -0.0974  0.1766
 5439W        W18853   8.493  16.016   1.525  0.0745 -0.0213 -0.1257
 5440W        W18854   9.614  11.436  13.105  0.0817 -0.1998  0.4430
 5441W        W18855  11.329   4.268  12.230 -0.0661 -0.1031 -0.1729
 5442W        W18856  15.543  11.272  14.580 -0.3456 -0.1499 -0.1449
 5443W        W18857   4.010   3.718  12.824  0.1581 -0.2016  0.0777
 5444W        W18858  15.685   6.451  12.162 -0.0969  0.0149  0.1818
 5445W        W18859   0.373   6.422  15.872  0.1779  0.0568 -0.0090
 5446W        W18860  15.630  17.885   5.139 -0.1524 -0.3347  0.0657
 5447W        W18861   4.113   3.176   5.664 -0.0428  0.0066  0.0032
 5448W        W18862   0.787  13.332   5.516 -0.1090  0.0296 -0.1795
 5449W        W18863  15.003  12.330   1.643  0.0807 -0.2705  0.2017
 5450W        W18864   9.237   1.987  14.016 -0.3686 -0.2270  0.1900
 5451W        W18865  12.949   7.956   0.884  0.0275 -0.0320 -0.0259
 5452W        W18866  13.068   9.006   3.291  0.2634 -0.1514 -0.1669
 5453W        W18867  10.708  16.318  10.466  0.2331 -0.0189 -0.0203
 5454W        W18868   9.053   2.827  14.587 -0.1110 -0.1094 -0.2612
 5455W        W18869  11.766  16.855   2.513 -0.0131  0.1430 -0.1744
 5456W        W18870   9.648  13.853  12.977  0.1956 -0.3631 -0.0561
 5457W        W18871   2.609   9.098  14.203 -0.0095 -0.2882  0.0210
 5458W        W18872  17.982  13.276   5.213 -0.0654  0.2605 -0.0827
 5459W        W18873  14.878   5.226  11.288 -0.2113  0.0247  0.0176
 5460W        W18874   9.152   8.237  14.877 -0.0259 -0.0763 -0.0309
 5461W        W18875   9.065  13.760   2.445 -0.1329 -0.1830 -0.1454
 5462W        W18876   0.992   9.425   2.673 -0.1401  0.3021 -0.3929
 5463W        W18877   9.270  16.184  14.363 -0.1625  0.0143 -0.0419
 5464W        W18878   4.545  15.674   2.765 -0.3106 -0.2169 -0.2353
 5465W        W18879  16.669  13.523   3.970 -0.2441 -0.0362 -0.1437
 5466W        W18880  18.052  12.677  15.969 -0.0003  0.1571  0.1452
 5467W        W18881  14.629  10.814  13.312  0.0923 -0.2314 -0.1574
 5468W        W18882  16.484   9.306  16.270  0.2804 -0.0987 -0.1655
 5469W        W18883   6.270   4.312   1.276 -0.0994  0.2312  0.1790
 5470W        W18884   4.783   2.071  13.415 -0.1577 -0.0947 -0.1155
 5471W        W18885  16.586   9.574   1.353 -0.4432 -0.0248  0.0861
 5472W        W18886  13.828  10.392   3.023 -0.1939  0.3599 -0.0308
 5473W        W18887   2.941  10.083  13.703  0.0221 -0.0357  0.0943
 5474W        W18888  10.960   7.872   0.329 -0.2382  0.3402 -0.1021
 5475W        W18889   4.829   7.442  16.163  0.1881 -0.2085  0.3864
 5476W        W18890  13.760  14.785  14.795 -0.0027 -0.0929 -0.3247
 5477W        W18891  16.646  17.407  11.537 -0.0555 -0.0505 -0.3128
 5478W        W18892  11.803  15.271  15.102  0.2845  0.1350  0.0296
 5479W        W18893   1.555   7.341  13.548  0.0446  0.0775 -0.2263
 5480W        W18894  12.558   9.440  15.192 -0.0374 -0.1716  0.2056
 5481W        W18895  14.442   2.728   4.218  0.0908  0.3116  0.0471
 5482W        W18896  18.012   8.465  14.322 -0.1871  0.2556 -0.1699
 5483W        W18897  10.037   3.065   3.829  0.3099 -0.1606 -0.2220
 5484W        W18898  11.423  17.491  11.562  0.0783  0.1631  0.0773
 5485W        W18899   1.152   1.831  15.066 -0.0895  0.0781  0.1876
 5486W        W18900   0.515  17.152   2.043  0.0765  0.2515 -0.2337
 5487W        W18901   7.651  14.094  15.804 -0.1893 -0.1567  0.0366
 5488W        W18902   0.118  10.118  12.462 -0.0299  0.2046  0.0780
 5489W        W18903  17.030  16.533   4.282 -0.0714 -0.0203 -0.0089
 5490W        W18904  12.238  16.836   2.719  0.0368  0.1097 -0.0935
 5491W        W18905   1.099   2.913   3.261  0.2849 -0.0618 -0.1017
 5492W        W18906   7.040   9.339   1.093  0.0158  0.4285 -0.0474
 5493W        W18907   6.945   0.303  11.709 -0.0733  0.2462 -0.0747
 5494W        W18908   0.826   5.770   2.952 -0.2555 -0.0214 -0.1471
 5495W        W18909   2.258  12.649  12.214  0.0384  0.0611 -0.0364
 5496W        W18910  10.541   9.720  14.559 -0.2021  0.0522  0.1960
 5497W        W18911   8.426   3.032   0.692 -0.0397  0.1532  0.1224
 5498W        W18912   4.464  17.123  12.134 -0.2588  0.1011  0.3031
 5499W        W18913  12.840   1.291   3.032 -0.1535  0.1843 -0.0633
 5500W        W18914  12.916   3.763   3.227  0.1851 -0.2586  0.3562
 5501W        W18915  10.638   6.485  15.410 -0.1416  0.0427 -0.1691
 5502W        W18916  13.760  12.562   5.129 -0.1099  0.3481  0.0280
 5503W        W18917   1.260  17.072  12.356 -0.0965 -0.1699 -0.1053
 5504W        W18918   3.025  16.355  10.949 -0.0179  0.3134  0.1251
 5505W        W18919   9.029  12.667   2.600 -0.0086 -0.0164 -0.2429
 5506W        W18920   4.711   9.562  15.435  0.1437  0.0513 -0.0839
 5507W        W18921  17.603  15.727  14.766 -0.0181  0.1913  0.0325
 5508W        W18922   6.356  16.974  14.711  0.2334 -0.3512  0.0094
 5509W        W18923  10.427   7.850   2.262 -0.1120  0.4781  0.1274
 5510W        W18924   1.275   6.123  13.322 -0.2775  0.1034 -0.1661
 5511W        W18925  13.459  17.851  10.833 -0.0774  0.0191  0.2348
 5512W        W18926   3.640   9.627   2.694 -0.0781  0.1011 -0.3087
 5513W        W18927  16.282   7.654  15.137 -0.1138 -0.0038  0.4362
 5514W        W18928   0.656   6.533  16.278 -0.2349 -0.0898  0.0467
 5515W        W18929  16.247   2.210  15.281 -0.1413 -0.0078 -0.1838
 5516W        W18930  17.186  11.540  12.020 -0.2984  0.1090 -0.3446
 5517W        W18931   2.551  11.795   0.376  0.2145  0.1645  0.0125
 5518W        W18932   3.630   7.949   4.927 -0.2081  0.0424  0.2646
 5519W        W18933  12.488   0.544   4.996 -0.0302  0.0260 -0.0795
 5520W        W18934   1.861   2.410  15.551 -0.1673  0.0023 -0.0079
 5521W        W18935   1.026  14.713  15.647  0.1106  0.1865 -0.1238
 5522W        W18936  17.571   9.159  14.023  0.0932 -0.4408 -0.0807
 5523W        W18937  13.316   5.739  14.868  0.1038  0.1275 -0.0605
 5524W        W18938   4.028  11.877   0.606 -0.0342 -0.1364  0.1627
 5525W        W18939   3.118   1.695  15.974  0.0470  0.1383 -0.2405
 5526W        W18940  14.012   0.160   0.403  0.1683  0.2168 -0.0643
 5527W        W18941  14.237   2.350   3.958  0.1824  0.0700  0.0243
 5528W        W18942  11.077  11.417   0.078  0.1640 -0.0293 -0.2423
 5529W        W18943  13.365  11.389  16.428 -0.0128  0.0862 -0.0871
 5530W        W18944  12.722   4.404   0.914 -0.2465  0.0606  0.1467
 5531W        W18945  14.492   9.161  12.532 -0.0269 -0.1618  0.1083
 5532W        W18946   1.176  12.369  13.981 -0.2257 -0.0311 -0.0770
 5533W        W18947   1.552   3.298  13.443 -0.0963  0.0939  0.1234
 5534W        W18948   9.405  11.160   2.817 -0.5417  0.1820 -0.0111
 5535W        W18949   9.286   3.367  12.456 -0.1576  0.2091 -0.2643
 5536W        W18950  10.451   2.337   3.296  0.1856  0.1312 -0.1603
 5537W        W18951  11.734  13.572  13.788  0.0000 -0.1681  0.2014
 5538W        W18952  13.323  15.144   1.407  0.0236  0.0160  0.2206
 5539W        W18953   6.803  11.401  15.583  0.2939 -0.3499  0.1102
 5540W        W18954  10.737  16.344  14.097  0.2860 -0.0740 -0.0600
 5541W        W18955  14.639  11.384   4.430  0.0802  0.3573 -0.1009
 5542W        W18956   2.049  12.124  15.935  0.1505  0.0742 -0.1554
 5543W        W18957  15.262   3.450   2.286 -0.1460  0.0651 -0.2068
 5544W        W18958   0.389   8.319  12.579 -0.2983  0.1085 -0.1592
 5545W        W18959  15.652  11.850   4.807 -0.2002  0.0405  0.0341
 5546W        W18960   5.041  18.044   1.912 -0.2157 -0.1741  0.0374
 5547W        W18961  14.881  10.415   5.283 -0.0772 -0.3401 -0.1255
 5548W        W18962   0.975  10.114   0.882 -0.0236 -0.0985  0.2506
 5549W        W18963   0.289   1.391   3.618  0.4989  0.2087 -0.1749
 5550W        W18964   5.070   3.503  15.548 -0.0624  0.0314  0.3015
 5551W        W18965  15.984  11.536  11.139  0.0840  0.3343  0.2238
 5552W        W18966  11.791   9.423  11.926  0.0883 -0.3665  0.1601
 5553W        W18967  15.558   2.710   6.061 -0.1847  0.0395 -0.0737
 5554W        W18968   0.673  16.749   5.512  0.0672  0.2327  0.0044
 5555W        W18969   7.265  17.541   3.283  0.1117  0.1875  0.2229
 5556W        W18970  16.337  17.614  10.559 -0.0343  0.1522  0.1166
 5557W        W18971   8.752   4.850   4.102 -0.1107 -0.0622  0.2059
 5558W        W18972   9.058   6.349   0.838 -0.0998  0.1374 -0.2271
 5559W        W18973  16.661  15.631   5.008 -0.0029  0.0499  0.3526
 5560W        W18974  15.145  14.290   2.622  0.2484  0.1025  0.0231
 5561W        W18975   6.637   1.258   0.288  0.0611 -0.0514  0.1124
 5562W        W18976   8.146   4.706   1.107  0.2538  0.0291 -0.0953
 5563W        W18977   3.857   9.212   3.464  0.1213 -0.2863  0.0490
 5564W        W18978  17.029   2.236  14.142 -0.0382  0.0375  0.0850
 5565W        W18979  10.663   7.074  14.579  0.0006 -0.0599  0.0775
 5566W        W18980  11.787  15.401  14.006  0.0322  0.2369 -0.1854
 5567W        W18981  10.291  17.793   1.734  0.1088  0.1339 -0.3393
 5568W        W18982   3.333  12.481  14.143 -0.0000 -0.0230  0.2857
 5569W        W18983  17.454   6.598  14.790  0.2148  0.2760 -0.0549
 5570W        W18984  14.291  10.618  13.617  0.0492  0.0653  0.0699
 5571W        W18985  16.606  16.083   2.418  0.0433  0.2033  0.0317
 5572W        W18986  13.761   4.212  16.194 -0.0853 -0.2616  0.0447
 5573W        W18987  10.161  12.580  13.827  0.1384 -0.3777 -0.1864
 5574W        W18988  10.007   0.298   2.367  0.1975  0.0829  0.0935
 5575W        W18989  15.429   0.972  14.844 -0.1855 -0.1352  0.0146
 5576W        W18990  17.910   8.549   1.394  0.0114 -0.1456 -0.0856
 5577W        W18991  16.111   8.231  13.354  0.2012 -0.2668  0.0594
 5578W        W18992  10.535  13.996   1.775  0.2050 -0.1527  0.0262
 5579W        W18993   0.074  12.097   2.306 -0.1287  0.0931 -0.0379
 5580W        W18994  13.483  13.284  14.634  0.1775 -0.2108  0.0760
 5581W        W18995  16.342   6.122   4.847 -0.1760 -0.2895  0.3007
 5582W        W18996   4.893   3.297  14.065  0.3552  0.0876 -0.3417
 5583W        W18997   2.640   9.311  13.738  0.0196 -0.3826 -0.0454
 5584W        W18998  15.821   1.061   3.174  0.0155 -0.0473 -0.0934
 5585W        W18999  17.594   6.339   0.830 -0.0208 -0.0671  0.3625
 5586W        W19000   2.093  13.256   5.491  0.0028  0.0936 -0.0477
 5587W        W19001   4.005   6.479   5.962  0.2863  0.0612 -0.0565
 5588W        W19002   5.565   8.335  14.691  0.0346  0.0321  0.1580
 5589W        W19003   6.085  16.881   5.656  0.0615 -0.2326  0.0268
 5590W        W19004  16.326   7.293   6.420  0.3412  0.1420 -0.2225
 5591W        W19005   5.723   8.783   0.050 -0.1062  0.1882  0.1688
 5592W        W19006  12.736   8.033   1.656  0.1412 -0.0827  0.0103
 5593W        W19007  17.985  13.185   0.618  0.0787  0.0692 -0.1708
 5594W        W19008   9.842   6.814  16.613 -0.1404 -0.1467 -0.2252
 5595W        W19009  13.209   5.795  14.045 -0.0235 -0.0263 -0.2055
 5596W        W19010   8.576   2.737  11.326  0.0870 -0.0050  0.1106
 5597W        W19011   6.813  10.380  14.999 -0.2695 -0.3953 -0.3876
 5598W        W19012   9.348   5.378  14.276  0.0273 -0.0046  0.0838
 5599W        W19013   4.050   1.550  10.830  0.0206 -0.1048  0.0860
 5600W        W19014  12.089   9.661  11.538  0.1193  0.2110 -0.2592
 5601W        W19015   8.633  13.783  16.315 -0.1808 -0.0793 -0.1563
 5602W        W19016  10.664  17.228  15.499  0.0869 -0.2296  0.0884
 5603W        W19017   0.751   3.722  13.285 -0.0888  0.1853 -0.2143
 5604W        W19018   7.529  12.763  10.920 -0.2526  0.0902  0.0908
 5605W        W19019   0.541   1.307   0.517  0.1612 -0.0240  0.2668
 5606W        W19020  13.802   7.392  15.496  0.0637 -0.1635 -0.0974
 5607W        W19021   8.433   4.464  11.775 -0.1953  0.4178  0.3068
 5608W        W19022   4.029   3.924  16.412 -0.0519 -0.2024 -0.1512
 5609W        W19023  11.304  17.094   4.729 -0.1395  0.1620  0.0211
 5610W        W19024  10.876  16.548   2.457 -0.0175  0.2380  0.0570
 5611W        W19025  15.483   7.235   1.324  0.0775  0.2298  0.0087
 5612W        W19026  13.276  12.595   5.263  0.1004  0.3010  0.1521
 5613W        W19027  10.269   9.356   1.313  0.0505  0.0902 -0.0416
 5614W        W19028  10.249   4.550  13.709 -0.2833 -0.0460 -0.1796
 5615W        W19029  16.249  13.523  11.055  0.0738 -0.1921 -0.2437
 5616W        W19030   5.307  15.340  13.094  0.4104 -0.0088  0.1693
 5617W        W19031   6.334  16.173   1.483  0.0079 -0.1482  0.1565
 5618W        W19032   7.134  14.841   2.441 -0.1166  0.0310 -0.1964
 5619W        W19033   5.817   7.507  16.206 -0.1031  0.0569 -0.0301
 5620W        W19034   7.749  13.359   1.172 -0.2582 -0.0991 -0.1295
 5621W        W19035   8.897   2.870  11.691 -0.1136 -0.2527  0.2191
 5622W        W19036  13.719   9.436  13.259  0.3368 -0.0220  0.0924
 5623W        W19037  11.771  10.814  14.552  0.2738 -0.0594 -0.0357
 5624W        W19038  17.859  16.267  12.439  0.1027 -0.0449  0.0105
 5625W        W19039  14.817  15.821  10.708 -0.2645 -0.1192 -0.2500
 5626W        W19040  17.474   0.875  15.044  0.0088 -0.0417 -0.0580
 5627W        W19041   1.779  14.730  10.939  0.0123 -0.1336  0.2048
 5628W        W19042   2.287  11.019   3.307  0.1048  0.3425  0.0892
 5629W        W19043   1.048   0.576  11.485  0.1421 -0.0680  0.0230
 5630W        W19044   0.736   3.306   3.171  0.1963 -0.0781 -0.1873
 5631W        W19045  15.473  17.525   4.219  0.0705  0.0779  0.0683
 5632W        W19046   4.774   9.705   6.226 -0.2054 -0.0970 -0.0961
 5633W        W19047  10.825  15.804   5.647 -0.1380  0.4446  0.1136
 5634W        W19048   7.510  17.739   1.758  0.0405  0.1561  0.1793
 5635W        W19049   0.034  11.390  11.531  0.1775  0.2691 -0.4015
 5636W        W19050   8.277   8.244  12.814 -0.1473  0.0574  0.0669
 5637W        W19051   7.086  15.688   1.779 -0.1127 -0.1608 -0.0310
 5638W        W19052  14.339   0.758   2.254 -0.2625  0.2250 -0.1245
 5639W        W19053   1.196   9.153  12.214 -0.1589 -0.0502 -0.0856
 5640W        W19054  14.939   5.247   2.493 -0.0506  0.0299  0.2640
 5641W        W19055   5.758   7.934   4.280  0.0072  0.1910 -0.0717
 5642W        W19056  11.499   2.468   2.718 -0.0625 -0.0112 -0.0890
 5643W        W19057  16.268  11.614  15.073 -0.3058 -0.3230 -0.0440
 5644W        W19058   9.088   3.776  15.542  0.0422 -0.3726 -0.1879
 5645W        W19059   9.099   6.624  14.662  0.1108 -0.0659  0.2542
 5646W        W19060  16.278   4.397   1.762 -0.1680 -0.0445 -0.0538
 5647W        W19061   1.102   5.013  16.038 -0.2037  0.1096  0.0021
 5648W        W19062  12.829   1.660  15.725 -0.2657 -0.5909  0.3111
 5649W        W19063  11.831  15.046  11.986 -0.0333  0.1440 -0.0685
 5650W        W19064  17.963   3.973  12.323  0.1136  0.0033  0.0996
 5651W        W19065   6.660  13.655   1.031 -0.0876 -0.0844 -0.4232
 5652W        W19066   8.356   1.555  15.659 -0.2386  0.1231  0.1872
 5653W        W19067   4.413   0.461   5.657  0.0009  0.0226 -0.1696
 5654W        W19068   1.187   8.932   0.644 -0.2593 -0.1660  0.1597
 5655W        W19069  15.550   4.395   7.020  0.3947 -0.1395 -0.1574
 5656W        W19070  15.114  15.091  11.120 -0.2435 -0.0134 -0.0930
 5657W        W19071   1.993   0.420   2.750 -0.0837  0.3672 -0.0649
 5658W        W19072  11.028  13.186   4.578  0.1071 -0.2564  0.1068
 5659W        W19073  17.673  17.173  13.185  0.2728 -0.0472 -0.2882
 5660W        W19074   7.358   1.259   4.064  0.0701  0.0516 -0.1956
 5661W        W19075   3.743  13.940  11.092  0.1704  0.0831  0.1297
 5662W        W19076  11.288   6.745  16.224 -0.1746  0.0619  0.0895
 5663W        W19077   2.399   2.863   4.755  0.0333 -0.1410  0.0982
 5664W        W19078   8.819  15.392   3.478 -0.2077  0.3236 -0.0967
 5665W        W19079   8.653   0.699   3.901  0.1244 -0.0187  0.4626
 5666W        W19080   1.172   0.078  13.485 -0.2395  0.0634 -0.2400
 5667W        W19081   2.124  17.870   6.046 -0.3609  0.1345  0.1102
 5668W        W19082  16.558  11.974  12.098 -0.1630  0.0132  0.0958
 5669W        W19083   9.911   6.993  11.601  0.3697 -0.2059  0.0319
 5670W        W19084   0.444  16.319  16.669  0.0052  0.2947 -0.0103
 5671W        W19085  15.170  16.754  12.899 -0.2713 -0.1228  0.2140
 5672W        W19086   2.788   6.120   2.505  0.0648  0.0060  0.1493
 5673W        W19087  10.429   0.386  12.705  0.0880 -0.1163  0.0107
 5674W        W19088   3.138   4.022  11.355 -0.2179  0.2913 -0.2374
 5675W        W19089  13.202  15.969   5.956  0.0710 -0.2431  0.3495
 5676W        W19090  16.829   3.543  12.532 -0.4184 -0.0752  0.2901
 5677W        W19091   9.335   3.336   5.128  0.1779  0.0647  0.3290
 5678W        W19092   2.427  16.824   5.097  0.2938  0.2472  0.2669
 5679W        W19093  11.478   9.137  16.250 -0.2918 -0.0675 -0.0503
 5680W        W19094   7.703   4.394   1.153  0.0916 -0.1095  0.2363
 5681W        W19095   4.253   7.809  13.115 -0.2085  0.3259  0.3593
 5682W        W19096  16.662  17.955   1.784 -0.2898  0.0280 -0.4345
 5683W        W19097   8.270   6.766   5.242  0.1494  0.1400  0.1596
 5684W        W19098   9.394  11.180   1.222  0.0836 -0.0186  0.1575
 5685W        W19099  14.121   5.477   0.117 -0.0142  0.2441 -0.2996
 5686W        W19100  15.952   2.421   6.240 -0.2288  0.2544  0.1335
 5687W        W19101  10.652  16.480   1.911 -0.0371  0.2393 -0.0032
 5688W        W19102   3.033   1.772  11.113 -0.0809  0.2257  0.1072
 5689W        W19103  14.230  14.798  13.188  0.1043  0.2882 -0.0719
 5690W        W19104  14.773  14.108  10.345  0.2359  0.2016  0.1352
 5691W        W19105  11.202   6.460   1.516  0.1164 -0.0534  0.2804
 5692W        W19106  15.566  11.495   3.110 -0.2255 -0.0975 -0.2842
 5693W        W19107  10.308   8.067  16.656 -0.0002 -0.0180 -0.0872
 5694W        W19108   3.066  14.167   1.669 -0.0183  0.1987  0.3172
 5695W        W19109  16.423  16.919   0.849 -0.1220 -0.0445 -0.0110
 5696W        W19110   3.625   1.814  11.765 -0.0864  0.2928 -0.3398
 5697W        W19111  11.637   8.537   0.250  0.0755  0.1698  0.1397
 5698W        W19112  15.783   1.018  15.695  0.0622 -0.1552  0.0559
 5699W        W19113   5.624   9.054   5.387  0.1054  0.1290  0.1359
 5700W        W19114   2.551   4.458   5.857 -0.1236  0.2435  0.0449
 5701W        W19115  10.211  12.434  12.027  0.2079 -0.0113  0.0945
 5702W        W19116  12.041  13.316  14.266  0.3695 -0.3476  0.0384
 5703W        W19117   5.160   0.970  13.332  0.1651 -0.1064  0.0517
 5704W        W19118  10.320   7.720  10.410 -0.0645 -0.1545  0.1793
 5705W        W19119   1.445  11.941   4.455 -0.3813 -0.1211  0.1837
 5706W        W19120  16.762   1.719   0.345 -0.0920  0.3780 -0.1081
 5707W        W19121   9.257   5.831  12.847  0.1819  0.1873  0.3765
 5708W        W19122  12.202  10.835   5.286  0.1161  0.1631 -0.0905
 5709W        W19123  12.687   0.793  16.319 -0.0780 -0.1161 -0.2373
 5710W        W19124  13.379  17.345  14.555  0.0488 -0.2596  0.1382
 5711W        W19125  13.341   4.824   1.427 -0.2013 -0.1030 -0.0453
 5712W        W19126   0.784  10.415  15.204 -0.0034  0.1672 -0.1011
 5713W        W19127   5.563  14.208  11.647  0.1091  0.0319 -0.0629
 5714W        W19128  15.971  16.766  13.071  0.0086  0.0418 -0.1428
 5715W        W19129   5.158  12.833   0.526  0.0625  0.4586 -0.0742
 5716W        W19130   8.690   0.409   5.730  0.0140 -0.0126 -0.0293
 5717W        W19131  17.992   2.092   5.242  0.3211 -0.1685 -0.1579
 5718W        W19132  10.007   5.370  13.002  0.0969 -0.1234 -0.2054
 5719W        W19133   8.751   3.763   2.724 -0.0443  0.1017  0.2978
 5720W        W19134   1.848  12.103   4.740 -0.3035 -0.0736 -0.0346
 5721W        W19135   9.201   0.338  15.939  0.0872 -0.2075  0.0049
 5722W        W19136   6.028  16.065   5.678 -0.3044 -0.1076  0.1258
 5723W        W19137  16.806  13.000   2.086  0.0199 -0.0104 -0.0952
 5724W        W19138  12.135   1.871  15.074  0.1174  0.2134 -0.1358
 5725W        W19139  11.104   0.987   5.124  0.0872 -0.0156  0.0266
 5726W        W19140   2.443  14.549   2.941  0.0884 -0.0842  0.2146
 5727W        W19141  14.174  17.996  15.714 -0.3507 -0.2364 -0.2335
 5728W        W19142  14.256   4.052   4.835  0.2287 -0.4930 -0.2642
 5729W        W19143   5.171   3.604   5.427  0.0783  0.0433  0.4365
 5730W        W19144  14.791  13.487  15.390  0.3232 -0.1136 -0.0685
 5731W        W19145  15.082   9.417   4.295 -0.0180  0.0965 -0.1226
 5732W        W19146  12.528   7.718  11.412  0.3814  0.4022  0.0068
 5733W        W19147   4.976   2.420   4.592 -0.1725  0.4264 -0.1971
 5734W        W19148   9.290   1.392  16.076  0.0909 -0.1335  0.1088
 5735W        W19149  13.771   0.110  13.111  0.1694  0.0910  0.2378
 5736W        W19150   5.171   1.715  15.746 -0.1151 -0.0309 -0.0198
 5737W        W19151  16.410   2.565  11.842 -0.2024 -0.1997  0.2947
 5738W        W19152   9.036  13.330  11.280  0.0131 -0.3143  0.2719
 5739W        W19153  13.454   7.325   4.503 -0.0068 -0.1477 -0.0933
 5740W        W19154  13.099   5.267   1.366  0.0073 -0.0840 -0.1934
 5741W        W19155  11.443   2.076   1.062 -0.0617 -0.0182 -0.0916
 5742W        W19156   5.747  11.725  14.686  0.1319  0.0136 -0.0477
 5743W        W19157   4.464  11.803  12.354  0.0986 -0.1478  0.0387
 5744W        W19158   0.289   6.305  12.729  0.1155  0.0330  0.0379
 5745W        W19159  14.980  14.058  12.733 -0.0339 -0.1125  0.0823
 5746W        W19160  10.283   4.970  10.830 -0.2888  0.0558 -0.0500
 5747W        W19161  11.889  12.426   1.487  0.0579 -0.2582  0.0922
 5748W        W19162  17.726   1.763  16.627 -0.2349  0.0691 -0.1820
 5749W        W19163   7.036   9.842  15.178 -0.0945 -0.1672  0.1021
 5750W        W19164  12.946   9.398   5.785 -0.1836  0.0492 -0.1915
 5751W        W19165  13.532  16.816   3.287 -0.1001 -0.0660 -0.0023
 5752W        W19166  16.352   8.238   2.991  0.0542 -0.1843  0.2128
 5753W        W19167  16.166   5.461   1.241 -0.2480  0.1288  0.0990
 5754W        W19168   6.607   1.019  14.060 -0.1077  0.4006  0.1739
 5755W        W19169   7.296   4.883  10.418  0.4029  0.0202  0.0759
 5756W        W19170  12.166  14.213  11.036 -0.1693  0.3387  0.3027
 5757W        W19171  14.498   4.565   2.070 -0.0974 -0.1103 -0.0152
 5758W        W19172   4.330   8.766   3.574  0.2565  0.1312  0.4499
 5759W        W19173  10.434   4.338   2.095 -0.0542 -0.1807 -0.1548
 5760W        W19174   7.928   9.167   0.847  0.1001  0.0452 -0.1302
 5761W        W19175  11.038   1.831   1.234  0.0024 -0.2638 -0.0441
 5762W        W19176   3.622   4.323  12.607  0.1335 -0.1236  0.1899
 5763W        W19177   0.295  17.204   1.030  0.0991  0.0079  0.1393
 5764W        W19178   2.823   3.570  11.326 -0.1581  0.0763  0.0883
 5765W        W19179  11.710   6.525   1.326  0.2071 -0.0031 -0.2757
 5766W        W19180  13.463  15.172  15.088 -0.0092  0.1008 -0.4807
 5767W        W19181  10.117   3.419  10.999  0.2689  0.0223  0.1544
 5768W        W19182  12.957   5.891   0.761  0.3958  0.3174 -0.0047
 5769W        W19183   1.665   9.947   4.883  0.0818 -0.0453  0.0373
 5770W        W19184   5.508  15.920  14.505 -0.1064  0.1079 -0.1285
 5771W        W19185   5.844  11.755  15.204 -0.0387  0.0700  0.1989
 5772W        W19186  16.987   5.268  15.791 -0.1007  0.1234  0.0016
 5773W        W19187  12.433  12.224  12.581 -0.2113  0.2007 -0.0656
 5774W        W19188   1.368  11.005   1.238  0.0615 -0.0150  0.0226
 5775W        W19189   2.372  10.240   4.231  0.0758 -0.0288  0.0225
 5776W        W19190  10.000   3.927  10.990  0.0635  0.1983 -0.1709
 5777W        W19191   9.255   0.905  13.454  0.2589 -0.0641  0.1455
 5778W        W19192  16.900   3.280  11.561  0.2435  0.3849 -0.0800
 5779W        W19193  17.802   8.485  11.624  0.2041  0.1274  0.1935
 5780W        W19194   7.272  15.654   0.037 -0.2494  0.0928 -0.0200
 5781W        W19195   2.641  17.312   2.952 -0.0986 -0.0080 -0.0778
 5782W        W19196  12.084   6.167  13.000 -0.1228 -0.0261 -0.1976
 5783W        W19197   2.059  14.237  13.910 -0.2565 -0.3030 -0.1389
 5784W        W19198  16.948   0.911  14.093 -0.0348 -0.2293 -0.2874
 5785W        W19199   6.221  13.006   5.462  0.2195  0.1956 -0.0670
 5786W        W19200  16.579   1.275   4.339 -0.0114 -0.0300 -0.2667
 5787W        W19201  14.417   7.861   0.720  0.4026  0.1795  0.0774
 5788W        W19202  17.830  14.919   6.096 -0.1867 -0.0314 -0.2199
 5789W        W19203   9.429  14.968  10.909  0.2133  0.1085  0.1388
 5790W        W19204   9.653  15.100   2.166 -0.1165 -0.1509 -0.0137
 5791W        W19205  16.753  15.003   2.756  0.1052  0.0430  0.0638
 5792W        W19206   6.627   8.207  14.778  0.1532 -0.1436  0.0003
 5793W        W19207   2.600   3.017  15.003  0.0564  0.3902  0.0959
 5794W        W19208  10.424   6.102  13.021 -0.1126 -0.1014 -0.0254
 5795W        W19209   3.713   6.702  16.584 -0.0649 -0.3665  0.2421
 5796W        W19210   7.440   6.733   4.556  0.1431  0.2299 -0.0382
 5797W        W19211   4.843  14.358   3.896  0.0442 -0.0055 -0.0435
 5798W        W19212   6.291   8.076  10.359  0.0061 -0.0280 -0.4612
 5799W        W19213  17.545   4.737   3.625  0.1080 -0.0358  0.2007
 5800W        W19214  14.407   7.477   0.332 -0.2198 -0.0783  0.0944
 5801W        W19215   2.114  12.467  14.924  0.0569 -0.1263 -0.0144
 5802W        W19216   0.918  10.516  12.153 -0.0961  0.2695 -0.3311
 5803W        W19217   4.747  10.980  12.543  0.0775  0.0542  0.1654
 5804W        W19218   7.734  17.351  15.986 -0.1832  0.3129  0.2262
 5805W        W19219   3.138  15.631   2.553  0.0452  0.1365  0.0475
 5806W        W19220   1.919  16.592   4.896 -0.2067  0.0254  0.1482
 5807W        W19221  17.880   4.710  12.918 -0.2996  0.2806 -0.1875
 5808W        W19222   7.158  17.895   0.836 -0.1532  0.0360  0.1340
 5809W        W19223  12.305   2.555   4.598  0.0011 -0.0931 -0.2345
 5810W        W19224   7.746   4.989  11.812  0.1631 -0.1516  0.0618
 5811W        W19225  17.194  11.802   0.028 -0.1311 -0.3825 -0.0438
 5812W        W19226  13.648   6.335  13.817  0.4734 -0.3610 -0.3716
 5813W        W19227   4.740  10.352  14.942 -0.1759  0.1424  0.1238
 5814W        W19228  13.801   3.580   0.844  0.0584 -0.3015 -0.0606
 5815W        W19229   6.571   4.127   1.950  0.0870 -0.1775 -0.2480
 5816W        W19230  13.392   1.576   0.245  0.2014  0.3867 -0.1021
 5817W        W19231  11.287   2.771   4.425 -0.1762  0.1842 -0.0630
 5818W        W19232   6.598   3.276   3.348 -0.1816  0.0015 -0.1841
 5819W        W19233   5.732   8.203  15.163  0.2849  0.2017 -0.1235
 5820W        W19234   5.928  10.963  12.479 -0.3667 -0.1055 -0.1049
 5821W        W19235  13.321   5.706   1.052 -0.0744  0.1054 -0.5100
 5822W        W19236   1.776   5.324  12.366 -0.4775 -0.0520  0.1878
 5823W        W19237   0.052   4.726  14.255 -0.1528 -0.1222  0.2074
 5824W        W19238   4.278  16.691   1.342  0.2491 -0.0888 -0.1410
 5825W        W19239   1.197  17.216  15.521  0.0260 -0.4235 -0.2749
 5826W        W19240  14.095  14.358  15.672 -0.0541  0.1228 -0.3631
 5827W        W19241   8.887  14.717  13.284 -0.0877  0.2509  0.2588
 5828W        W19242   2.275  13.372   1.355 -0.0747 -0.1043  0.2923
 5829W        W19243  14.149   3.069   6.019 -0.1367  0.1725  0.0716
 5830W        W19244  14.044   1.822   2.689  0.3835  0.3253  0.1847
 5831W        W19245   9.245   2.354  16.273  0.0802  0.3437  0.2931
 5832W        W19246   6.024   2.622   3.151 -0.0237  0.0200  0.0040
 5833W        W19247   9.877  15.071   2.659  0.0798  0.1025  0.2124
 5834W        W19248   9.884  15.339  15.676  0.0683 -0.2736  0.0181
 5835W        W19249   1.051   9.192  14.569  0.1361 -0.1350 -0.1606
 5836W        W19250   3.370  15.004  16.117 -0.2210 -0.0600 -0.0288
 5837W        W19251   9.788   4.403   1.833 -0.0165 -0.0956 -0.2666
 5838W        W19252  14.336  10.016  15.128  0.1425 -0.1695 -0.0045
 5839W        W19253   3.907   8.327   0.462  0.0173 -0.2302  0.1960
 5840W        W19254  16.773  17.040  12.866 -0.1025 -0.1587 -0.0615
 5841W        W19255  15.351   1.825   4.192 -0.0462 -0.2073 -0.1813
 5842W        W19256  11.769   3.916   4.785 -0.3075 -0.2683  0.0543
 5843W        W19257  16.686   5.079   5.845 -0.2123 -0.0284  0.2732
 5844W        W19258  15.568  17.964   3.376 -0.1456 -0.3123 -0.1530
 5845W        W19259   1.648  16.663  13.828 -0.2885 -0.2001  0.4588
 5846W        W19260   0.640  17.632   5.989  0.2752 -0.0098 -0.1382
 5847W        W19261   8.515  15.848  10.941 -0.1536 -0.0076 -0.2357
 5848W        W19262   6.283  17.354  11.578 -0.0151 -0.0515 -0.2255
 5849W        W19263  11.799  13.977  14.615 -0.0154  0.0601  0.0146
 5850W        W19264  17.315  17.868   5.517 -0.0005 -0.1652  0.0137
 5851W        W19265   4.737  16.105   1.520 -0.0215 -0.0104  0.1519
 5852W        W19266   3.419   6.331  14.332  0.0937  0.3145  0.4272
 5853W        W19267  14.691   6.580   2.144  0.0335 -0.0440  0.2123
 5854W        W19268   0.777   0.399  12.611 -0.1793 -0.2509 -0.0603
 5855W        W19269  10.652   3.789   3.361  0.1528 -0.3100 -0.1155
 5856W        W19270  17.442   2.306   2.317 -0.1605  0.3582 -0.2063
 5857W        W19271   9.808   8.736  14.664  0.4660 -0.2731  0.2206
 5858W        W19272  17.100   2.385  16.272  0.0242 -0.2467  0.5774
 5859W        W19273  14.088  17.133  11.441 -0.1293  0.0530 -0.0573
 5860W        W19274  10.358  10.220   1.343 -0.2413  0.0094  0.0803
 5861W        W19275   9.526   6.651  15.664  0.2322 -0.1326 -0.0932
 5862W        W19276   4.654   8.433   2.212  0.1999 -0.1006 -0.0853
 5863W        W19277  17.823   4.532  12.315  0.0068 -0.0730  0.1941
 5864W        W19278  10.378  13.610  13.137 -0.2132  0.2761 -0.0734
 5865W        W19279   3.529  10.103  14.175 -0.2183 -0.1869 -0.0144
 5866W        W19280  17.710   7.644   5.842 -0.0161 -0.2721  0.0346
 5867W        W19281  11.998   5.347   1.592 -0.0550 -0.3100 -0.2070
 5868W        W19282  15.969  17.131  10.687 -0.0064 -0.2605  0.1608
 5869W        W19283   4.960  16.001  15.819 -0.0485  0.1341  0.1541
 5870W        W19284   7.280  14.815   4.103 -0.1402 -0.2702 -0.1413
 5871W        W19285  10.332   8.275   2.047  0.0466  0.0696  0.0548
 5872W        W19286   8.189  12.483   1.945  0.2485 -0.0886  0.2141
 5873W        W19287  11.904  17.085   3.086 -0.3241  0.2377  0.0870
 5874W        W19288  16.775   9.295   3.588  0.0486  0.2453  0.0530
 5875W        W19289   0.918   8.873   5.462 -0.2869 -0.2556  0.4045
 5876W        W19290  15.023   1.059   0.494 -0.1464  0.2935 -0.1860
 5877W        W19291   4.068  10.266  12.178  0.3322 -0.3310 -0.1157
 5878W        W19292  17.015   4.051  13.265  0.1410  0.1752 -0.0215
 5879W        W19293  16.111   9.032   5.780  0.1907  0.0726 -0.2390
 5880W        W19294   5.034   1.472   1.158  0.0905 -0.2572 -0.2165
 5881W        W19295   2.587   7.512  16.070 -0.1736 -0.1076  0.3906
 5882W        W19296   4.040   4.385   6.830  0.0186  0.0548 -0.0527
 5883W        W19297  10.750   2.725  15.701 -0.2984  0.1561 -0.1760
 5884W        W19298   3.700   3.244  15.801  0.2049 -0.1120 -0.0127
 5885W        W19299   8.931  13.772  15.833 -0.0816 -0.2218  0.1921
 5886W        W19300   6.283   8.577   1.711  0.0384  0.2065  0.1432
 5887W        W19301  16.641   8.838  12.211  0.1789  0.1094  0.0623
 5888W        W19302   8.173   6.876  11.872 -0.4740  0.1874 -0.1429
 5889W        W19303  16.626  12.172   3.900  0.1466 -0.3727  0.0172
 5890W        W19304   0.925  16.200  15.742 -0.0131 -0.0086  0.2113
 5891W        W19305   3.976  11.866  16.499  0.0508  0.0981  0.0051
 5892W        W19306  16.352  17.506  11.049  0.0790 -0.0188 -0.1308
 5893W        W19307   3.420  12.243  13.659 -0.2228  0.1694 -0.0298
 5894W        W19308   1.566   6.089  14.194 -0.0798  0.1998  0.0965
 5895W        W19309  11.709  15.993   2.647  0.1269 -0.1760 -0.0058
 5896W        W19310   9.057   5.184  16.129  0.2702 -0.0149 -0.0227
 5897W        W19311   1.102  12.193  15.689  0.4346 -0.1023 -0.1192
 5898W        W19312   0.775   1.003   5.827 -0.1627 -0.3444  0.1479
 5899W        W19313   2.241  16.263   2.047 -0.0945 -0.2762 -0.0142
 5900W        W19314   2.405   5.245  12.820  0.0551 -0.0079 -0.0370
 5901W        W19315   1.557  15.143  12.673  0.3437  0.0710  0.1831
 5902W        W19316  17.400  15.735   4.407  0.0921  0.0308  0.3784
 5903W        W19317   0.186  14.049   2.782  0.0662 -0.0257  0.1109
 5904W        W19318  14.461  16.103   0.319  0.1553 -0.0924  0.0691
 5905W        W19319   5.676  16.847   0.439 -0.1831 -0.1546 -0.1901
 5906W        W19320   9.512   7.670  13.151 -0.1844 -0.3245 -0.2716
 5907W        W19321  10.712  15.908  13.829 -0.4301 -0.1330  0.0711
 5908W        W19322  10.066  17.336   1.721 -0.0413 -0.0505 -0.0492
 5909W        W19323   0.545   5.546  14.742  0.5610  0.1694 -0.5767
 5910W        W19324   3.203   5.006  10.487  0.0769 -0.0466 -0.0127
 5911W        W19325  13.427   4.739  13.898 -0.1139  0.2164 -0.1899
 5912W        W19326  17.275  12.417  16.003  0.0396  0.1961 -0.3055
 5913W        W19327   2.526   2.602  11.713  0.2791 -0.2212  0.1056
 5914W        W19328   5.212   5.035  14.233  0.0472  0.0543  0.1821
 5915W        W19329   4.058  10.803   4.370 -0.1500 -0.2159 -0.3185
 5916W        W19330  12.057  13.434  13.341  0.1332 -0.1158 -0.0863
 5917W        W19331   5.192  11.925  12.805 -0.1690 -0.2090 -0.1949
 5918W        W19332  11.171   6.455  12.725 -0.1802  0.0462  0.3145
 5919W        W19333  11.495   8.474   1.598  0.1110  0.3422  0.2540
 5920W        W19334   1.367   8.535  14.597 -0.0699 -0.3560 -0.3920
 5921W        W19335   7.473  16.947   4.445  0.3435 -0.2719  0.1368
 5922W        W19336  13.526   6.928  13.304  0.0812 -0.3280 -0.0727
 5923W        W19337  14.605  12.651  10.968 -0.0859 -0.2171  0.1100
 5924W        W19338  13.241   4.753  15.083 -0.0129  0.1321  0.1498
 5925W        W19339  11.368   1.764   4.390 -0.0085 -0.1315  0.0430
 5926W        W19340   7.526  17.426  12.867  0.2798  0.1515  0.1707
 5927W        W19341   1.532  13.629  11.499  0.0641  0.0267 -0.0685
 5928W        W19342   1.364   7.022   0.429  0.0085  0.1387 -0.0315
 5929W        W19343   2.828  11.099   1.435 -0.0356  0.1443 -0.0780
 5930W        W19344  12.048   9.801  10.461  0.1645 -0.2038  0.1391
 5931W        W19345  11.254   4.968   4.712 -0.3632 -0.1412 -0.1114
 5932W        W19346   7.121   3.359  11.808  0.0208 -0.3346 -0.2739
 5933W        W19347   3.657   3.669   0.078 -0.1138 -0.2264  0.2617
 5934W        W19348   2.701   1.666   4.889 -0.1502  0.1438  0.0078
 5935W        W19349  12.235   8.132  14.861  0.3416 -0.1323  0.1317
 5936W        W19350  16.822   6.304  16.641  0.1493  0.0295 -0.1274
 5937W        W19351   1.663   6.583   1.899  0.1349 -0.0584  0.1171
 5938W        W19352  10.779   8.955   1.846 -0.0048 -0.0209  0.2863
 5939W        W19353   5.380  15.241   6.020 -0.0735  0.2496  0.2489
 5940W        W19354  10.854   0.043  16.634  0.1790 -0.1135  0.0324
 5941W        W19355   9.300  13.540   0.090 -0.2525  0.2547  0.2068
 5942W        W19356  11.874  16.010   2.163 -0.0575  0.2270 -0.0340
 5943W        W19357   8.179   7.659   4.810  0.0073  0.0840 -0.0144
 5944W        W19358   8.726  15.345  14.071  0.2464  0.2275 -0.0012
 5945W        W19359  14.787   7.093   2.252  0.1610 -0.1577  0.0523
 5946W        W19360  13.973  11.587   5.423  0.0288 -0.0270 -0.0885
 5947W        W19361  17.433   6.134   1.807 -0.1757 -0.2439 -0.4051
 5948W        W19362   9.000   3.114  12.124  0.2474  0.2020  0.1515
 5949W        W19363  14.834  17.086   1.417  0.1385  0.0997 -0.4322
 5950W        W19364  11.425   7.828   5.390  0.0796 -0.2303  0.1128
 5951W        W19365   5.248   5.838  16.472 -0.2552  0.2614  0.1909
 5952W        W19366   3.537   8.672   1.693  0.3225  0.1930  0.1812
 5953W        W19367   0.216   2.307  11.870  0.1527  0.3706  0.0295
 5954W        W19368   9.471   8.187  10.616  0.2147 -0.1377  0.4575
 5955W        W19369   0.371   9.355   1.143  0.0423 -0.1185 -0.3165
 5956W        W19370   7.203  10.442  10.862  0.1605 -0.1473 -0.0413
 5957W        W19371  16.970  14.251  12.243 -0.0045 -0.2410  0.0910
 5958W        W19372   5.691   2.933  13.648  0.0572 -0.1830  0.3278
 5959W        W19373  16.315   4.149   2.231  0.0306 -0.2454  0.2322
 5960W        W19374   6.939   7.992  14.025  0.2204 -0.3042 -0.0571
 5961W        W19375  17.224  11.192   3.289 -0.1120  0.3688  0.0178
 5962W        W19376   3.231  12.368   3.820  0.0336  0.1341  0.2562
 5963W        W19377   4.590   8.820   3.159  0.2014  0.1786  0.3197
 5964W        W19378  12.642   5.663  10.666 -0.2105 -0.0533  0.2275
 5965W        W19379   2.015   6.976   1.675 -0.1246  0.3072 -0.0326
 5966W        W19380  17.853   7.775  15.271  0.0370  0.1179 -0.0950
 5967W        W19381  13.256  17.429  13.511 -0.1878 -0.0865 -0.3965
 5968W        W19382   6.894   1.016  16.346 -0.0305  0.2978 -0.1924
 5969W        W19383  14.142  13.376   3.313 -0.0481  0.1883  0.0698
 5970W        W19384  16.140   6.526   3.049 -0.0143 -0.4240  0.2286
 5971W        W19385   0.081  13.935   2.228 -0.1977  0.0497 -0.0798
 5972W        W19386  11.016   3.926   3.681  0.1178  0.2139 -0.1201
 5973W        W19387  15.685  11.796   1.522 -0.0552 -0.2005 -0.2511
 5974W        W19388   1.326   9.568  16.095 -0.0421 -0.0484  0.0991
 5975W        W19389  16.853   0.627   5.791  0.3543 -0.1177  0.1035
 5976W        W19390   8.299  17.016   1.752  0.2306  0.1831  0.0478
 5977W        W19391   1.976  12.125   1.574  0.0058 -0.2082  0.3184
 5978W        W19392  13.996   0.570   3.471  0.0182  0.1061  0.6410
 5979W        W19393  13.749  10.904   2.271 -0.1301 -0.0511 -0.3030
 5980W        W19394  16.208   3.536  13.790  0.1633  0.2901 -0.1015
 5981W        W19395  14.680   1.886   4.267 -0.1025 -0.0857  0.0490
 5982W        W19396  10.069  12.892  10.624  0.2067  0.1732 -0.1180
 5983W        W19397   1.286   2.907   0.907  0.1271 -0.0763  0.1088
 5984W        W19398  12.664  10.630  13.712 -0.0070  0.0211 -0.1234
 5985W        W19399   3.284  14.418   4.242  0.2585  0.1021 -0.1176
 5986W        W19400   2.730  10.846  14.869 -0.1372  0.0784 -0.1628
 5987W        W19401   3.568  16.790  12.951  0.2102 -0.2346  0.0282
 5988W        W19402  15.038   1.302   0.069 -0.1435 -0.2167  0.2676
 5989W        W19403  17.280  14.415  10.926 -0.0834  0.0639 -0.2543
 5990W        W19404   5.733  13.221   3.916  0.0320  0.0084 -0.2694
 5991W        W19405  13.512  10.374   6.786 -0.0778 -0.1223 -0.0126
 5992W        W19406  15.524   2.404   0.078 -0.1692 -0.2716 -0.0658
 5993W        W19407   4.137  11.129  13.388 -0.0768  0.0130 -0.0299
 5994W        W19408   5.719  15.471  15.365 -0.5511  0.1613 -0.0551
 5995W        W19409  17.766  12.460  14.820 -0.1453 -0.0602  0.1829
 5996W        W19410  14.955   2.530   4.939 -0.1948 -0.2767  0.2200
 5997W        W19411  11.179  16.748   1.141 -0.0467  0.0850  0.2876
 5998W        W19412  10.789   5.871  13.293  0.1852 -0.2985 -0.4856
 5999W        W19413   0.184  16.898   4.352 -0.0909 -0.1574 -0.1306
 6000W        W19414  13.454  12.286   5.630  0.0828 -0.0009 -0.0627
 6001W        W19415   1.413  11.850  10.859  0.0201  0.1570  0.0452
 6002W        W19416   8.879  11.659  14.746 -0.0755 -0.1355  0.1841
 6003W        W19417   7.002   7.934   4.049 -0.2575  0.2222  0.0864
 6004W        W19418  13.124  14.139  13.096 -0.0034 -0.0357  0.4141
 6005W        W19419   0.672  13.621   6.515  0.1115 -0.2390  0.1420
 6006W        W19420   8.201  12.253  11.478 -0.3312  0.0093  0.3352
 6007W        W19421   7.743  13.676   2.657  0.0486 -0.1693  0.0797
 6008W        W19422   2.688   0.740   5.335  0.0739 -0.2288 -0.0891
 6009W        W19423  10.136   3.865   1.850  0.1158  0.1479 -0.0571
 6010W        W19424  13.070   4.162  13.304 -0.0361  0.4040  0.0096
 6011W        W19425   8.768   1.880   2.313  0.1621  0.0401  0.3993
 6012W        W19426  10.737   5.585   1.652 -0.0576 -0.0602  0.0390
 6013W        W19427   0.943  17.196   0.282 -0.1008  0.1099  0.0986
 6014W        W19428  14.044   1.023   3.554 -0.0522  0.0511  0.1408
 6015W        W19429  14.613   0.573   2.681 -0.2865  0.0847 -0.0140
 6016W        W19430  10.724   6.478  12.689  0.1261  0.1720  0.2294
 6017W        W19431  11.852   2.912   0.729 -0.0199  0.1484 -0.0735
 6018W        W19432   3.253  16.751   1.951 -0.0250 -0.2352  0.3315
 6019W        W19433   8.213  16.907  10.467 -0.0571  0.2058  0.1857
 6020W        W19434   4.292   1.898  11.104 -0.0136  0.0317 -0.3969
 6021W        W19435  10.543  15.370  15.826 -0.0939  0.2466 -0.5974
 6022W        W19436  17.476   1.339   4.839  0.2662  0.0936  0.0618
 6023W        W19437   1.631   3.182  12.678  0.0041 -0.3663 -0.2071
 6024W        W19438  16.238   9.034   3.362  0.2472 -0.1754  0.0174
 6025W        W19439  11.784   3.805  13.852  0.4063  0.0144  0.2722
 6026W        W19440  14.079  14.134   3.053  0.3763  0.3381 -0.3926
 6027W        W19441   3.311  13.124  13.921  0.0768  0.0041 -0.0150
 6028W        W19442  12.947  14.741   9.897 -0.1283 -0.1742 -0.0722
 6029W        W19443   0.990   2.872   0.123  0.0357  0.0478  0.0053
 6030W        W19444   7.724   2.148  12.172  0.0439  0.3216  0.0697
 6031W        W19445  11.754  13.639   4.168 -0.0012 -0.0168  0.3393
 6032W        W19446   8.638   8.233   6.402 -0.2822 -0.1463  0.3660
 6033W        W19447  12.861  11.421   3.190 -0.1880  0.1047  0.0904
 6034W        W19448  13.269  16.485   5.879 -0.3268  0.4149 -0.2515
 6035W        W19449  11.737  11.535  11.457  0.1129 -0.1879 -0.0914
 6036W        W19450   4.221   3.943  15.947  0.0715  0.2962 -0.0187
 6037W        W19451  14.873   7.911  12.736  0.0089  0.1357  0.1301
 6038W        W19452  10.608  10.818  14.629 -0.1899 -0.0913  0.2703
 6039W        W19453   1.906   5.337   1.025  0.0058 -0.0279 -0.1759
 6040W        W19454   7.578  11.760  14.540  0.2769  0.2560  0.2399
 6041W        W19455   8.959   6.199  15.700 -0.1140  0.1519  0.0400
 6042W        W19456  13.600  16.539   5.216  0.0862  0.2008  0.0132
 6043W        W19457   3.595   7.605  14.479 -0.1754  0.0150  0.3493
 6044W        W19458  13.955  16.609   2.059  0.1621  0.2523  0.1549
 6045W        W19459  14.611   3.121   5.853  0.0444 -0.2124 -0.0025
 6046W        W19460   7.685  16.724  12.541 -0.3238 -0.0385 -0.5889
 6047W        W19461  15.707   8.591   0.825 -0.1756  0.0838 -0.1541
 6048W        W19462   7.708   1.582  13.467  0.0898 -0.1187  0.0395
 6049W        W19463  17.266   8.512  12.536  0.2275 -0.0613 -0.0535
 6050W        W19464  15.901   2.550  13.762  0.2736  0.2312 -0.0075
 6051W        W19465   7.402   5.089  11.374  0.0213 -0.4041  0.2425
 6052W        W19466  11.264   3.565  10.664 -0.3430 -0.1855  0.1198
 6053W        W19467  14.171   2.179   5.749  0.0199 -0.0384 -0.1182
 6054W        W19468  11.476   1.967  11.240 -0.0869 -0.2047 -0.2742
 6055W        W19469   2.583   6.785   4.429  0.3086 -0.1006 -0.1032
 6056W        W19470   1.006  17.751  14.642  0.0057  0.0163 -0.0447
 6057W        W19471   6.347   2.775  12.812  0.0404  0.1758  0.2936
 6058W        W19472   0.127  11.029   5.167 -0.4514 -0.2282  0.3123
 6059W        W19473   9.234  15.441  10.325  0.0647  0.1324 -0.1202
 6060W        W19474  10.216   1.163  16.025 -0.0568 -0.0591  0.1849
 6061W        W19475  10.351  12.882   2.850 -0.0924 -0.0391  0.1167
 6062W        W19476   9.950   9.099  13.948  0.2802  0.1566 -0.0799
 6063W        W19477   9.920   4.573   1.319 -0.0632 -0.0875 -0.0713
 6064W        W19478   9.117  17.788   0.992 -0.2267  0.0501  0.0910
 6065W        W19479  12.016   6.256   1.628 -0.0683  0.0150 -0.0710
 6066W        W19480  12.332  14.353   5.270  0.1400  0.0273 -0.0608
 6067W        W19481  11.041   8.493  11.798  0.2140  0.1512  0.2538
 6068W        W19482   7.198  12.254   4.823  0.1063  0.1080  0.4102
 6069W        W19483  13.277  10.221   2.394  0.0276 -0.1513  0.0675
 6070W        W19484  12.957   0.703   0.631  0.1188  0.0819 -0.1576
 6071W        W19485  16.020  15.234  14.544 -0.1585 -0.1324 -0.1473
 6072W        W19486   0.340   5.297  16.635 -0.0116  0.2226  0.2123
 6073W        W19487   9.947  14.775  12.680 -0.3124  0.0904  0.1055
 6074W        W19488   8.574   5.155  15.985 -0.0210  0.3742 -0.0261
 6075W        W19489   3.076   9.253  15.018  0.0285  0.0400  0.0202
 6076W        W19490   4.290  14.275  11.008 -0.2097  0.0945 -0.0998
 6077W        W19491   4.349   4.555   3.179 -0.2864  0.1046 -0.0399
 6078W        W19492   7.734  15.103   0.680 -0.0055 -0.4182 -0.0405
 6079W        W19493  15.377  13.709   3.930  0.0731 -0.0287 -0.3778
 6080W        W19494   2.172   7.773   5.906  0.3151  0.1531  0.0213
 6081W        W19495   2.469   9.867  12.107  0.1564  0.3238 -0.0435
 6082W        W19496  17.063  14.429   2.039  0.2300  0.0064  0.2924
 6083W        W19497   0.532   7.847   6.877 -0.0545  0.1970  0.0183
 6084W        W19498   6.698   4.114  11.419  0.0134 -0.1131 -0.0482
 6085W        W19499  12.930  13.793   1.163  0.0173  0.0752 -0.2000
 6086W        W19500   1.997   2.329  12.334 -0.0218  0.2008  0.1532
 6087W        W19501  11.913   3.793  16.463 -0.2748  0.4948 -0.1689
 6088W        W19502  16.180   1.548   4.475  0.0805 -0.0239 -0.0429
 6089W        W19503  15.294  10.183   0.356  0.0774  0.2355  0.1067
 6090W        W19504  13.542   4.237  15.399  0.0172 -0.1095 -0.3020
 6091W        W19505  13.723  14.605  14.046 -0.1451 -0.1040 -0.0817
 6092W        W19506   8.433   2.512   0.723  0.1973 -0.1123 -0.1405
 6093W        W19507  14.619   3.936   5.191 -0.1356 -0.3890 -0.2897
 6094W        W19508   3.937  16.167   3.438  0.2069 -0.0144 -0.1739
 6095W        W19509   9.214  13.700  11.552  0.2420  0.0979 -0.3930
 6096W        W19510  16.192   4.487  15.368 -0.0917 -0.1536 -0.2876
 6097W        W19511   4.825  12.816   0.925  0.2410 -0.1144 -0.0150
 6098W        W19512  10.259   8.657   1.083  0.1527 -0.2163 -0.1075
 6099W        W19513   5.161   2.097  15.226  0.0368  0.2028 -0.1481
 6100W        W19514  16.070  14.493   0.005  0.2321  0.0442  0.0932
 6101W        W19515  10.274  14.765  11.603 -0.0283 -0.0641  0.1883
 6102W        W19516   0.466   2.491  14.607  0.1449 -0.0195  0.1236
 6103W        W19517  16.358   0.625   2.607  0.1611 -0.2219  0.0970
 6104W        W19518   0.030  10.698   1.893 -0.0152 -0.1540 -0.1671
 6105W        W19519  12.086   7.858  15.597  0.1025  0.1264 -0.0764
 6106W        W19520   1.264   0.038   5.828  0.3746 -0.2569  0.1286
 6107W        W19521  12.395   7.479   0.323  0.0156 -0.0788  0.3813
 6108W        W19522  11.725  12.573   0.125 -0.0371 -0.0069 -0.2190
 6109W        W19523   9.244   3.688  10.668  0.2128 -0.1707 -0.0781
 6110W        W19524   4.973   8.080  16.156  0.0368  0.2203  0.0835
 6111W        W19525   7.329  11.282  13.655 -0.1875  0.2914  0.0713
 6112W        W19526   3.119  10.898  11.498  0.0142 -0.1720 -0.1077
 6113W        W19527  15.279  15.034   1.494  0.1927 -0.3250  0.1737
 6114W        W19528  10.166   5.740   5.461 -0.0830 -0.0949  0.1019
 6115W        W19529  13.831  17.038  12.722  0.0735 -0.2321 -0.0936
 6116W        W19530  18.038   2.470  11.445  0.2842 -0.1333  0.1914
 6117W        W19531   3.124  13.455   2.358  0.2511 -0.0750  0.0034
 6118W        W19532  16.658   7.227  12.789  0.0494 -0.4697  0.4228
 6119W        W19533   5.547   7.261   6.079 -0.3120 -0.2996 -0.1751
 6120W        W19534   2.543  12.286   5.877 -0.1852 -0.2743 -0.3435
 6121W        W19535   0.408   2.202  10.580  0.0334 -0.1075  0.2038
 6122W        W19536   2.875   7.070   2.254  0.1717  0.3520 -0.0581
 6123W        W19537   6.491   4.877   3.395  0.1188 -0.2062  0.1739
 6124W        W19538  15.005   6.618   1.250 -0.0203  0.2265 -0.1154
 6125W        W19539  17.472  11.947  15.100  0.2859 -0.2064  0.3773
 6126W        W19540  12.199  14.092  11.961 -0.2647 -0.1366  0.2420
 6127W        W19541   4.870  17.310   0.812 -0.1369 -0.0585  0.3144
 6128W        W19542   1.476  12.051  14.828  0.1338  0.1805 -0.1582
 6129W        W19543  14.296   8.157  14.181 -0.1358  0.2274 -0.0108
 6130W        W19544   4.051   9.275  15.203 -0.1637 -0.1876 -0.2318
 6131W        W19545   8.328   4.122  13.857 -0.0085 -0.1029 -0.1292
 6132W        W19546  10.996  11.447   2.603  0.0553 -0.1457  0.2627
 6133W        W19547  14.039   9.665   1.899  0.2194  0.1421  0.0530
 6134W        W19548   6.329  11.475  16.041 -0.1573  0.0703 -0.0905
 6135W        W19549   7.128  17.843   1.331  0.1574 -0.1662 -0.4257
 6136W        W19550  16.144  11.552  12.898 -0.1247 -0.1403 -0.0466
 6137W        W19551  17.985   7.596   4.608 -0.1650  0.2289 -0.2611
 6138W        W19552  13.927   8.965  12.533 -0.0418  0.2366 -0.2400
 6139W        W19553   5.647   3.323   2.674  0.3815 -0.1714  0.0933
 6140W        W19554   1.840  10.271  11.781  0.0608  0.2065  0.0498
 6141W        W19555  12.893   8.612  14.587  0.0104 -0.0432 -0.0125
 6142W        W19556  11.026   5.971   1.554 -0.0777  0.0997  0.3705
 6143W        W19557   9.709   3.750  15.199  0.1773  0.1113 -0.0625
 6144W        W19558   7.933  12.356   0.034  0.1313  0.0287 -0.0049
 6145W        W19559  14.109   8.427  11.993  0.1125  0.4208  0.1354
 6146W        W19560   1.734  10.317   1.508 -0.2001  0.2020  0.3095
 6147W        W19561  14.584   9.690   5.477 -0.3607 -0.0264 -0.0599
 6148W        W19562   0.054   1.668  15.187 -0.1334 -0.0335 -0.0893
 6149W        W19563   8.194  15.224  13.871 -0.0960 -0.1846  0.0142
 6150W        W19564  14.437  11.798   3.720  0.0007 -0.0122 -0.2047
 6151W        W19565  16.487   1.611  14.867 -0.0460  0.0791  0.0522
 6152W        W19566  14.513  13.552  15.784 -0.1035 -0.3095 -0.1795
 6153W        W19567   8.339   9.884  13.264 -0.1816  0.2609  0.1651
 6154W        W19568   7.147   0.688  15.474  0.0340 -0.2343 -0.1036
 6155W        W19569   2.182   8.838  11.939  0.1837  0.3564  0.0854
 6156W        W19570   5.490  17.535  12.894  0.3029  0.0174 -0.0095
 6157W        W19571  14.734   2.303  12.698  0.2114  0.0810  0.1937
 6158W        W19572  12.769   0.347  12.222 -0.0222 -0.0148  0.3131
 6159W        W19573   7.387   4.693   5.301  0.2716  0.2347  0.0056
 6160W        W19574  10.267  10.528   4.405  0.1483 -0.2862  0.1609
 6161W        W19575   8.420   2.357  13.096  0.2797  0.1814  0.2264
 6162W        W19576   1.779   9.655  14.018  0.1246  0.0809 -0.0537
 6163W        W19577  16.924  17.099   4.269 -0.1285 -0.1409 -0.0544
 6164W        W19578   7.307  16.950  14.830  0.0961  0.2440 -0.2410
 6165W        W19579   6.663   9.791  12.700  0.0253 -0.1132  0.2685
 6166W        W19580   1.898  16.155  16.482 -0.3284 -0.0973  0.1483
 6167W        W19581   3.747   9.322   1.818 -0.2488  0.0815 -0.0636
 6168W        W19582   1.425   5.749  12.198 -0.1527 -0.1086 -0.2664
 6169W        W19583   8.231   7.524  11.707  0.1701  0.0694 -0.1471
 6170W        W19584  12.504  16.122  16.111 -0.1854 -0.0014 -0.0090
 6171W        W19585  16.840   5.305  13.644  0.0596 -0.1206 -0.0168
 6172W        W19586  17.604  12.852   3.431  0.0776  0.1856 -0.1635
 6173W        W19587   3.886   8.866  14.458  0.0513 -0.0952  0.1013
 6174W        W19588  10.502  11.802  15.993  0.3150  0.1166  0.1960
 6175W        W19589   9.132   1.913  11.400 -0.2917  0.3315 -0.0382
 6176W        W19590  16.551   2.186   0.235  0.0658  0.3313  0.0587
 6177W        W19591  17.406   2.650   0.905  0.2216 -0.0746  0.2784
 6178W        W19592  17.893  17.216  12.655  0.0401  0.1868  0.2946
 6179W        W19593   5.045  12.695  16.182 -0.0253 -0.0239  0.2762
 6180W        W19594  12.464   3.612   1.546 -0.1295  0.2876  0.1111
 6181W        W19595   5.058  14.095  14.515  0.0744  0.1227  0.0598
 6182W        W19596   6.191   1.475  12.478 -0.0757  0.2341  0.1283
 6183W        W19597  13.959   2.702  15.483  0.0450 -0.4290  0.1662
 6184W        W19598  12.074  12.085   4.861  0.3465  0.3018  0.0409
 6185W        W19599   5.630  17.164  16.514 -0.2743  0.2945 -0.0096
 6186W        W19600   4.832   7.354   1.691  0.0640  0.2116 -0.1767
 6187W        W19601  17.085  14.607   4.027  0.1500  0.1237  0.1174
 6188W        W19602   8.232   4.972   5.110 -0.0931 -0.0233 -0.1933
 6189W        W19603   8.398  14.241  11.407 -0.1397 -0.1833 -0.2258
 6190W        W19604   3.005  13.909  13.618  0.0714  0.1591 -0.2000
 6191W        W19605  12.939   7.591  12.530 -0.1076  0.4602 -0.0354
 6192W        W19606  17.232   3.041  14.346  0.0008 -0.0447  0.1634
 6193W        W19607  12.810  11.371   5.824 -0.1843  0.2771  0.1649
 6194W        W19608   5.182   0.040   3.513 -0.1327  0.2788  0.0260
 6195W        W19609   7.060   9.091   6.344 -0.1527  0.1160 -0.0834
 6196W        W19610  12.557  15.633  16.125 -0.1386 -0.0128  0.2954
 6197W        W19611  17.522   1.781   4.498 -0.3767 -0.0574 -0.0095
 6198W        W19612   6.713   7.597  12.893  0.0817  0.1776 -0.2710
 6199W        W19613  11.975  13.021  11.778 -0.1869  0.1205  0.2456
 6200W        W19614  13.849  13.872  11.389 -0.2413 -0.0605 -0.3098
 6201W        W19615  10.534   1.155  14.489  0.0437 -0.1047 -0.2059
 6202W        W19616   3.924   8.947   5.384 -0.1759  0.1467  0.2162
 6203W        W19617  13.298   8.795   6.120  0.1102  0.2117 -0.0952
 6204W        W19618  16.485   8.533  13.514 -0.2724 -0.1741 -0.0967
 6205W        W19619  15.270  11.685  11.432  0.1821 -0.0309  0.1515
 6206W        W19620  11.472  16.718  11.697 -0.2401 -0.0254 -0.0816
 6207W        W19621   3.026  15.830   1.584  0.1413  0.0622  0.1518
 6208W        W19622   3.275   8.692   2.967  0.0578  0.1621  0.1499
 6209W        W19623  16.177   5.824   1.646  0.1987  0.2320 -0.0055
 6210W        W19624   2.564  10.292  12.938  0.0444  0.1731  0.0164
 6211W        W19625   3.763   3.579  12.398 -0.2647 -0.3040  0.0808
 6212W        W19626   4.656   6.396   1.280 -0.1530  0.0563 -0.3421
 6213W        W19627  14.460   9.280  16.688  0.1449 -0.1324 -0.1070
 6214W        W19628  11.485   0.652  12.769  0.2820 -0.2910 -0.0330
 6215W        W19629  10.854   5.555   5.054 -0.0367  0.0296 -0.0536
 6216W        W19630  10.539  12.014  12.689 -0.0920  0.0159  0.0308
 6217W        W19631   6.019   1.130   2.463  0.0110 -0.0685  0.0658
 6218W        W19632   5.851  16.828  13.995 -0.3313  0.0782  0.0642
 6219W        W19633   4.403  14.476  11.609  0.0271  0.0936  0.0637
 6220W        W19634  13.514  11.505  14.291  0.0730  0.0637 -0.0512
 6221W        W19635   7.485   7.916   4.302 -0.0419 -0.0211 -0.1603
 6222W        W19636   1.427   4.444   0.528  0.0341 -0.0842  0.2607
 6223W        W19637  10.450  14.380  14.878  0.2552  0.0714 -0.0396
 6224W        W19638  10.235  17.106  12.203  0.1941 -0.0998 -0.1204
 6225W        W19639  12.430   8.178   0.310  0.2290 -0.3449 -0.0443
 6226W        W19640   0.505   4.218  13.496 -0.0523  0.0423 -0.0540
 6227W        W19641  16.653   3.787  13.703  0.0035 -0.0033 -0.0839
 6228W        W19642   1.489   9.596  13.619 -0.0954  0.0946  0.2413
 6229W        W19643   5.033  12.654  12.330 -0.2995  0.1045 -0.3404
 6230W        W19644   0.050   5.556   0.685  0.5876 -0.0134  0.2100
 6231W        W19645   4.519   6.964   5.002 -0.1324 -0.5022  0.2701
 6232W        W19646  12.118  15.906  16.404 -0.0098 -0.3292  0.0114
 6233W        W19647   7.274   6.229   0.779  0.4532  0.1096  0.2691
 6234W        W19648   2.512   3.772   0.437  0.0112  0.1653 -0.0816
 6235W        W19649   1.102  14.016  16.203 -0.3190 -0.3022  0.0885
 6236W        W19650   2.474   9.094  11.438 -0.2582  0.0005 -0.0678
 6237W        W19651  17.530   8.768  15.442 -0.0124 -0.0856 -0.2655
 6238W        W19652  15.890   8.381  15.693  0.0078  0.0279 -0.0831
 6239W        W19653  12.730   9.407  14.732  0.0818 -0.0197 -0.0850
 6240W        W19654  12.527  10.860   5.707  0.2830  0.0839 -0.0270
 6241W        W19655   5.382   6.549   2.864  0.3116  0.2910 -0.0068
 6242W        W19656   5.408   9.698  11.694  0.1946  0.2606  0.0888
 6243W        W19657  14.947  11.672  13.347  0.2474  0.0546 -0.2144
 6244W        W19658  13.411   6.021  14.437 -0.4796  0.0901  0.2280
 6245W        W19659   6.118  10.771  13.622 -0.0285 -0.2568  0.2369
 6246W        W19660   3.612   8.958   3.770 -0.0138  0.0668 -0.2226
 6247W        W19661   9.594   2.927  15.129  0.0235  0.2993  0.1550
 6248W        W19662   1.661  17.186  12.041 -0.0409 -0.0703 -0.0491
 6249W        W19663   3.430  13.780  15.627  0.1636  0.1218 -0.0175
 6250W        W19664   2.137  12.440   2.288 -0.1093  0.2669 -0.2875
 6251W        W19665   0.643  11.728   3.939 -0.2250  0.0478 -0.1278
 6252W        W19666  15.112   6.277   5.401 -0.0860  0.1490  0.1592
 6253W        W19667  14.226  10.143   3.401 -0.0686  0.1137  0.2657
 6254W        W19668  17.575  15.728   2.251 -0.1152  0.0691 -0.1003
 6255W        W19669   0.780   2.465   3.184  0.2248 -0.0968 -0.0313
 6256W        W19670  16.659  16.116   2.972  0.1118 -0.0256 -0.0513
 6257W        W19671   7.570  11.375  12.822  0.0378  0.0050  0.0506
 6258W        W19672  10.015   3.364   5.774 -0.0261 -0.2468 -0.4119
 6259W        W19673   5.196  16.413   2.020  0.1812  0.0748 -0.0601
 6260W        W19674   9.086   3.459   2.378 -0.2382 -0.0607  0.1352
 6261W        W19675   0.569   6.062   2.548 -0.1364  0.1877  0.0842
 6262W        W19676   6.916   9.663   2.094  0.0258 -0.2053  0.2517
 6263W        W19677  15.665  12.337  15.325 -0.1178 -0.0001 -0.0004
 6264W        W19678   0.491   0.368   0.126 -0.0507  0.1311  0.0349
 6265W        W19679   9.949   5.907  13.102  0.1984 -0.1475 -0.2462
 6266W        W19680   1.244  10.468  16.190 -0.2678  0.1791 -0.0322
 6267W        W19681   4.797   7.662  14.185 -0.0228 -0.1001 -0.2619
 6268W        W19682   5.581   0.081   3.192  0.0258  0.3300 -0.0027
 6269W        W19683  14.067   9.325  13.718  0.2048  0.0656  0.0196
 6270W        W19684  10.971   9.462   6.308 -0.2799  0.0735 -0.0057
 6271W        W19685  10.669   8.549   2.226  0.0591 -0.1409  0.0594
 6272W        W19686   9.037  10.288  15.237 -0.3039 -0.0432 -0.1495
 6273W        W19687  17.563  13.370   5.796  0.2759 -0.1892 -0.1031
 6274W        W19688  11.410   9.409  10.160  0.2334 -0.2446  0.1049
 6275W        W19689   2.776   5.030  13.382 -0.2713 -0.1282 -0.3183
 6276W        W19690   9.946  13.599   2.247 -0.1481  0.0705 -0.3563
 6277W        W19691   4.109  15.490  12.495 -0.2734  0.1996  0.2332
 6278W        W19692   4.214  13.488  10.533 -0.1476 -0.0158 -0.0847
 6279W        W19693  17.172  13.034   3.308  0.1242  0.0971 -0.0549
 6280W        W19694   3.052  10.980  16.477  0.1719 -0.0614  0.0060
 6281W        W19695  11.040   7.217  12.157  0.0075 -0.2397 -0.0302
 6282W        W19696  15.172  12.444   2.178  0.1602  0.0853  0.0177
 6283W        W19697  17.569  17.553  16.304  0.2282  0.2170  0.0322
 6284W        W19698  15.903  14.407  14.508 -0.0967  0.0458 -0.0788
 6285W        W19699   7.250   4.824   0.944 -0.0572  0.0704 -0.1217
 6286W        W19700   7.606   8.303  12.236  0.0809 -0.0447  0.1029
 6287W        W19701   5.031  10.714  15.721  0.2067  0.1520  0.2735
 6288W        W19702   7.837   4.658  14.292  0.4594  0.2636  0.0873
 6289W        W19703  10.346   1.305  10.945 -0.1585  0.2714 -0.2904
 6290W        W19704   7.287  10.960   3.547 -0.3153  0.1561 -0.2044
 6291W        W19705   1.104  13.126   2.848 -0.0125 -0.0586  0.4083
 6292W        W19706  15.110  17.213   5.471  0.0413 -0.0578 -0.0523
 6293W        W19707   4.716  14.204   5.329 -0.1350 -0.1071  0.2300
 6294W        W19708  11.506  16.410   3.566 -0.0083  0.3470  0.1021
 6295W        W19709  13.647   2.577  12.294  0.4636  0.2097 -0.1754
 6296W        W19710  13.615   6.701   3.346  0.0526 -0.2248 -0.1512
 6297W        W19711  10.091   9.271   2.836 -0.0656  0.2242  0.1283
 6298W        W19712  17.096   4.802   1.692 -0.0124 -0.2896 -0.0126
 6299W        W19713  11.996  13.093  16.168 -0.1807  0.2470 -0.1987
 6300W        W19714   5.472  10.037  16.624 -0.2735 -0.1154 -0.1456
 6301W        W19715  13.404   7.743  11.348  0.2270  0.1438 -0.0088
 6302W        W19716  14.670  16.103  14.361 -0.2310 -0.0585  0.1532
 6303W        W19717   0.026   3.231  16.358 -0.1144  0.2741 -0.1509
 6304W        W19718   6.632  15.590  13.471  0.1430  0.0216 -0.4020
 6305W        W19719  16.303   6.732   5.476  0.0094 -0.2107 -0.1697
 6306W        W19720  17.491   9.925   1.552  0.1417  0.0612 -0.1633
 6307W        W19721   8.701   6.476  14.284  0.1630 -0.2866 -0.0386
 6308W        W19722   1.875  10.623   5.469  0.1147  0.1121 -0.0170
 6309W        W19723  14.842   7.686  11.791 -0.2581  0.1161  0.0145
 6310W        W19724   5.365  12.400   2.632  0.0444  0.2436  0.1117
 6311W        W19725  13.775   9.824  11.084 -0.1030 -0.0523 -0.1314
 6312W        W19726   2.547   6.856   5.662  0.3081 -0.1080  0.1555
 6313W        W19727   4.237  16.726  14.308  0.2942  0.1318 -0.2469
 6314W        W19728  18.013  15.560   1.361 -0.0409 -0.3124  0.1706
 6315W        W19729   1.341   9.893  15.443 -0.2449  0.0489  0.0503
 6316W        W19730  13.429   6.940  15.724 -0.2739  0.2937  0.0513
 6317W        W19731   9.940   6.925   4.417  0.3906  0.1136  0.0639
 6318W        W19732  17.888   0.495   0.793  0.0788  0.1354  0.0313
 6319W        W19733   1.006   8.248  14.945  0.1108  0.0234 -0.0788
 6320W        W19734   9.625   7.849   0.843 -0.0594  0.0738  0.0906
 6321W        W19735  12.069   0.742  14.361  0.1432  0.1005 -0.3969
 6322W        W19736   7.806  17.314  16.470  0.2921 -0.1863 -0.0230
 6323W        W19737  11.182   5.514   4.621  0.0114 -0.0023 -0.2743
 6324W        W19738  10.179  12.765  15.808 -0.0576 -0.0129  0.0481
 6325W        W19739  10.751   9.259   1.439  0.3704 -0.0085 -0.0761
 6326W        W19740   5.152  14.356   5.177  0.0557  0.3242  0.0453
 6327W        W19741  11.174   0.624  15.323  0.3922 -0.1994 -0.1060
 6328W        W19742   8.277   4.542   3.074 -0.1313 -0.1432 -0.1479
 6329W        W19743   9.749  10.330  16.214 -0.0089  0.1960  0.1820
 6330W        W19744   7.031   1.236  12.505 -0.2214  0.1151 -0.0643
 6331W        W19745   3.277  16.909  14.504  0.2174  0.1355  0.0370
 6332W        W19746  15.541   0.682   2.974 -0.0398  0.2554 -0.0089
 6333W        W19747   1.601   9.554  16.548 -0.0815 -0.0766 -0.1907
 6334W        W19748  15.046  11.426   5.409 -0.1067  0.0487  0.0171
 6335W        W19749  11.719   7.390   3.591 -0.3798  0.0329 -0.3329
 6336W        W19750   6.417   4.367   2.987 -0.0180 -0.3799 -0.0433
 6337W        W19751   9.928  17.643   0.162 -0.0277  0.0969  0.1603
 6338W        W19752   4.144   1.836  14.292  0.3177  0.1068  0.0944
 6339W        W19753  14.320   2.295   1.506  0.1105  0.1478 -0.0938
 6340W        W19754  12.463   7.668  14.278 -0.1563 -0.1607  0.0177
 6341W        W19755  10.549   1.348  15.677 -0.0675 -0.0684 -0.0563
 6342W        W19756   4.079   1.871   4.902  0.1289  0.1883 -0.0698
 6343W        W19757   5.953   4.403   0.439  0.1123  0.1153  0.0852
 6344W        W19758  17.563   6.479  13.463 -0.2363 -0.1878  0.5536
 6345W        W19759   4.134   5.005   5.493 -0.2055 -0.0102  0.1347
 6346W        W19760   3.445  16.455  14.312  0.0804  0.0791 -0.3774
 6347W        W19761   3.358   4.586  10.666  0.0819  0.0196  0.2404
 6348W        W19762   5.101  10.067   4.677 -0.1091 -0.1069  0.0719
 6349W        W19763  11.323   6.472   1.017 -0.2030  0.1143 -0.0673
 6350W        W19764   0.261  10.489   2.564 -0.2650  0.0522 -0.1132
 6351W        W19765   7.616   0.500   4.299  0.1935 -0.1855 -0.1308
 6352W        W19766  11.778  17.770  12.769  0.1534  0.0643 -0.0757
 6353W        W19767  13.401   4.581  10.472 -0.2116  0.2643  0.2204
 6354W        W19768   8.541   1.198   5.916 -0.1346 -0.2784  0.0365
 6355W        W19769  16.113  17.607   0.364 -0.2745  0.0829 -0.0205
 6356W        W19770   3.076   4.585  13.514 -0.3166  0.0143 -0.1495
 6357W        W19771   7.976  17.764   3.676  0.4767  0.0026 -0.1361
 6358W        W19772  17.356  12.037   3.306 -0.0551  0.1643  0.0165
 6359W        W19773  15.344   2.928  16.440 -0.0748  0.0278 -0.0191
 6360W        W19774   1.230   8.022   2.173 -0.0739 -0.0103 -0.3707
 6361W        W19775  15.211  10.230  10.555  0.0307 -0.0145  0.0082
 6362W        W19776   7.249   1.605   5.358  0.0263  0.1733  0.2718
 6363W        W19777   4.742  10.869   5.743 -0.0659 -0.1674  0.0892
 6364W        W19778   0.341  11.918   4.366  0.0818  0.0812  0.1596
 6365W        W19779   4.199  13.096  14.975  0.2163  0.0529  0.3660
 6366W        W19780   1.246   2.488   5.502  0.1113 -0.1903 -0.2946
 6367W        W19781  11.914   8.674  15.407  0.0386  0.1175  0.2654
 6368W        W19782  14.975  17.642  14.063  0.1106 -0.0821  0.0351
 6369W        W19783   6.937  17.246   4.423  0.0386  0.0273  0.1496
 6370W        W19784  17.894   4.628  16.280 -0.0563 -0.1005 -0.1204
 6371W        W19785   5.111  13.516   2.389 -0.0710  0.0991 -0.1832
 6372W        W19786  16.145   5.415   0.234  0.0751 -0.1615 -0.0634
 6373W        W19787  12.634   9.205  13.258 -0.3562 -0.1323  0.1934
 6374W        W19788   7.965   9.795  12.950  0.2369 -0.3050 -0.2453
 6375W        W19789   4.330   4.070   3.341 -0.1422  0.0701  0.1926
 6376W        W19790   0.370  13.422  12.367  0.3043 -0.2479  0.2438
 6377W        W19791   9.410  17.768  12.775  0.2541 -0.0018 -0.0165
 6378W        W19792  16.555   5.045  12.714  0.0841 -0.2114  0.0619
 6379W        W19793   6.888   3.080   2.851 -0.1502 -0.1564 -0.2687
 6380W        W19794   6.194   8.497  14.891  0.1270  0.3370  0.0509
 6381W        W19795   7.615  17.244   4.851  0.0286  0.1798 -0.0545
 6382W        W19796   9.223   8.404  15.367  0.0323  0.0888 -0.2736
 6383W        W19797   9.900  17.615  12.731 -0.0822  0.1046  0.2570
 6384W        W19798   3.523   1.599  16.262 -0.2719 -0.0784 -0.0088
 6385W        W19799   5.320   3.713  13.416  0.1414 -0.2625 -0.2590
 6386W        W19800  11.868  15.280   4.452  0.0029  0.3010  0.1762
 6387W        W19801   3.069   6.833  16.614 -0.0804 -0.2713 -0.0649
 6388W        W19802   8.282   1.788  11.756 -0.1885  0.1998  0.1432
 6389W        W19803  11.804   3.568  12.225 -0.2880  0.1721  0.0734
 6390W        W19804  14.665  14.446  10.688  0.0098 -0.0685 -0.2306
 6391W        W19805   2.870   3.160   3.194 -0.2358 -0.1812  0.1525
 6392W        W19806  16.609  16.798  16.532  0.0867  0.2081 -0.2029
 6393W        W19807  11.743  17.786  14.582  0.2294  0.0562 -0.1934
 6394W        W19808   7.082  16.955   5.488 -0.2617 -0.0014 -0.0004
 6395W        W19809   9.560  14.678  12.413 -0.1214 -0.3229 -0.2523
 6396W        W19810   3.652  11.981  14.409 -0.0786  0.4359  0.0268
 6397W        W19811   1.188   0.230   2.352  0.1316  0.0698 -0.2252
 6398W        W19812   1.700  11.552  15.680 -0.0763 -0.2448 -0.2142
 6399W        W19813   7.595   4.011  13.810 -0.0715  0.1002 -0.0732
 6400W        W19814   0.691   7.263   3.548 -0.0660 -0.1160 -0.0829
 6401W        W19815  16.990  11.605   3.476 -0.1463 -0.1093 -0.1444
 6402W        W19816   7.046  10.364  13.934  0.1670 -0.2505 -0.1289
 6403W        W19817   9.542   5.815  14.173  0.0680 -0.3790  0.1450
 6404W        W19818   5.164   5.859  12.939  0.0690 -0.0677  0.0617
 6405W        W19819  12.641  13.209  11.773 -0.2507 -0.0594 -0.2059
 6406W        W19820  13.735   9.805  14.625 -0.0690  0.0157  0.0394
 6407W        W19821   4.679   0.519  12.325 -0.0371 -0.0599 -0.3396
 6408W        W19822   2.183   1.285   4.937  0.1499  0.0316 -0.0509
 6409W        W19823  16.249  15.109  10.212  0.1303 -0.2567  0.2307
 6410W        W19824  13.633  11.555  16.047  0.1849 -0.0979 -0.0648
 6411W        W19825  11.397  11.139  13.223 -0.0108 -0.2516 -0.2878
 6412W        W19826   4.214  10.881   0.891 -0.0585 -0.2516  0.1415
 6413W        W19827   2.626   8.228   1.010  0.1682 -0.2254  0.0372
 6414W        W19828   3.867   8.209   4.512 -0.2361  0.2086 -0.5269
 6415W        W19829   1.309   6.458   4.040 -0.0458  0.0355  0.0871
 6416W        W19830   9.351  17.744   2.880  0.0774 -0.1395 -0.1955
 6417W        W19831  16.207   4.695  12.911  0.0413  0.0890  0.0115
 6418W        W19832  16.841   4.034   1.081  0.0218  0.0916 -0.0942
 6419W        W19833   0.704   3.106  14.500  0.2686 -0.2224  0.5103
 6420W        W19834  14.171   7.866   4.773 -0.2688  0.1871 -0.2287
 6421W        W19835   6.632  12.027   4.740  0.1271 -0.1558 -0.0708
 6422W        W19836   6.344   1.456   3.571  0.4117 -0.1094  0.0551
 6423W        W19837   5.626  14.371  11.186 -0.3462  0.2577  0.0662
 6424W        W19838   1.978   8.235   5.861 -0.0863  0.1618 -0.0496
 6425W        W19839  13.232  15.364   4.271 -0.1524 -0.1482  0.0789
 6426W        W19840  11.149   9.474   3.598 -0.2051  0.0146 -0.0427
 6427W        W19841  12.099   7.651   1.357  0.0500 -0.1336 -0.0352
 6428W        W19842   1.197   7.866  16.463 -0.0403 -0.3666 -0.2693
 6429W        W19843  14.737   2.848   2.775 -0.2908 -0.0654  0.2774
 6430W        W19844   1.206  13.140   1.026 -0.0133  0.0534 -0.0790
 6431W        W19845  12.140   2.839  10.258  0.1249  0.3108  0.0277
 6432W        W19846  13.893   1.228   4.071  0.3011  0.2433 -0.2983
 6433W        W19847   6.244  12.123   0.442  0.0174  0.1432  0.1267
 6434W        W19848   9.553  13.723   3.663 -0.2392 -0.1104 -0.1736
 6435W        W19849   1.227   5.449   4.455 -0.0411  0.0318 -0.0491
 6436W        W19850   4.059   6.590   6.562 -0.1258  0.1199  0.0254
 6437W        W19851   2.970   0.127  15.638 -0.1053  0.0535 -0.1979
 6438W        W19852   8.657  12.159   0.906 -0.1330  0.0340  0.1662
 6439W        W19853  14.942  15.229  14.360  0.0702  0.2853 -0.0520
 6440W        W19854  16.470  16.445   0.683 -0.1590 -0.4017 -0.1960
 6441W        W19855   6.470   5.567   4.823  0.3284 -0.0001  0.3509
 6442W        W19856   7.220   4.412  11.495  0.0699  0.0145 -0.0134
 6443W        W19857   0.497   1.999  11.409  0.2981 -0.0243  0.1122
 6444W        W19858   5.188   6.746  13.170  0.1185  0.2234  0.1629
 6445W        W19859   5.941   8.605  12.917  0.2418 -0.0707 -0.2060
 6446W        W19860   1.214  10.207   3.516  0.2871 -0.0995 -0.1398
 6447W        W19861   6.520  12.962   1.664  0.0238 -0.1871  0.4109
 6448W        W19862   3.819  13.192   0.029  0.1747  0.0235  0.1500
 6449W        W19863   0.584   8.697   1.956 -0.1223  0.1936 -0.2936
 6450W        W19864  13.698   7.642  10.970 -0.0545 -0.1789  0.0074
 6451W        W19865  17.047   2.964  11.132  0.1359  0.1516 -0.0484
 6452W        W19866   6.639  13.253   3.313 -0.0644 -0.0662 -0.1324
 6453W        W19867  11.916  15.573  11.735  0.1383 -0.2343  0.1259
 6454W        W19868   8.929   5.724   3.305 -0.2678 -0.3009 -0.1946
 6455W        W19869  10.740   1.347   3.792 -0.0504 -0.0994 -0.1150
 6456W        W19870  11.878  12.493  13.009  0.0649 -0.1235 -0.5565
 6457W        W19871  10.982  10.011  14.400  0.1736  0.0319  0.2209
 6458W        W19872   3.965   6.636   1.816  0.1104 -0.0812  0.6484
 6459W        W19873  11.641   4.935   3.926  0.0279 -0.1363 -0.0521
 6460W        W19874   7.922  10.531   2.225  0.0373 -0.1441 -0.2427
 6461W        W19875  10.089   4.145  11.617 -0.0554  0.1466 -0.1972
 6462W        W19876  15.708  15.010   3.606 -0.0596 -0.1504  0.1342
 6463W        W19877   1.167   7.102  13.297  0.1072  0.1426  0.1407
 6464W        W19878   4.647  12.239  15.491 -0.2229  0.1732  0.1018
 6465W        W19879   4.540   6.237   0.771  0.1917 -0.0972  0.1052
 6466W        W19880  14.622  10.320   1.627  0.2953  0.0827 -0.2454
 6467W        W19881   7.433   2.295   2.880 -0.2162  0.1392  0.3082
 6468W        W19882   0.641   8.584   2.828  0.2231 -0.0196  0.0273
 6469W        W19883  13.755  15.998  14.515 -0.1126 -0.0698 -0.1558
 6470W        W19884  16.048  11.569   2.326 -0.2260 -0.1076  0.1767
 6471W        W19885   4.586   1.814  12.590 -0.1742 -0.1587  0.1412
 6472W        W19886  11.519  10.313   5.065  0.0257 -0.4108  0.1864
 6473W        W19887   3.337  17.932   5.077  0.0830 -0.1579  0.0794
 6474W        W19888  14.740   3.192   2.403  0.0169  0.1407 -0.0221
 6475W        W19889   1.844  11.270   3.487 -0.1528 -0.0720  0.1464
 6476W        W19890  17.500   2.421   0.326 -0.2363  0.0543  0.0654
 6477W        W19891   7.074   8.568   0.586  0.2127  0.0705  0.1914
 6478W        W19892   8.705   0.783   0.992  0.3094  0.0716 -0.2092
 6479W        W19893  11.264  11.387  14.630 -0.2415 -0.2548  0.1397
 6480W        W19894  11.045   5.439  13.648  0.1914  0.0421  0.1493
 6481W        W19895  15.429   0.960   1.020 -0.0338 -0.4909 -0.0383
 6482W        W19896   3.773   2.337  13.588  0.0449 -0.3298 -0.0042
 6483W        W19897   4.376   4.086  13.353  0.1093 -0.2659 -0.1808
 6484W        W19898  12.550   6.047  12.848  0.2693 -0.0492  0.3028
 6485W        W19899   6.519  15.108   2.284  0.2311  0.0002 -0.0571
 6486W        W19900   5.892   4.725   5.482  0.2234  0.1400  0.2510
 6487W        W19901  12.667  11.860  11.412  0.1085 -0.4544  0.0775
 6488W        W19902  10.887  13.024  14.251 -0.0164  0.0789  0.2840
 6489W        W19903  15.350  16.376  11.586  0.1331 -0.0706 -0.0076
 6490W        W19904   1.102   6.966   2.710  0.2200 -0.0820  0.0182
 6491W        W19905   1.666   6.180  12.204 -0.0626  0.0232  0.2086
 6492W        W19906   6.588  15.169  11.289 -0.0286  0.2268 -0.2247
 6493W        W19907  15.384   0.420  11.865  0.1127 -0.2318  0.0585
 6494W        W19908   0.043  15.368   6.004  0.0396  0.0171  0.1541
 6495W        W19909   1.946  17.546   4.576  0.2064 -0.0756 -0.0617
 6496W        W19910   5.792   4.310  16.415  0.1974 -0.2760  0.1335
 6497W        W19911   1.555   0.606   2.394  0.1558 -0.0677  0.0534
 6498W        W19912  15.145   5.557  15.296  0.3200 -0.0699  0.0402
 6499W        W19913  11.764   2.598  11.968  0.2179 -0.1457  0.4219
 6500W        W19914   7.733   6.862  15.257 -0.1279  0.0383  0.0829
 6501W        W19915  17.382  15.606   6.331  0.0519 -0.0754 -0.1147
 6502W        W19916  15.532  13.652  11.882  0.1631 -0.0208 -0.4001
 6503W        W19917   6.001  10.295  13.640  0.1320  0.2093 -0.0136
 6504W        W19918   3.070   9.381   5.918  0.0300  0.2485  0.1198
 6505W        W19919   0.941  10.477   2.527 -0.1729  0.5078  0.0325
 6506W        W19920   3.527   6.332  15.720 -0.1794  0.1860  0.0277
 6507W        W19921  16.900  12.637  12.063 -0.2747 -0.0248  0.1739
 6508W        W19922   3.587  11.438   2.016 -0.4629 -0.2475  0.0996
 6509W        W19923  10.726  11.959  12.239  0.1548 -0.1259 -0.1131
 6510W        W19924   5.733   9.334  16.099 -0.1549 -0.0127 -0.1294
 6511W        W19925   8.572  13.356   0.776 -0.1725  0.0758  0.0250
 6512W        W19926   1.475   1.387   6.495 -0.0780  0.1016 -0.0289
 6513W        W19927   4.297  15.166   4.711 -0.0997  0.0708  0.1692
 6514W        W19928  11.953   8.191  13.762 -0.0896 -0.0120  0.1398
 6515W        W19929  15.915   6.980  13.357  0.3416  0.3106 -0.0053
 6516W        W19930   4.882   4.497  14.713 -0.4444  0.0233 -0.1640
 6517W        W19931  15.142  16.340  14.430  0.4374 -0.0802  0.1808
 6518W        W19932  15.409  11.308   3.820  0.0392 -0.0388 -0.0491
 6519W        W19933   5.056  13.691   3.741  0.1351 -0.1444  0.1328
 6520W        W19934  14.014   4.089  10.600  0.0374  0.2596  0.4593
 6521W        W19935   2.663  13.194  16.384  0.1299 -0.1378 -0.3339
 6522W        W19936  13.292   2.013  13.084  0.1161 -0.0827 -0.2360
 6523W        W19937  17.025   9.111   4.002 -0.0667  0.0885 -0.1455
 6524W        W19938  10.633  11.363   0.494 -0.0878  0.3883 -0.3727
 6525W        W19939  12.128   5.181   5.648  0.0891  0.2211  0.0399
 6526W        W19940   9.197  11.555  12.831  0.2009 -0.1681  0.4286
 6527W        W19941   8.703   7.873  11.916  0.0027  0.0567 -0.1247
 6528W        W19942   6.970   2.522   2.803  0.1147 -0.0824 -0.2575
 6529W        W19943   3.353  14.669   2.938 -0.4012  0.0167 -0.2335
 6530W        W19944  14.626   4.597   3.664 -0.0816 -0.1626 -0.1988
 6531W        W19945   0.100   3.699  16.423 -0.1707  0.1753  0.1679
 6532W        W19946   1.974  17.213  11.462 -0.0301  0.3168  0.0300
 6533W        W19947   2.397   6.151   2.217 -0.0556 -0.0574 -0.1981
 6534W        W19948  15.657   1.106   6.315  0.2519 -0.1457  0.1488
 6535W        W19949  17.094   4.558  16.464 -0.0579 -0.0738  0.3701
 6536W        W19950  11.211   9.493   5.845 -0.4031 -0.0629  0.2007
 6537W        W19951  10.969  15.142  12.872  0.1710  0.0904  0.2691
 6538W        W19952   4.584   1.990   6.593  0.0279 -0.1777 -0.0086
 6539W        W19953  11.877  11.633   2.714  0.1723 -0.0043 -0.1244
 6540W        W19954  14.422  12.812  13.498  0.0911 -0.0680 -0.0933
 6541W        W19955  16.481   3.135   3.625  0.0060  0.1461 -0.1142
 6542W        W19956  16.606   7.994  15.808 -0.1325  0.0040  0.0096
 6543W        W19957   5.017  11.497   4.072  0.0210  0.1551 -0.1121
 6544W        W19958   9.456   4.164   1.083 -0.1562 -0.0922 -0.2706
 6545W        W19959  12.230   4.235   3.949 -0.0035 -0.0499  0.0235
 6546W        W19960   7.404   4.670  13.854  0.0282  0.1346  0.0681
 6547W        W19961   1.046  13.241  10.460  0.0788 -0.1166 -0.0913
 6548W        W19962   6.521  10.414   3.416 -0.0647 -0.1780  0.1394
 6549W        W19963  10.677   9.901   4.946 -0.0775 -0.0037 -0.3259
 6550W        W19964  17.293  14.349  15.930  0.3185 -0.0550 -0.2864
 6551W        W19965   7.540   7.515  13.406 -0.1682 -0.0874 -0.0896
 6552W        W19966   1.500  14.227  12.748 -0.1593  0.0612  0.1138
 6553W        W19967   3.292   6.735   2.319  0.1330  0.2715 -0.1296
 6554W        W19968  10.467  13.552  12.479 -0.2224  0.0946  0.2079
 6555W        W19969   3.287  11.167   3.385  0.2530 -0.2598 -0.0101
 6556W        W19970   4.331   6.054   3.957  0.0650 -0.2555  0.1306
 6557W        W19971   8.641  13.054  15.783  0.3548  0.2598  0.1727
 6558W        W19972  10.504   2.373   4.412  0.0557 -0.2913 -0.0254
 6559W        W19973  15.730  10.551  16.443 -0.2005  0.0517 -0.2693
 6560W        W19974   0.823   9.637  10.959 -0.0546 -0.2048 -0.1159
 6561W        W19975  13.032   4.077  12.827  0.0015 -0.1641  0.2804
 6562W        W19976   8.269   9.552   0.828 -0.2391 -0.0066 -0.2097
 6563W        W19977  12.644  16.534   3.544 -0.0564  0.1860  0.0080
 6564W        W19978  13.598   7.001   4.107  0.0814  0.1229 -0.1211
 6565W        W19979   8.928  13.391   4.332 -0.1586 -0.0119  0.2115
 6566W        W19980   7.381   3.755   5.339  0.0151  0.2471  0.1031
 6567W        W19981  13.206  17.134   1.835 -0.0085  0.0156 -0.1212
 6568W        W19982  12.849  12.093  10.453  0.1289 -0.1578  0.3823
 6569W        W19983   8.748   1.058  16.640  0.1520 -0.2103 -0.0297
 6570W        W19984  17.212   8.235   1.979 -0.2717  0.1245  0.1947
 6571W        W19985  11.210  11.049  12.238 -0.1796 -0.2728  0.0975
 6572W        W19986   5.060   1.201   2.376  0.0539 -0.1607  0.0445
 6573W        W19987   5.412  10.227  13.149  0.1299  0.1245  0.1618
 6574W        W19988   8.799  16.577   2.961 -0.0538 -0.1263  0.2279
 6575W        W19989  15.607  11.092  11.111  0.2164  0.1365 -0.0079
 6576W        W19990   5.678   0.945   0.720 -0.0673 -0.3565  0.0169
 6577W        W19991   8.024   8.516  10.833  0.0522  0.4194  0.0194
 6578W        W19992   2.209  12.272  12.509 -0.1166 -0.2222  0.0694
 6579W        W19993   4.992   1.277   0.013  0.2959  0.2201 -0.1398
 6580W        W19994   9.433  15.738  13.742  0.0353  0.1742  0.0420
 6581W        W19995   2.435  13.310  11.260 -0.0482  0.2424  0.2906
 6582W        W19996  17.125   8.011  12.810  0.1120 -0.0465 -0.0054
 6583W        W19997  15.704   3.287   5.024  0.0999  0.0182  0.1785
 6584W        W19998  13.373  10.293  11.365 -0.2687 -0.0980 -0.2377
 6585W        W19999   3.721   7.464   0.243  0.0939  0.0128 -0.3859
 6586W        W20000   4.749   8.155   0.562 -0.0003  0.0087 -0.1037
 6587W        W20001  10.853   0.812  14.965  0.0226  0.1932  0.1831
 6588W        W20002   7.310   2.074   5.140 -0.0927  0.1275 -0.3434
 6589W        W20003   7.726   8.912   6.006 -0.1748  0.2490  0.2669
 6590W        W20004   1.021   6.333   2.376 -0.0811  0.0993  0.1311
 6591W        W20005  14.140  14.644   2.357  0.1319 -0.0290  0.1272
 6592W        W20006   5.673   4.787   6.044 -0.4136  0.2414  0.2368
 6593W        W20007  11.704   7.481   4.434 -0.0916  0.3035  0.3741
 6594W        W20008  16.188   5.955   0.420  0.2492  0.1663 -0.0529
 6595W        W20009   8.084   1.390  13.756  0.3899  0.1358  0.2141
 6596W        W20010   6.986  11.666  16.165 -0.0078  0.5185  0.2780
 6597W        W20011   5.074  14.744   0.892  0.0782  0.0401 -0.1750
 6598W        W20012  14.168   5.128   1.847  0.0468  0.2593  0.0266
 6599W        W20013   9.290   8.694   1.295 -0.0992  0.1044 -0.2130
 6600W        W20014   5.456   6.449  11.691  0.0738 -0.1128 -0.0335
 6601W        W20015  12.543  11.891   0.016 -0.1706 -0.2742 -0.5342
 6602W        W20016   9.634   4.794   0.062 -0.2233 -0.0175  0.0473
 6603W        W20017   3.186  16.505   0.493  0.1236 -0.2018 -0.0490
 6604W        W20018  12.527   5.556  12.699  0.1555  0.0034  0.1528
 6605W        W20019  11.423   2.142  14.428  0.0187  0.1067  0.0427
 6606W        W20020   2.742  16.222   1.382 -0.0365 -0.2908  0.1827
 6607W        W20021   9.538  16.785   3.874 -0.0952  0.1726 -0.0384
 6608W        W20022   5.722  11.049  11.369 -0.0645 -0.2038  0.1833
 6609W        W20023   0.875   7.595  15.553  0.0109  0.1592 -0.4428
 6610W        W20024   9.219   9.888   3.629 -0.3051 -0.1295  0.0220
 6611W        W20025   1.706   4.239   2.040 -0.3262 -0.1018 -0.0709
 6612W        W20026   2.842  17.343  14.081 -0.0415  0.1324  0.1695
 6613W        W20027   7.184  15.090   4.514  0.0866  0.0045  0.1999
 6614W        W20028   6.663   4.721  16.121  0.1962 -0.6894  0.1044
 6615W        W20029  13.730   7.319   5.561  0.4455 -0.2313  0.1386
 6616W        W20030   8.874   7.355   4.046 -0.1769 -0.0393  0.0466
 6617W        W20031  17.842  14.246   2.554  0.1284  0.0805 -0.1027
 6618W        W20032   7.795   8.011   1.032  0.2883 -0.0353 -0.1939
 6619W        W20033   5.854  18.017  12.181  0.2248 -0.1212  0.1839
 6620W        W20034  15.612   8.392   4.607 -0.1300 -0.0702 -0.0613
 6621W        W20035   3.340   2.118   3.798  0.0271  0.0351  0.0767
 6622W        W20036  15.772   3.529   2.780 -0.0200  0.3417  0.0749
 6623W        W20037  16.917  13.743  12.124  0.1240  0.0351 -0.0861
 6624W        W20038  12.821   4.796   4.545 -0.0630  0.1483  0.0576
 6625W        W20039   2.134   2.183   2.810  0.4924  0.0325  0.2253
 6626W        W20040  16.077  12.500  11.207 -0.2591 -0.2363  0.4784
 6627W        W20041   4.406  15.283  11.992  0.3562  0.0887  0.1474
 6628W        W20042  10.689  14.047   3.325  0.0750  0.0991 -0.0383
 6629W        W20043   3.230  15.302  15.588 -0.0160 -0.2063  0.1384
 6630W        W20044   3.627  16.153   6.002 -0.2299 -0.1698  0.0591
 6631W        W20045  15.595   9.967   1.701  0.0555 -0.0079  0.0266
 6632W        W20046   1.602  14.003  16.085 -0.2175  0.0772 -0.1608
 6633W        W20047   2.641  12.407  16.483 -0.0820  0.1644  0.1220
 6634W        W20048   4.777   4.698  12.609 -0.1029 -0.5054 -0.1977
 6635W        W20049   7.084   5.764   1.609 -0.0188  0.0301 -0.1462
 6636W        W20050  15.314  15.478  14.056  0.0399 -0.0487 -0.0861
 6637W        W20051   3.391   7.080   5.410 -0.1751 -0.3296  0.0203
 6638W        W20052  12.198   7.609   3.630  0.2693 -0.4909  0.0313
 6639W        W20053  10.697  11.844   2.589  0.0418 -0.0616 -0.1960
 6640W        W20054  15.580  16.563  16.461 -0.2545 -0.2838  0.3021
 6641W        W20055   1.378   1.597   5.571 -0.2304  0.0453  0.0247
 6642W        W20056  11.222  12.708  12.404 -0.1682  0.0251  0.1018
 6643W        W20057  11.839  12.878  15.306  0.1649  0.2545 -0.0771
 6644W        W20058  14.483   2.051  11.438  0.2350 -0.1616 -0.2007
 6645W        W20059  17.728   6.483   3.688 -0.1168  0.0363 -0.0579
 6646W        W20060   7.014   8.730   4.171 -0.0367 -0.2726 -0.3053
 6647W        W20061   7.797   0.800   0.345 -0.2143 -0.1531  0.0295
 6648W        W20062   1.359   9.723   2.503  0.2851  0.0451  0.1957
 6649W        W20063  11.987  12.125   3.238  0.0895 -0.2894  0.0512
 6650W        W20064   0.551   9.251   5.083  0.0979  0.0275 -0.0925
 6651W        W20065   1.975   2.982   3.817  0.0352 -0.2278  0.0990
 6652W        W20066  16.558  16.981  12.297  0.3150  0.2217  0.2938
 6653W        W20067  12.823   4.339  15.963 -0.0604 -0.1838 -0.2056
 6654W        W20068   3.650  11.275  10.258 -0.0546  0.1564 -0.2408
 6655W        W20069   1.441  12.304   1.850 -0.0820  0.0168 -0.0357
 6656W        W20070   5.186   3.100  12.287  0.0140  0.0160 -0.0365
 6657W        W20071  12.949  16.187   0.091 -0.0550 -0.0064 -0.1061
 6658W        W20072  15.442  16.007  14.591 -0.1035  0.1048  0.1817
 6659W        W20073  15.416   9.496   1.571  0.1570 -0.0250 -0.0889
 6660W        W20074   3.596   5.032   1.183 -0.1705  0.0764 -0.1805
 6661W        W20075  16.907  17.572   5.713  0.1310  0.0855 -0.1022
 6662W        W20076   2.682  14.376  12.869 -0.2227 -0.0690  0.0458
 6663W        W20077  17.408  10.269  13.099 -0.2874 -0.3005 -0.3591
 6664W        W20078   3.767   8.890  16.034 -0.0695  0.0669 -0.0587
 6665W        W20079   2.773  16.736   6.092  0.0600 -0.3534 -0.0490
 6666W        W20080   5.379   9.344   3.061 -0.0562 -0.0530  0.1134
 6667W        W20081  14.517   1.511  13.278  0.3109 -0.0229  0.0187
 6668W        W20082   7.008  13.890   1.335 -0.2102 -0.1254  0.0338
 6669W        W20083   1.246   5.386   3.951  0.0959 -0.0727  0.2208
 6670W        W20084  17.949  17.211  15.134  0.3430  0.2747 -0.0772
 6671W        W20085   9.457  12.091  10.595  0.0742  0.0714  0.1142
 6672W        W20086   3.975  10.540  16.544 -0.2004 -0.2660  0.2184
 6673W        W20087   9.735   2.851   4.695 -0.2816 -0.0005 -0.0502
 6674W        W20088   0.166  12.346   0.694  0.2402 -0.0096  0.0074
 6675W        W20089   0.148  13.565   1.854  0.0630  0.2312 -0.1750
 6676W        W20090   1.465  12.617  16.470 -0.0095  0.0387  0.2156
 6677W        W20091   4.941   4.139  15.734  0.0408 -0.0300 -0.0424
 6678W        W20092   0.781  14.134   4.974 -0.1352  0.1889  0.1084
 6679W        W20093   8.325   5.667  15.228  0.2316  0.0606 -0.0326
 6680W        W20094   4.151   0.359   4.633 -0.0668 -0.0149  0.2306
 6681W        W20095  17.344   7.467  11.100 -0.1424  0.1484  0.3692
 6682W        W20096  12.373   4.376  11.253 -0.1346  0.1477 -0.1220
 6683W        W20097   5.701  12.944   1.965 -0.3201  0.2675 -0.0130
 6684W        W20098   0.255   1.111  13.986  0.3526 -0.1095  0.1762
 6685W        W20099   0.203   6.041  14.345 -0.3525  0.0645  0.0242
 6686W        W20100  17.330   6.012   2.449  0.0518 -0.2395 -0.0493
 6687W        W20101  12.039  13.292   4.797  0.1269 -0.2703 -0.1985
 6688W        W20102  14.615   7.570  10.922  0.2716 -0.1501 -0.2558
 6689W        W20103   3.438   5.775   2.602 -0.0683  0.0535 -0.1023
 6690W        W20104   6.893  10.261  16.100 -0.0468 -0.0638  0.2551
 6691W        W20105  10.026   3.577   3.947  0.1706 -0.0780  0.2250
 6692W        W20106   0.007   9.883   0.722 -0.1796 -0.3654 -0.3329
 6693W        W20107   2.156  12.937   1.489 -0.0682 -0.0781 -0.1251
 6694W        W20108   3.383   8.869  13.994  0.0529 -0.1001 -0.3731
 6695W        W20109   6.635  16.167   3.162  0.2172  0.1284 -0.0546
 6696W        W20110   4.526  13.414  12.109 -0.0611 -0.0450  0.1912
 6697W        W20111  17.924  13.035   4.480  0.0897 -0.0876  0.0187
 6698W        W20112  16.732   9.095   0.991 -0.2310 -0.0626 -0.1519
 6699W        W20113  17.919  12.732   0.486  0.1457  0.1178  0.0896
 6700W        W20114  17.894   9.674  16.247  0.4821 -0.0019 -0.0036
 6701W        W20115   0.599  15.892  16.428  0.1564  0.1132 -0.1457
 6702W        W20116   2.761  14.979   4.927  0.0854  0.1582  0.1739
 6703W        W20117   5.553  10.842   5.746 -0.0248  0.0375  0.0036
 6704W        W20118   6.633  13.620   4.730  0.0756 -0.0823 -0.1225
 6705W        W20119  10.896  16.287  12.164 -0.0766  0.0813 -0.0149
 6706W        W20120  10.219   8.873  14.365  0.1586 -0.1737 -0.0800
 6707W        W20121  10.652   7.121  11.569 -0.0539  0.1263 -0.0445
 6708W        W20122   4.818   8.467  13.602 -0.0746  0.0647 -0.2342
 6709W        W20123  14.749  13.817  12.373 -0.1284  0.0226  0.1782
 6710W        W20124   6.363  11.024   3.194 -0.0870  0.3881  0.1740
 6711W        W20125   6.243  12.791   4.435 -0.2439 -0.0507  0.0510
 6712W        W20126  12.154   6.742   5.719 -0.0443  0.0699  0.0296
 6713W        W20127  15.304   6.832   1.598  0.1426  0.0522  0.1829
 6714W        W20128  14.079  13.085  12.602  0.0621 -0.1999 -0.1017
 6715W        W20129   3.215  16.273   4.799  0.1084 -0.0973  0.2003
 6716W        W20130  13.413  11.578  11.135  0.0943 -0.1438  0.0524
 6717W        W20131   1.778   1.943  14.005 -0.3108  0.0012 -0.1046
 6718W        W20132   5.171  12.712  13.243  0.3066 -0.1526  0.2672
 6719W        W20133  12.984  13.713  13.346 -0.0032 -0.0027 -0.2996
 6720W        W20134   3.718  12.634   0.700  0.1067 -0.0593  0.2064
 6721W        W20135   2.485   8.017  12.778 -0.0147  0.0634  0.0237
 6722W        W20136  14.895  14.062   0.361  0.0344  0.0147  0.1408
 6723W        W20137   7.728   9.803  15.913  0.0331  0.2941 -0.4218
 6724W        W20138   3.923   8.517   6.655 -0.0399 -0.1087 -0.1347
 6725W        W20139   0.931   6.460  11.445  0.0821 -0.0749  0.0322
 6726W        W20140  13.897  12.477  15.726  0.0145 -0.1418 -0.0110
 6727W        W20141  11.986  11.814  14.665  0.2168 -0.4293 -0.0580
 6728W        W20142   5.504   9.868   4.387 -0.1277  0.0997  0.0456
 6729W        W20143   2.360   7.866   0.063  0.1015  0.0293 -0.0580
 6730W        W20144  10.999   5.345   6.547 -0.2520 -0.0965  0.0697
 6731W        W20145  13.785   8.032  15.355  0.1826  0.0490 -0.1505
 6732W        W20146   5.646   9.354   3.549 -0.1102  0.2786 -0.1673
 6733W        W20147  11.494   2.512  10.946  0.1193  0.1057 -0.1188
 6734W        W20148  14.839  13.648   0.020 -0.1634  0.1436 -0.1445
 6735W        W20149   8.332   7.805  14.617  0.0505 -0.4466 -0.2084
 6736W        W20150   9.603   3.066  13.291 -0.0923 -0.2569  0.1507
 6737W        W20151   5.773   0.918  14.685 -0.0240  0.1725 -0.3205
 6738W        W20152   7.350   4.911   0.270 -0.2475 -0.0711  0.0892
 6739W        W20153   2.635   2.145  14.265  0.0468  0.1653 -0.1343
 6740W        W20154  16.261   2.700   3.536 -0.2550 -0.0522  0.1748
 6741W        W20155   6.087   7.325  11.371 -0.2853  0.1446  0.1359
 6742W        W20156   5.593  16.522   2.369 -0.2320  0.1462  0.0638
 6743W        W20157   8.951   7.175  13.039 -0.0008 -0.1285 -0.1134
 6744W        W20158  10.122  11.274   6.571  0.0862  0.1224 -0.0881
 6745W        W20159  14.610  11.607  11.154  0.0095 -0.3958 -0.0725
 6746W        W20160   0.896   9.588   5.774  0.1582  0.0159  0.3014
 6747W        W20161  12.849  14.109  15.669  0.1565 -0.2550  0.1054
 6748W        W20162  13.158  16.483   3.622  0.1579 -0.1070 -0.1221
 6749W        W20163  18.026   2.621  10.725 -0.5656 -0.1829  0.1200
 6750W        W20164   7.234   3.729   0.518 -0.0565  0.1915 -0.1604
 6751W        W20165  12.037  10.670   3.894  0.1594 -0.2669  0.2400
 6752W        W20166   1.522  17.712   6.043 -0.0403  0.1004 -0.2089
 6753W        W20167  17.600   1.151  14.563 -0.0777 -0.2101 -0.0189
 6754W        W20168  10.942   5.215   4.371 -0.0875 -0.0403  0.2731
 6755W        W20169   6.713  14.115   3.878  0.2228  0.0520 -0.0760
 6756W        W20170   0.531  17.587   3.619 -0.3491  0.0183 -0.1588
 6757W        W20171   2.632   0.059  16.508  0.0697  0.0526  0.1886
 6758W        W20172   2.734   2.216  11.954  0.2295 -0.0851  0.0130
 6759W        W20173  14.387   8.895  13.667 -0.0341 -0.0466  0.0255
 6760W        W20174   9.698   3.663  12.770  0.0371  0.1698 -0.0420
 6761W        W20175   6.581   6.493  11.127 -0.0880 -0.0436  0.0124
 6762W        W20176   2.150   3.819  12.840  0.0601 -0.0246 -0.2409
 6763W        W20177  10.716  11.259  11.635  0.0438  0.0727 -0.1836
 6764W        W20178  12.305   7.134   1.362 -0.3201 -0.1792 -0.2354
 6765W        W20179  11.369   8.062   3.739  0.0858 -0.1767 -0.0006
 6766W        W20180  12.606   9.156  12.326  0.0756 -0.0421 -0.2432
 6767W        W20181   3.573  10.000   1.023 -0.1819 -0.0412 -0.1536
 6768W        W20182   4.993  11.995  15.271 -0.0308 -0.3373 -0.0922
 6769W        W20183  11.724  17.006   4.468 -0.2041 -0.3254  0.0841
 6770W        W20184   6.031   0.938   1.039  0.1768 -0.1835 -0.3866
 6771W        W20185   3.759   0.612   0.707 -0.1458  0.2239  0.1867
 6772W        W20186   7.705  12.704  12.595  0.2042 -0.2978 -0.1467
 6773W        W20187   9.977   7.029   1.583 -0.0349 -0.2444  0.0365
 6774W        W20188  16.661   1.639  13.395  0.3293  0.1841  0.1141
 6775W        W20189   2.542  12.102  11.566 -0.3489  0.0948  0.1484
 6776W        W20190   6.807   4.874   2.182  0.0214  0.2927  0.0459
 6777W        W20191  15.324   7.012   5.842  0.2220 -0.2107 -0.2260
 6778W        W20192  14.334  10.498  14.914 -0.2148  0.0125  0.1404
 6779W        W20193   4.681   3.765  10.715  0.0433 -0.0436  0.1170
 6780W        W20194  17.110   9.150  10.804 -0.1189  0.1946 -0.0295
 6781W        W20195   4.561   3.469   0.177  0.1029 -0.0849  0.1424
 6782W        W20196   6.631   8.765   4.522 -0.1959 -0.0264  0.2266
 6783W        W20197  10.946   7.665   2.119  0.0772 -0.3140 -0.0680
 6784W        W20198   4.105   5.027  13.435  0.0208  0.0300 -0.2098
 6785W        W20199   4.917  11.446  14.452 -0.1756  0.2306  0.1795
 6786W        W20200  13.445  17.891   4.246  0.1933  0.1270 -0.0725
 6787W        W20201  14.469  16.567  10.820  0.0436  0.2173  0.1643
 6788W        W20202   2.522  13.304   0.448 -0.0945 -0.1509 -0.1117
 6789W        W20203   4.007  17.175   3.622  0.0428  0.0855  0.1921
 6790W        W20204  13.710   1.880  14.447  0.0336  0.1369  0.2073
 6791W        W20205  17.890   8.897  15.818 -0.0353  0.0853  0.0639
 6792W        W20206  11.584   6.483   1.795  0.0032 -0.1776 -0.0168
 6793W        W20207  14.208   0.381  15.470 -0.1153  0.0144  0.0587
 6794W        W20208   8.046   8.999  13.553 -0.0412  0.1918  0.0816
 6795W        W20209   0.315   4.276  15.523  0.0307 -0.2543 -0.0339
 6796W        W20210   6.364  10.261  11.778  0.1240 -0.0649  0.0819
 6797W        W20211  10.402  12.201   5.290 -0.4754 -0.1892 -0.0747
 6798W        W20212   4.216  16.552   4.786  0.2035  0.1093 -0.4060
 6799W        W20213  11.700   1.249  10.987 -0.0291  0.1007 -0.0236
 6800W        W20214   8.907   8.281  14.388  0.0072 -0.0020 -0.4184
 6801W        W20215  13.578   0.879  15.057 -0.0818  0.0578 -0.0279
 6802W        W20216  17.847   3.976   4.673 -0.0090 -0.0478  0.3009
 6803W        W20217   3.065   4.757   4.425  0.3753 -0.3630 -0.1059
 6804W        W20218  15.712   2.051   1.124  0.2481  0.0440  0.6499
 6805W        W20219   0.165  10.198  14.083 -0.0346 -0.0653 -0.1345
 6806W        W20220   6.867   5.841   2.595  0.2331  0.1456 -0.1278
 6807W        W20221  14.209   0.015   3.577  0.1086  0.0615 -0.3012
 6808W        W20222  12.510   0.920  15.031 -0.1296 -0.0324 -0.2061
 6809W        W20223  17.913   0.778  12.780 -0.0830  0.0992 -0.0080
 6810W        W20224   0.204  17.599   3.215 -0.3502  0.2446 -0.2094
 6811W        W20225  13.583  13.132  13.524 -0.2011 -0.1727  0.1838
 6812W        W20226  13.110   4.228  10.682 -0.0706 -0.0239  0.0069
 6813W        W20227   6.059   0.111  11.615  0.0233  0.1677  0.2297
 6814W        W20228  14.663   4.188   2.972  0.0428  0.1507  0.1056
 6815W        W20229   5.987  11.888   1.012 -0.0048 -0.0255 -0.1176
 6816W        W20230  10.811  13.798  13.862  0.2840 -0.1262 -0.0791
 6817W        W20231  17.652   2.221   1.828  0.3670  0.0093  0.0056
 6818W        W20232  17.258   9.480   4.241 -0.0401 -0.2503 -0.0966
 6819W        W20233   0.121   2.042   2.039  0.0401 -0.3248 -0.2995
 6820W        W20234  16.966   7.760   4.529 -0.2780  0.1127  0.0843
 6821W        W20235   5.370   6.772  12.132  0.0389  0.2524 -0.1823
 6822W        W20236   7.772   7.921   4.788 -0.1251 -0.2522 -0.2045
 6823W        W20237  11.581   8.260   0.767 -0.1674 -0.2329  0.0019
 6824W        W20238   7.775  17.240   1.681 -0.1312 -0.0967  0.2096
 6825W        W20239  13.320   4.936  16.610  0.1141 -0.2011  0.2723
 6826W        W20240   6.947   0.521  11.201 -0.2275  0.2182 -0.1329
 6827W        W20241  16.743   2.038   3.064 -0.0351 -0.2475 -0.0168
 6828W        W20242   2.817  11.030   3.165  0.0504 -0.1846  0.0634
 6829W        W20243   9.870  12.890  14.189  0.0722  0.1618 -0.2731
 6830W        W20244  13.261  10.828  16.588  0.0030 -0.0083  0.0981
 6831W        W20245  14.501   6.961   3.481 -0.4611 -0.2060  0.0706
 6832W        W20246   3.779   4.932  14.428 -0.2850  0.0141 -0.0936
 6833W        W20247  17.558  10.993  15.747 -0.0684 -0.0353 -0.2752
 6834W        W20248   6.978  16.853  12.383  0.3008 -0.0739  0.3663
 6835W        W20249  15.003   9.228   0.503  0.0300  0.3219 -0.0967
 6836W        W20250  13.210   4.984  15.592  0.0474 -0.0603 -0.1081
 6837W        W20251   7.852   0.948  11.349  0.1377 -0.0063  0.0680
 6838W        W20252   4.614   6.677  14.392 -0.4064 -0.1626 -0.0000
 6839W        W20253   0.210   3.463   2.311 -0.1973 -0.0097  0.0789
 6840W        W20254   3.729   7.147   0.679  0.1291 -0.1209  0.0398
 6841W        W20255  16.353  15.630  11.369 -0.3796  0.0094 -0.0008
 6842W        W20256  16.644   7.720  12.927  0.0441  0.2108 -0.1281
 6843W        W20257  17.446  14.679  13.186 -0.2497  0.1129  0.1892
 6844W        W20258  10.725   7.696  15.745  0.0579  0.1626 -0.3790
 6845W        W20259   4.293   9.020  14.823 -0.0071  0.0355  0.2180
 6846W        W20260   4.616   6.015   4.829 -0.0252 -0.1991  0.3152
 6847W        W20261   6.836  14.583   0.791 -0.1619 -0.2872  0.2020
 6848W        W20262  13.839   4.043   4.613  0.0125  0.0801  0.0160
 6849W        W20263   2.393  12.210  15.243 -0.0260  0.1289  0.0318
 6850W        W20264  16.706   3.035  10.761 -0.0283 -0.1819  0.2533
 6851W        W20265  13.320   3.035   5.517 -0.2584 -0.1740  0.2078
 6852W        W20266   1.063  11.084   0.208 -0.2721  0.2771 -0.1798
 6853W        W20267   8.293  16.201   1.097  0.0129 -0.0030 -0.1424
 6854W        W20268   8.100   1.823   1.192 -0.0007  0.0938 -0.1135
 6855W        W20269   8.285   5.874   2.520 -0.1068  0.0078 -0.1210
 6856W        W20270   5.867  15.507  13.860  0.5223 -0.0541 -0.0313
 6857W        W20271  11.125  17.303  13.773 -0.1402  0.1330  0.0302
 6858W        W20272   3.194   8.163   0.578 -0.1765  0.1181  0.5054
 6859W        W20273   7.504  14.314  11.084  0.2261 -0.1311 -0.1062
 6860W        W20274  16.151   6.276  11.971 -0.1954 -0.1401 -0.3464
 6861W        W20275   1.158  12.735  11.879  0.3086  0.0489  0.1184
 6862W        W20276   0.963   5.200   4.836 -0.0576 -0.0337  0.0604
 6863W        W20277  10.017  15.104   0.696 -0.1768  0.0812  0.1482
 6864W        W20278   0.169   0.024  12.314 -0.4626  0.1481  0.1391
 6865W        W20279   2.521   3.653  16.170 -0.1746 -0.3064 -0.2418
 6866W        W20280   8.868   9.130  14.940  0.2168 -0.2076  0.3758
 6867W        W20281   7.916   5.581   4.518 -0.0357  0.1910  0.2870
 6868W        W20282   1.815   6.789  15.752 -0.1783 -0.0927 -0.0006
 6869W        W20283   3.043  14.899   1.012 -0.0297 -0.0327  0.1205
 6870W        W20284  14.106   4.774  11.268  0.1993  0.0611  0.1143
 6871W        W20285   0.361  16.835   3.884 -0.4110 -0.4097  0.2516
 6872W        W20286  13.429   3.632   1.303  0.0298  0.4540  0.0724
 6873W        W20287   8.358  15.668   3.219  0.0877 -0.2314  0.1141
 6874W        W20288  11.506   0.925   2.625 -0.1989 -0.1902 -0.2682
 6875W        W20289   8.487  10.456   1.141 -0.0846 -0.0113 -0.1602
 6876W        W20290  10.801   3.529   3.923 -0.0556  0.0483  0.0955
 6877W        W20291   8.720  11.309  13.007 -0.2451 -0.2239 -0.0829
 6878W        W20292  14.198  15.292  14.181 -0.0156  0.3453  0.0249
 6879W        W20293  10.923   5.251   0.232  0.3613  0.2081 -0.2781
 6880W        W20294   6.855   4.179   1.398  0.0440 -0.1766 -0.0803
 6881W        W20295  12.575   7.145   3.564 -0.2560 -0.2004 -0.0551
 6882W        W20296   9.894   5.472  11.338  0.1869 -0.4529 -0.0459
 6883W        W20297   4.809   8.686   5.608  0.0316  0.0364  0.0668
 6884W        W20298  13.509   9.590   6.329 -0.1437 -0.1374  0.2948
 6885W        W20299   3.719   1.199   1.460 -0.1718  0.0800  0.0866
 6886W        W20300  15.257   2.862  12.184 -0.0487  0.0633 -0.2474
 6887W        W20301   6.874   6.529   0.646 -0.0998  0.0989 -0.1581
 6888W        W20302  11.547   9.489   1.324 -0.0373 -0.3371 -0.3491
 6889W        W20303  15.405  16.730   5.833 -0.0731  0.1629 -0.0144
 6890W        W20304  14.152   6.977  14.313 -0.0459  0.1414  0.1354
 6891W        W20305   1.311   4.500   5.265  0.0157  0.0298  0.2062
 6892W        W20306  10.351   8.223  10.228  0.1902  0.1014 -0.0591
 6893W        W20307   6.410  15.726   2.993  0.0322  0.2701  0.2106
 6894W        W20308  16.685   5.027   6.607 -0.1209 -0.2634 -0.1594
 6895W        W20309  17.929   9.930   5.921  0.0901  0.2565 -0.3591
 6896W        W20310  11.178   2.476   0.369 -0.1579  0.0349  0.1288
 6897W        W20311  15.676  13.257   2.261 -0.0789 -0.1832 -0.2022
 6898W        W20312  13.446   8.463  16.430 -0.3481 -0.0130 -0.3332
 6899W        W20313   7.858   6.484   4.941  0.1081  0.1449 -0.1697
 6900W        W20314   6.393  17.434  13.646  0.1621  0.0012  0.0998
 6901W        W20315  17.986   0.511   3.245 -0.0379  0.2358  0.2010
 6902W        W20316   7.899  15.394  12.140  0.0586 -0.2836  0.1704
 6903W        W20317   2.833   4.866  14.915 -0.1524  0.0974 -0.0690
 6904W        W20318  11.068   2.273   0.819 -0.2412 -0.2259  0.0895
 6905W        W20319  10.749  17.025  12.884 -0.3161 -0.3187  0.2149
 6906W        W20320  16.158  14.141   2.755  0.0588  0.1018 -0.3128
 6907W        W20321  16.449   5.789  16.694 -0.1095 -0.2142  0.2905
 6908W        W20322  15.362  16.163   0.090 -0.0094  0.0515 -0.0857
 6909W        W20323  11.913   2.511   1.784  0.1146 -0.0165  0.0706
 6910W        W20324  10.532   3.765   4.323  0.0702 -0.2150  0.4042
 6911W        W20325  13.245  10.306   5.881 -0.0299  0.0580  0.1044
 6912W        W20326   4.946   4.735   4.914  0.1856 -0.4308  0.1386
 6913W        W20327   4.401   7.653   2.513  0.0621  0.0344 -0.0327
 6914W        W20328  17.792  13.114  16.175 -0.3115  0.0070 -0.2054
 6915W        W20329   9.727  17.421   1.399 -0.3021  0.2055  0.1708
 6916W        W20330   0.455   4.248   2.250  0.2247 -0.2705 -0.1057
 6917W        W20331   1.915  10.944  12.413 -0.2764 -0.0467  0.1577
 6918W        W20332   0.979   1.631  13.054  0.2633 -0.0901 -0.2280
 6919W        W20333   3.332  13.357   3.503  0.0609 -0.6367 -0.1710
 6920W        W20334  15.921   3.815  11.379 -0.4272 -0.1034 -0.0034
 6921W        W20335   3.507   1.479  13.390 -0.2062 -0.3331  0.0547
 6922W        W20336   8.570   5.171   4.836  0.1049 -0.0277 -0.0438
 6923W        W20337  10.645  17.698  15.349 -0.0223  0.0042  0.2147
 6924W        W20338  15.016   8.415  15.886 -0.1248  0.0049 -0.2725
 6925W        W20339   9.110   8.796  12.832  0.1471  0.1352 -0.1148
 6926W        W20340  15.057   1.218   1.908 -0.0216 -0.0065  0.4130
 6927W        W20341   3.388  13.711   5.363  0.1185 -0.1522 -0.2263
 6928W        W20342   4.240  17.513  15.416  0.2433 -0.0913 -0.1228
 6929W        W20343  17.527  15.740  15.808  0.0177  0.1199 -0.0387
 6930W        W20344   9.649   0.768  14.789  0.0334  0.2856 -0.0622
 6931W        W20345  16.894  10.442  15.120  0.2121  0.1111 -0.0961
 6932W        W20346   7.388  17.990  11.684 -0.1568 -0.3306 -0.1990
 6933W        W20347  12.368   2.690   6.558  0.0739  0.2717 -0.4238
 6934W        W20348  12.337  10.182  10.793  0.3357 -0.0726  0.1263
 6935W        W20349  10.165   2.083  12.442  0.1125 -0.0219 -0.0090
 6936W        W20350   7.291  14.705   1.089 -0.0839 -0.3119 -0.2572
 6937W        W20351   7.864  14.658   0.477  0.1146 -0.0654  0.0826
 6938W        W20352   5.225  10.280   1.584  0.1029 -0.0443 -0.1030
 6939W        W20353   6.127  10.560   3.950 -0.1434  0.0956 -0.0715
 6940W        W20354  13.164  15.424  12.963 -0.2087  0.0574  0.2513
 6941W        W20355   9.038  14.927  14.195 -0.0141 -0.2847  0.2131
 6942W        W20356  14.747  18.047   6.616 -0.3227 -0.0332 -0.0848
 6943W        W20357  11.408   9.303   4.956  0.0190  0.0443  0.3525
 6944W        W20358   8.159  13.428   2.736  0.0317  0.3810 -0.1455
 6945W        W20359  12.016   2.224  15.598 -0.1490 -0.2493 -0.0334
 6946W        W20360   8.441  12.115   2.171  0.1990 -0.2931  0.2052
 6947W        W20361   3.316  15.292  10.021  0.2712 -0.0128 -0.0786
 6948W        W20362   7.081   4.893   2.582  0.1176  0.5583 -0.0266
 6949W        W20363   3.163   0.437   0.915  0.1653 -0.1083 -0.1739
 6950W        W20364  11.698  10.717  12.475 -0.1946 -0.0417 -0.2796
 6951W        W20365  16.727  10.910  12.138  0.1692  0.1098  0.0593
 6952W        W20366  17.815   8.467  10.264  0.0703  0.0732 -0.3835
 6953W        W20367   0.753  11.579   2.069  0.1374 -0.0275 -0.1102
 6954W        W20368   1.200   0.752  10.610 -0.0465 -0.3554 -0.0647
 6955W        W20369   2.731   8.662   2.986  0.0112 -0.0788 -0.0065
 6956W        W20370   1.588   1.037  11.549 -0.1246 -0.0632  0.1366
 6957W        W20371  15.249   3.516  16.443 -0.0898 -0.5570 -0.0940
 6958W        W20372  10.992   4.566  11.904  0.0377  0.0120 -0.0100
 6959W        W20373   0.838  14.027  13.282  0.0856 -0.0006  0.2141
 6960W        W20374  11.153   5.637  12.612  0.0110  0.0475 -0.4318
 6961W        W20375  11.969   4.579   1.468 -0.1229 -0.1106 -0.3344
 6962W        W20376  14.453   2.235   0.365 -0.1578 -0.1106 -0.3847
 6963W        W20377   9.601  17.618  15.867  0.1894  0.0407 -0.1630
 6964W        W20378  10.124   9.021  12.490  0.0777  0.0806  0.0945
 6965W        W20379  14.319   5.085  12.133  0.0457 -0.2068 -0.0358
 6966W        W20380  12.936  17.493   2.184  0.2551 -0.1453 -0.1559
 6967W        W20381  13.969   2.540  11.092 -0.0680 -0.2161 -0.2168
 6968W        W20382  17.648   1.697  11.634  0.0015 -0.0091  0.1054
 6969W        W20383  13.461  16.898   3.815  0.1773  0.0329 -0.3114
 6970W        W20384  16.458  11.755   1.937 -0.0493 -0.0143 -0.0318
 6971W        W20385   2.519   1.834   1.776  0.0291  0.0129 -0.0389
 6972W        W20386   5.621   0.197  13.244 -0.1819  0.2376 -0.0547
 6973W        W20387  13.690   3.567  11.353  0.2166 -0.0015 -0.0946
 6974W        W20388   7.699  17.492  11.731 -0.1026 -0.3061 -0.2352
 6975W        W20389  15.071   8.675  10.786  0.4351  0.1367 -0.0840
 6976W        W20390  14.091  12.880   0.575  0.1189  0.1991 -0.0630
 6977W        W20391   4.277  17.890  11.560  0.1189  0.0994  0.1891
 6978W        W20392   5.805  15.636   2.436  0.0270  0.2268 -0.0954
 6979W        W20393   2.883   6.661  16.174  0.2050  0.0262  0.1463
 6980W        W20394   9.345  13.181   3.783  0.0315  0.0379 -0.1334
 6981W        W20395   6.774   9.018   1.483  0.0790  0.1286 -0.2791
 6982W        W20396  12.750  14.871   3.211 -0.1638 -0.0345  0.1961
 6983W        W20397   8.839   3.319   0.896  0.2288  0.1473 -0.0092
 6984W        W20398  14.666   3.526   3.794  0.0138 -0.0202  0.1214
 6985W        W20399  14.445  12.761   2.225 -0.0289 -0.0007 -0.0540
 6986W        W20400  15.944  10.503   4.289  0.0761  0.1387 -0.1957
 6987W        W20401   9.564   6.276   2.894  0.0934 -0.0347  0.3887
 6988W        W20402   3.350   2.155  15.687  0.0110 -0.0333 -0.0661
 6989W        W20403  17.441  14.279  12.390  0.0566 -0.0341 -0.3285
 6990W        W20404  14.417   2.877   6.362  0.0980  0.0189 -0.1912
 6991W        W20405  17.210  14.742  12.236  0.0285 -0.0063  0.0640
 6992W        W20406  15.358   2.283   4.919 -0.0415  0.3578  0.0028
 6993W        W20407   5.845   6.089   5.254 -0.1476  0.2408  0.1547
 6994W        W20408   2.410   9.607   1.534 -0.0413  0.0150 -0.7329
 6995W        W20409  15.916  17.567   3.528  0.1040 -0.1842  0.1799
 6996W        W20410  10.074  16.606   4.677 -0.1549  0.0501 -0.1350
 6997W        W20411  14.843  15.182  12.000 -0.3948  0.1598  0.1556
 6998W        W20412   4.401  10.500  14.592 -0.0934 -0.1442 -0.1380
 6999W        W20413  16.200   8.959  11.579  0.1592 -0.0688 -0.2903
 7000W        W20414  14.587   4.870  15.644  0.0248  0.2082  0.0274
 7001W        W20415  15.760   4.878  12.878 -0.1627  0.3853  0.0436
 7002W        W20416   0.017   8.973  14.201 -0.1757  0.2153 -0.1373
 7003W        W20417  13.013   1.671  14.553  0.1894 -0.0544  0.1793
 7004W        W20418   6.124   3.329   1.697  0.1013  0.0234  0.4335
 7005W        W20419   1.928  17.621  11.823  0.1088 -0.0539  0.0550
 7006W        W20420   9.733  15.993  14.816  0.2885  0.2239 -0.0578
 7007W        W20421   2.630  15.944  15.868  0.0997  0.0884  0.1400
 7008W        W20422   0.920   0.485   2.011 -0.1335  0.0935  0.1052
 7009W        W20423  16.650  14.089  11.904  0.2104 -0.1633  0.1618
 7010W        W20424  14.547   8.556  14.019 -0.0369  0.0399 -0.2252
 7011W        W20425  14.494  11.493   5.371  0.2522 -0.0505  0.1709
 7012W        W20426   3.438  13.766   1.696  0.0019  0.0006  0.0674
 7013W        W20427   8.598  12.150   5.616  0.0589 -0.1991 -0.3260
 7014W        W20428   5.689  12.148  12.813  0.0773 -0.0762  0.0160
 7015W        W20429  10.538  10.488  13.616 -0.2585  0.1411  0.1386
 7016W        W20430  12.637   0.603   4.119  0.3006  0.2286 -0.1283
 7017W        W20431   0.429  11.286   3.018  0.0995  0.0561 -0.1580
 7018W        W20432  11.223  16.500  16.490 -0.4195  0.0419 -0.1729
 7019W        W20433   7.922   4.582   1.540  0.1481  0.0714 -0.2066
 7020W        W20434  15.181  14.157   4.132 -0.2481  0.2375  0.3709
 7021W        W20435  15.325  17.478  12.095 -0.0284  0.0238 -0.2307
 7022W        W20436   5.383  15.050  14.770 -0.0135  0.0506 -0.0515
 7023W        W20437   7.487   5.701  15.991  0.1342 -0.1380 -0.2957
 7024W        W20438  15.394   1.869  14.717 -0.0424  0.0562  0.1327
 7025W        W20439   3.820   5.475  14.447 -0.2651 -0.0491  0.1387
 7026W        W20440   5.711  13.547   1.642  0.2220  0.0655 -0.0607
 7027W        W20441  12.770   1.330  10.444  0.0742 -0.1308 -0.3179
 7028W        W20442  12.014  13.855  10.631 -0.1077 -0.0933  0.0572
 7029W        W20443   9.761  15.965  14.253  0.0200 -0.0062 -0.1225
 7030W        W20444   6.100  17.543  16.495  0.0288 -0.3575 -0.0594
 7031W        W20445   8.279   8.021   2.026 -0.1233  0.1984 -0.2345
 7032W        W20446  10.273   6.676   2.972 -0.4712  0.1951 -0.1595
 7033W        W20447   5.359  17.663   3.112 -0.2462  0.0039  0.3456
 7034W        W20448   5.422  12.369   4.254  0.0049  0.2178 -0.0893
 7035W        W20449  12.280  15.194   2.289  0.0622  0.0386  0.0128
 7036W        W20450   3.320  12.883   0.993 -0.2530  0.1792  0.2058
 7037W        W20451  14.979  13.192  10.703 -0.2399 -0.1522  0.0564
 7038W        W20452   6.272   4.916  12.049  0.0685 -0.3128  0.0082
 7039W        W20453  12.855  10.980   0.195  0.3124 -0.1018 -0.0654
 7040W        W20454   5.426  12.845   5.072  0.2874  0.0018 -0.1167
 7041W        W20455  17.338   1.460  12.812 -0.0334  0.0625 -0.2679
 7042W        W20456   1.563  18.001   4.453  0.1476  0.2553 -0.0874
 7043W        W20457   8.126   3.225  13.647 -0.0730  0.1186 -0.0414
 7044W        W20458  10.101   8.049  14.955  0.1431 -0.1549  0.0328
 7045W        W20459  16.381  11.940  13.198  0.3375 -0.2475  0.1418
 7046W        W20460   3.768  16.107  14.737 -0.2212  0.0871  0.2068
 7047W        W20461   1.667   5.876   1.809  0.3943  0.0162 -0.1092
 7048W        W20462   9.107   7.893  14.093 -0.1182  0.0481  0.0838
 7049W        W20463   2.817   6.779  13.493  0.1228 -0.2701 -0.1852
 7050W        W20464  17.684   8.174   5.384 -0.3213  0.4305 -0.2019
 7051W        W20465  12.532  14.287   9.774 -0.2515 -0.0009  0.1778
 7052W        W20466  11.094   2.190   5.642  0.3069  0.2052 -0.1962
 7053W        W20467   5.713   3.191  12.279  0.5382 -0.2300 -0.0798
 7054W        W20468  15.241  15.378   5.404  0.1721  0.0598 -0.1396
 7055W        W20469  17.242   1.315  14.898 -0.0032  0.1163  0.0649
 7056W        W20470   9.930   8.004   2.353 -0.0272  0.0254 -0.0202
 7057W        W20471  13.679  13.146   4.630 -0.1436  0.1321 -0.1830
 7058W        W20472  16.089  12.019  11.988  0.2618 -0.2844 -0.0628
 7059W        W20473  17.865   1.628  13.699  0.2290  0.0216 -0.2279
 7060W        W20474  11.468   0.072   5.719  0.0133 -0.2899 -0.0641
 7061W        W20475   7.552  11.203   3.881 -0.2170 -0.3296  0.0699
 7062W        W20476   5.703   8.614  13.775  0.0790 -0.3072  0.2409
 7063W        W20477   3.916  14.688  12.961  0.5853 -0.0769 -0.1142
 7064W        W20478  17.027  17.593   3.057  0.1908 -0.0621 -0.2261
 7065W        W20479  12.158   7.872  16.579 -0.0388  0.1328  0.1860
 7066W        W20480  13.474   8.987  13.383 -0.2035  0.2832  0.3363
 7067W        W20481  15.406   1.582   5.576 -0.0631 -0.1029 -0.2579
 7068W        W20482   0.897   9.595   4.312 -0.0114 -0.0505 -0.0333
 7069W        W20483   6.641  17.515  15.146 -0.0450  0.0069 -0.1595
 7070W        W20484   8.860   5.180  12.320 -0.1435 -0.1743 -0.0682
 7071W        W20485   9.112  14.129   1.099 -0.0361 -0.0543 -0.0797
 7072W        W20486   2.795   8.461  13.121 -0.1997 -0.0676 -0.0127
 7073W        W20487   3.122  12.869   3.679 -0.2038 -0.1192 -0.1187
 7074W        W20488  10.170  15.014   4.394  0.0821 -0.1237  0.1240
 7075W        W20489   9.695   6.935   3.476 -0.2166  0.3163 -0.2353
 7076W        W20490  10.309  14.865  15.867 -0.1787 -0.1446 -0.0421
 7077W        W20491  13.047   2.289   6.326  0.0173  0.0874 -0.1776
 7078W        W20492  12.512  16.881  12.506 -0.0698 -0.0629  0.1031
 7079W        W20493  10.640  10.185  14.090 -0.1037  0.2675 -0.1256
 7080W        W20494  11.866  17.818   4.609 -0.2457  0.0906  0.2727
 7081W        W20495   5.690   7.717   3.840 -0.1369 -0.2480 -0.0727
 7082W        W20496   6.662   4.076   5.716 -0.0447  0.0421  0.1528
 7083W        W20497  16.856   6.692  13.329 -0.3685 -0.3050  0.2370
 7084W        W20498   1.582   4.671   2.175  0.1533  0.1386 -0.0614
 7085W        W20499  12.397   6.048  14.470  0.1289 -0.2183 -0.0513
 7086W        W20500   8.873  13.617  12.505 -0.2100 -0.1043 -0.0908
 7087W        W20501   8.575   3.533   4.663 -0.1270  0.0042 -0.0400
 7088W        W20502  14.894  12.366  14.000  0.0106 -0.2252  0.0008
 7089W        W20503   8.297   4.963   3.935  0.0610 -0.0228 -0.1314
 7090W        W20504  16.062  13.632   2.121 -0.1549  0.1065  0.1047
 7091W        W20505  14.472   3.309   1.578  0.0818  0.2210 -0.0105
 7092W        W20506   1.100   4.118   3.046 -0.1609 -0.2505 -0.1783
 7093W        W20507   3.005  11.911   1.987 -0.0802  0.0235  0.0878
 7094W        W20508   3.284  11.793  14.878  0.0591  0.2673 -0.0525
 7095W        W20509   1.205   0.716  14.161  0.1743  0.0853 -0.0702
 7096W        W20510   7.987  14.569  11.702  0.3387  0.1197  0.0822
 7097W        W20511  17.101  17.136  13.870 -0.1351  0.1687 -0.2659
 7098W        W20512   6.447   3.466  13.436 -0.1344  0.1037  0.1464
 7099W        W20513   9.832   3.995   1.433 -0.1895 -0.0723  0.0706
 7100W        W20514  13.661   0.945   3.093  0.0638 -0.0335 -0.4566
 7101W        W20515  12.797  11.519   4.510 -0.2250 -0.1328  0.1044
 7102W        W20516   0.587  15.198  13.629  0.0271 -0.0927 -0.3056
 7103W        W20517  17.936   0.918   4.051  0.0489 -0.1022 -0.1187
 7104W        W20518   9.844  12.852  13.444  0.1697  0.0740 -0.0653
 7105W        W20519   6.862  13.932  12.736  0.1683 -0.0606 -0.0503
 7106W        W20520  15.725   4.058  12.508  0.0494 -0.2246 -0.0728
 7107W        W20521  17.709  13.311   3.061 -0.1667  0.0119 -0.2319
 7108W        W20522  14.558   2.557   3.219 -0.0808  0.0396  0.1168
 7109W        W20523   1.320  14.668  12.788 -0.1411  0.0098 -0.3455
 7110W        W20524   1.331   0.497   2.846  0.2806  0.1573  0.4350
 7111W        W20525  16.699  16.308  12.869 -0.2689  0.2656  0.0851
 7112W        W20526  11.563  12.183  13.318  0.3151 -0.2370 -0.1930
 7113W        W20527   6.490   0.777  11.964  0.2132  0.2230  0.1545
 7114W        W20528   1.204   2.480  13.436 -0.0947 -0.3400 -0.1369
 7115W        W20529  14.629   0.475  14.614 -0.0948  0.0779  0.1673
 7116W        W20530  13.861  12.115   5.314 -0.2911 -0.0958 -0.3726
 7117W        W20531  15.588  14.033  14.320 -0.1873 -0.1127  0.1226
 7118W        W20532  17.436   8.863  16.453 -0.1201  0.0623 -0.0209
 7119W        W20533   5.465  11.997  14.969  0.0637  0.2733 -0.0888
 7120W        W20534  15.358  11.197   5.043  0.1491  0.2541 -0.3180
 7121W        W20535   8.426  15.007  15.848 -0.1814 -0.2106 -0.2605
 7122W        W20536  10.690   8.898  12.409  0.0725  0.3890  0.0818
 7123W        W20537   1.848   0.903  16.586  0.1116  0.0231  0.1267
 7124W        W20538  13.221   3.497   6.896 -0.0136  0.2458  0.1567
 7125W        W20539  15.466  14.499  14.101 -0.0644 -0.1516 -0.3745
 7126W        W20540  15.322  16.209   4.995  0.2648 -0.1371  0.2082
 7127W        W20541   1.627  16.429   5.269  0.1783  0.0113 -0.0988
 7128W        W20542   9.996  16.397  12.653  0.1670 -0.1369 -0.1934
 7129W        W20543  11.447  14.492   4.851 -0.1373 -0.1633 -0.0551
 7130W        W20544   1.536   4.108   3.767 -0.3388 -0.2057  0.2081
 7131W        W20545   8.409   6.248   4.866  0.0723  0.0775 -0.3579
 7132W        W20546   7.170   8.081  14.871  0.0284  0.2367 -0.0090
 7133W        W20547  10.876   0.607   0.017 -0.2819 -0.0813 -0.1102
 7134W        W20548  14.224   3.583  15.476  0.0316 -0.1168  0.0723
 7135W        W20549   1.952   2.139   1.409  0.3355  0.0074 -0.0699
 7136W        W20550  17.707  14.311  11.889  0.3245 -0.0069 -0.1700
 7137W        W20551  16.147  13.598   1.097 -0.0902 -0.1409 -0.0217
 7138W        W20552   5.734   3.229  16.009  0.2003  0.0884 -0.0978
 7139W        W20553   9.209  10.108  13.514 -0.0451 -0.1659  0.0353
 7140W        W20554   8.863   0.719  10.898 -0.0879  0.0302  0.2617
 7141W        W20555   4.911   1.400  13.482  0.3466 -0.0280  0.2031
 7142W        W20556   9.014   8.480   3.134 -0.1193  0.1882  0.0768
 7143W        W20557  11.503  17.347  15.493  0.2987 -0.1090  0.1881
 7144W        W20558  15.929  15.221  15.627 -0.0855  0.1271  0.0964
 7145W        W20559   4.223   9.054   4.440  0.2250  0.0431 -0.1044
 7146W        W20560  15.014  16.270   6.439 -0.2699 -0.0044  0.1180
 7147W        W20561  17.993   5.865   5.882 -0.1061  0.0817  0.0531
 7148W        W20562  10.208   2.200  14.831 -0.2444 -0.1137 -0.0546
 7149W        W20563  12.316   4.993   1.370  0.0629  0.0932  0.2884
 7150W        W20564  14.250   0.068  13.224  0.0592  0.2838  0.1460
 7151W        W20565   9.936   6.070  10.644  0.0493 -0.0551 -0.0012
 7152W        W20566  13.398  17.954  13.622 -0.3132 -0.3880  0.0109
 7153W        W20567   9.299  15.986  16.183 -0.0323  0.0825  0.0698
 7154W        W20568   5.795   4.833  12.746  0.2364  0.0927 -0.1616
 7155W        W20569  11.496  16.512   0.254  0.2569  0.1372  0.0340
 7156W        W20570   1.558   2.897   5.513 -0.1350 -0.1948 -0.3570
 7157W        W20571  17.152  15.331   3.506 -0.0930  0.2854 -0.4549
 7158W        W20572  13.955   2.217  14.204  0.2857 -0.1727  0.1243
 7159W        W20573   3.575  13.335  12.357  0.0076  0.2970 -0.3253
 7160W        W20574   7.525  13.613   4.761 -0.3640  0.3680  0.0911
 7161W        W20575  11.093   9.180   5.312 -0.1511 -0.1575  0.2093
 7162W        W20576   8.600  15.585  11.386  0.0414  0.0030 -0.0102
 7163W        W20577  10.336   7.278   4.542  0.1136 -0.0750 -0.3313
 7164W        W20578   0.368  13.763  14.622  0.1418  0.1000 -0.2042
 7165W        W20579   9.937   6.220   1.140  0.5540  0.1878 -0.1851
 7166W        W20580   8.639   4.552  13.951  0.0158  0.0711 -0.2109
 7167W        W20581   1.608   5.578  16.458 -0.3848 -0.0805 -0.0254
 7168W        W20582  10.252   6.382  11.021  0.0768 -0.5124 -0.0772
 7169W        W20583   5.045   0.430  15.053  0.0145 -0.2099  0.1386
 7170W        W20584   3.074   7.992   2.265  0.3454 -0.1465 -0.1933
 7171W        W20585   1.462   3.793   3.380 -0.0077  0.2852  0.1785
 7172W        W20586  17.468   3.710   4.849  0.0659 -0.1060  0.3542
 7173W        W20587  10.799  13.803   2.812 -0.0711 -0.3764 -0.0903
 7174W        W20588  13.082   6.626   0.302  0.1279  0.2752  0.1342
 7175W        W20589   3.591  14.793   5.095  0.1496 -0.2018  0.2058
 7176W        W20590   2.488   7.078  13.768  0.0000 -0.1257 -0.0064
 7177W        W20591   6.610   0.869   2.233 -0.0294  0.1620  0.1192
 7178W        W20592  16.700  17.720   1.103  0.1716  0.0458  0.3436
 7179W        W20593   5.150   9.537   4.871 -0.0972  0.0652 -0.4437
 7180W        W20594  13.453   9.987  14.101  0.1826 -0.1168 -0.0977
 7181W        W20595  10.966  13.487  12.559 -0.2654  0.0844  0.0989
 7182W        W20596  13.265  13.096   0.506 -0.0846 -0.0498 -0.0516
 7183W        W20597   7.751  13.746   0.264 -0.0351 -0.1333 -0.0286
 7184W        W20598   0.556   3.290   2.624 -0.1125  0.0829  0.2066
 7185W        W20599   8.369   1.471  16.631 -0.1093  0.5456 -0.0802
 7186W        W20600   5.535   7.432  16.591 -0.0122  0.1379  0.3037
 7187W        W20601   4.882  17.697   3.188  0.0520 -0.0041  0.0639
 7188W        W20602  11.696   0.230  11.516 -0.2128 -0.1215 -0.0729
 7189W        W20603  15.250   0.814   6.112  0.1541  0.1680 -0.1674
 7190W        W20604  16.621   3.075  15.854 -0.2342  0.0145 -0.0342
 7191W        W20605  15.944   2.241   4.077 -0.0568 -0.2441  0.0304
 7192W        W20606   2.923  16.585  14.630  0.1657  0.0340 -0.1870
 7193W        W20607   0.376  14.821  15.293 -0.0212 -0.1824  0.1646
 7194W        W20608   8.055   7.853   3.960  0.0124  0.3824  0.1249
 7195W        W20609  16.960  12.625  14.810  0.0362  0.0576 -0.1594
 7196W        W20610   1.865  17.719   4.095 -0.1990  0.0681  0.0928
 7197W        W20611   9.234  10.873   4.661 -0.0492 -0.1968  0.2833
 7198W        W20612  10.579  14.743   4.280 -0.1671 -0.1139 -0.0997
 7199W        W20613   9.343  10.236  15.754  0.0378 -0.1126  0.1542
 7200W        W20614  17.817  10.150  10.751  0.0546  0.0862  0.2185
 7201W        W20615   6.054  14.453  15.179 -0.0515 -0.1909  0.0193
 7202W        W20616  10.580   5.665   2.370 -0.1671 -0.0389 -0.1172
 7203W        W20617  16.948  14.037  14.429  0.3809  0.0023 -0.0976
 7204W        W20618   8.595  12.673  14.716 -0.2094 -0.0827  0.1689
 7205W        W20619  12.192  10.518  13.681  0.0384  0.3340  0.2842
 7206W        W20620   4.390  11.624  15.202 -0.0804  0.3249 -0.0727
 7207W        W20621   3.717   4.275   5.048  0.1548 -0.0710 -0.1852
 7208W        W20622   5.376  14.244   0.655  0.2371 -0.1260  0.0619
 7209W        W20623   2.301   1.994  13.291 -0.0491 -0.0471  0.0629
 7210W        W20624   8.084  10.239   1.492  0.2177  0.3022  0.0763
 7211W        W20625  14.917  13.228   1.805  0.0817 -0.2924  0.0223
 7212W        W20626  15.007  14.683   4.090  0.0164 -0.1284 -0.3458
 7213W        W20627   6.289  15.765  16.057  0.0926 -0.2344  0.1315
 7214W        W20628  13.943   8.241   0.080 -0.0763 -0.2022 -0.1587
 7215W        W20629   6.251  14.930  15.775 -0.0414  0.0545  0.0090
 7216W        W20630   7.317  12.816  15.411 -0.2018  0.0242 -0.1255
 7217W        W20631  17.270  11.371  16.504  0.0495 -0.0515 -0.0137
 7218W        W20632  13.538  15.747   5.670  0.0918  0.0102  0.3371
 7219W        W20633   7.642  11.029   1.144  0.1217  0.2135  0.3303
 7220W        W20634  11.173   2.086  15.146  0.0501  0.0523 -0.0891
 7221W        W20635  16.510  17.024   1.428 -0.1216  0.2637  0.0245
 7222W        W20636  16.286   6.127  13.217  0.0422 -0.2707 -0.1154
 7223W        W20637  15.463   4.237   2.942  0.3388  0.4402 -0.1050
 7224W        W20638  14.669  13.655  13.412  0.2221  0.0215  0.0495
 7225W        W20639  11.950  13.576   0.531  0.2605 -0.0708 -0.1027
 7226W        W20640   1.466   0.759  11.072 -0.0961 -0.0885 -0.0595
 7227W        W20641  12.292   5.579  14.410  0.2539  0.0762  0.0138
 7228W        W20642  15.629   7.854   4.513 -0.2475 -0.0251  0.0546
 7229W        W20643   8.031   5.944   4.826  0.0087  0.1404 -0.2310
 7230W        W20644   9.244  16.176   0.878  0.4306 -0.1016 -0.1109
 7231W        W20645   6.425  17.354  12.931  0.2140  0.3544 -0.2131
 7232W        W20646  18.027   1.942  11.394 -0.2094  0.1589  0.2207
 7233W        W20647   0.304   5.589  14.291  0.1487  0.1866 -0.1744
 7234W        W20648   2.015   8.045   5.405  0.4052  0.2195 -0.1915
 7235W        W20649   4.700   9.799   0.142  0.0721  0.3346  0.4065
 7236W        W20650   5.893   1.402  10.486 -0.1686 -0.1867 -0.0164
 7237W        W20651  13.731   8.342   5.991 -0.1078 -0.1808  0.1902
 7238W        W20652   1.592  15.413  11.426  0.0990  0.2649 -0.1558
 7239W        W20653   3.108   7.538   4.308 -0.5553 -0.1588  0.0073
 7240W        W20654  12.712   9.104  11.429 -0.2280  0.0277  0.1251
 7241W        W20655  13.772   1.912   3.711 -0.5749 -0.2057  0.0435
 7242W        W20656  11.614   5.232  15.007  0.1816 -0.2342  0.2069
 7243W        W20657   0.570   0.094   6.185 -0.1284  0.4216 -0.0322
 7244W        W20658   3.781  17.754  15.579 -0.0646 -0.0505  0.1675
 7245W        W20659   0.460  10.811  16.369  0.0168  0.0401 -0.0571
 7246W        W20660   8.706  12.498   3.193  0.0347  0.2976  0.3822
 7247W        W20661   7.788  16.074   5.221 -0.0538 -0.1126 -0.0403
 7248W        W20662  15.677   7.186  11.871  0.4921  0.1040 -0.2135
 7249W        W20663   7.369   4.123  15.379  0.2962 -0.0396  0.1715
 7250W        W20664   0.206   2.688  13.710  0.0349  0.2968 -0.3768
 7251W        W20665   4.315  17.531   2.125  0.2231  0.0322 -0.1525
 7252W        W20666   5.633   8.004  16.110 -0.1398  0.0665 -0.1415
 7253W        W20667  11.686   7.963  10.672 -0.1469 -0.1188 -0.4020
 7254W        W20668  13.409   3.042  14.971 -0.3453 -0.1144  0.0992
 7255W        W20669   5.466   1.997  12.387  0.0038 -0.0704 -0.0480
 7256W        W20670   7.842   1.311  10.504  0.0970  0.3377  0.0349
 7257W        W20671  15.865   2.030  11.173  0.2046 -0.1800 -0.2979
 7258W        W20672  16.122   4.918  13.933  0.0801  0.0576  0.0241
 7259W        W20673   2.965  15.219   0.645 -0.1717  0.1334 -0.1033
 7260W        W20674   7.345  10.136   3.156 -0.0379  0.2092  0.0488
 7261W        W20675   1.040   0.198   5.259 -0.1069  0.0408  0.0750
 7262W        W20676  17.030  17.216  10.419  0.2837  0.2113  0.1004
 7263W        W20677  11.219  10.906  10.875 -0.1692  0.0959  0.0413
 7264W        W20678  11.514  11.571  16.594 -0.3221  0.0455 -0.1074
 7265W        W20679  11.836   2.682  13.355 -0.2985  0.0273  0.1507
 7266W        W20680  17.101   2.577   4.352 -0.0151  0.3285  0.0746
 7267W        W20681   9.210  15.002  12.334  0.1065 -0.2369  0.2585
 7268W        W20682  13.579   7.395   2.592 -0.1704 -0.3951  0.2085
 7269W        W20683  14.162  10.192   0.111  0.3104 -0.1010  0.1157
 7270W        W20684   1.213   3.630   5.206  0.0509  0.1521 -0.0737
 7271W        W20685   7.893   5.850  10.185  0.0203  0.0498  0.0533
 7272W        W20686  17.881   9.138   5.038 -0.0851 -0.1419 -0.0706
 7273W        W20687   8.308  16.795   0.504  0.1136 -0.0313  0.0938
 7274W        W20688   6.683  14.973   3.276 -0.1532 -0.0559 -0.1912
 7275W        W20689   7.380   5.281   4.695 -0.1323  0.0397  0.0259
 7276W        W20690   5.525  16.029   0.709 -0.1413 -0.2176  0.0321
 7277W        W20691   7.822  13.567  11.650  0.4064  0.2249 -0.1072
 7278W        W20692   4.785  17.433   2.374 -0.0018  0.0006 -0.0314
 7279W        W20693  12.317  11.336   4.460  0.0133  0.0761  0.1204
 7280W        W20694  10.687   8.426   1.745  0.0775 -0.0557 -0.3550
 7281W        W20695  15.507  10.264   4.291  0.1707 -0.0036  0.3161
 7282W        W20696   6.914  12.772   3.613  0.2384  0.2078 -0.1339
 7283W        W20697   3.321   3.444   0.481  0.2034 -0.1129 -0.0354
 7284W        W20698   0.836   6.280   4.965 -0.0663  0.0931  0.2070
 7285W        W20699   5.775   7.184  15.349 -0.0526 -0.0689  0.0681
 7286W        W20700  16.956   7.425  12.043  0.0892 -0.3837  0.2766
 7287W        W20701   1.761   7.158   5.177 -0.0682 -0.0444  0.0014
 7288W        W20702   2.161  15.946  12.541 -0.2251 -0.1383  0.3204
 7289W        W20703  17.757  16.591   3.130 -0.0234 -0.1507 -0.2842
 7290W        W20704   8.185  15.950   1.892 -0.2411 -0.3102  0.0127
 7291W        W20705   1.239   4.448  12.499  0.2706  0.0221 -0.3210
 7292W        W20706  13.245   3.513  16.689 -0.1605 -0.0523 -0.3349
 7293W        W20707   5.419   9.683  13.883 -0.1594 -0.1767 -0.2574
 7294W        W20708   5.757   8.309   4.624  0.1765 -0.0548 -0.1239
 7295W        W20709   6.967   6.829   5.269 -0.0477 -0.1204  0.2708
 7296W        W20710   7.408  17.315  14.538 -0.0266  0.0091 -0.2599
 7297W        W20711  12.481   6.948   0.892  0.2914 -0.0158  0.1726
 7298W        W20712  10.388  12.942  14.252  0.1679  0.1319  0.0393
 7299W        W20713  15.036   1.199  13.974  0.0329  0.0382  0.0487
 7300W        W20714   3.805   9.986  16.532  0.2946  0.2558 -0.3470
 7301W        W20715   6.819   2.393   1.053  0.0043  0.0004 -0.1475
 7302W        W20716   5.446   3.568  15.182  0.2010 -0.0230 -0.1441
 7303W        W20717  12.510  17.268   2.016  0.0834 -0.0302 -0.0636
 7304W        W20718  11.393   5.397  16.686 -0.2759  0.1614  0.1180
 7305W        W20719  15.203  11.149   1.062 -0.2434  0.1221  0.1145
 7306W        W20720   1.335   3.924   5.533  0.0429  0.1392  0.0290
 7307W        W20721   9.057   1.207  10.749  0.1651  0.0249  0.4121
 7308W        W20722  12.236  17.878  14.359  0.0438  0.2340 -0.2402
 7309W        W20723   1.114   7.467  11.321 -0.2333 -0.0426 -0.0419
 7310W        W20724   6.440   4.177  12.333  0.2254 -0.0551  0.0047
 7311W        W20725  14.293   9.180  13.243  0.1617 -0.2422  0.3791
 7312W        W20726  14.731  14.099   3.371  0.0978 -0.0181 -0.1193
 7313W        W20727   0.972  14.976   5.871 -0.0790 -0.0903 -0.5399
 7314W        W20728   9.094   3.186  13.484 -0.0991  0.1979 -0.0687
 7315W        W20729  10.073  11.412  10.994 -0.1055  0.2464  0.2276
 7316W        W20730  16.886  14.817   4.438 -0.0722  0.0394 -0.1433
 7317W        W20731   7.613   3.701   0.181 -0.0516  0.0528  0.0556
 7318W        W20732  10.869  13.271   3.748 -0.1453 -0.0216 -0.1842
 7319W        W20733   5.393  16.262  13.661  0.1099 -0.2892  0.1198
 7320W        W20734   2.151  14.258  15.133  0.2020  0.0041 -0.1780
 7321W        W20735  15.896  17.811  13.443  0.2024 -0.0227 -0.2747
 7322W        W20736   8.509  12.864   1.147  0.0322 -0.1009  0.3873
 7323W        W20737  15.261  17.734  10.389  0.0237  0.0843  0.2576
 7324W        W20738   0.062  16.091  11.200 -0.0126 -0.1141  0.1226
 7325W        W20739   3.281   3.975  15.900  0.1317 -0.0183 -0.0467
 7326W        W20740   9.455   6.981  12.835  0.0984 -0.0929 -0.1673
 7327W        W20741  16.782  10.366   3.731  0.0776 -0.0620  0.3031
 7328W        W20742   3.275  12.518   5.217  0.0989  0.0421  0.0685
 7329W        W20743  10.549   4.958   4.511 -0.1696 -0.1162 -0.2045
 7330W        W20744   0.156   0.891   5.859  0.4463  0.1794  0.0916
 7331W        W20745   0.291   2.301  11.070  0.0171 -0.0084  0.0863
 7332W        W20746  15.045   0.275   0.185  0.1068  0.1581  0.0842
 7333W        W20747   9.467  10.625  12.055  0.1670 -0.1578  0.0217
 7334W        W20748   6.280  11.668  12.865  0.0604 -0.0576  0.0236
 7335W        W20749   6.287   0.348   4.837 -0.0505  0.1721  0.1570
 7336W        W20750   3.510   6.498   4.550 -0.2570 -0.3884 -0.2351
 7337W        W20751  16.625  13.034   0.368  0.1734  0.1480  0.3324
 7338W        W20752  16.388   1.779  13.836  0.1573  0.4761 -0.0316
 7339W        W20753  14.020  16.604  11.476  0.2955  0.0149  0.0583
 7340W        W20754  11.856   0.696  13.303  0.2113  0.2649  0.1294
 7341W        W20755  14.075   5.989  12.545  0.0277  0.0979 -0.1652
 7342W        W20756   8.339   1.211   4.104 -0.0592  0.2958  0.1477
 7343W        W20757  16.786   7.513   5.305  0.1414  0.1301  0.1043
 7344W        W20758  11.300   2.772  12.277  0.2183 -0.0352  0.2061
 7345W        W20759  13.762   4.542   6.384 -0.2091  0.1517  0.2904
 7346W        W20760  17.352   4.711  12.160 -0.1075  0.0944  0.2584
 7347W        W20761   2.396   0.491   1.447  0.0464 -0.1055  0.1148
 7348W        W20762   8.668   6.902  12.775  0.2110 -0.1944 -0.0119
 7349W        W20763  16.542   0.150   4.439 -0.1779  0.0172  0.0990
 7350W        W20764  10.594   9.018   0.949 -0.2308  0.2666 -0.0922
 7351W        W20765   9.986   5.544   0.840 -0.0410  0.1150  0.1493
 7352W        W20766  11.019  15.123   3.396  0.0388  0.2611 -0.1862
 7353W        W20767   4.289   8.830   1.180  0.0990 -0.1594  0.1140
 7354W        W20768   1.700  12.064  10.391  0.3056  0.2012  0.1816
 7355W        W20769  14.064   4.326   2.963 -0.1638  0.2090  0.2595
 7356W        W20770  15.435   3.155   1.426 -0.0440 -0.0216  0.1025
 7357W        W20771   8.446  17.432  14.725 -0.0582 -0.2658 -0.1801
 7358W        W20772   2.159   5.974   4.209  0.2909  0.2680  0.2262
 7359W        W20773   1.425   7.264  15.326 -0.1890  0.0592  0.0355
 7360W        W20774   6.034   5.130  15.119 -0.0532  0.0963 -0.1480
 7361W        W20775   7.679   3.061  10.437  0.1186 -0.0023  0.2356
 7362W        W20776  16.463   9.109   0.565  0.3007  0.3026 -0.1206
 7363W        W20777  17.301   7.435   6.251 -0.2011 -0.2904 -0.0136
 7364W        W20778   3.042  10.194  14.296  0.1693 -0.1786 -0.2586
 7365W        W20779  12.295   4.289  15.927 -0.0335 -0.0954 -0.0530
 7366W        W20780  16.542  13.809  11.449  0.0972 -0.1911 -0.0156
 7367W        W20781   8.502   5.350  14.891  0.0705 -0.2077 -0.0916
 7368W        W20782   1.547   3.348   5.735 -0.0010  0.2754 -0.0681
 7369W        W20783   9.712   7.332  14.601  0.1277  0.3142 -0.1779
 7370W        W20784  10.771   9.818   4.512  0.2114  0.2964  0.2474
 7371W        W20785  10.667   8.319   0.271  0.0149 -0.0827 -0.0081
 7372W        W20786  12.799   3.312   0.177 -0.1503 -0.0032 -0.1622
 7373W        W20787   4.246  13.755   3.406  0.2502 -0.0701  0.2125
 7374W        W20788  17.924  12.067   4.521 -0.0465 -0.0232 -0.2685
 7375W        W20789   8.935   5.946   4.680  0.3688 -0.1788 -0.0223
 7376W        W20790   0.964  13.692  10.786 -0.4323  0.0221  0.1016
 7377W        W20791  10.593   4.551   0.141  0.0960  0.0991 -0.2514
 7378W        W20792  15.299  15.275   4.899 -0.0883 -0.1823 -0.2004
 7379W        W20793  14.297   6.645   4.690  0.0595  0.2510 -0.1340
 7380W        W20794   0.134  14.311  16.577  0.0466  0.0473 -0.0911
 7381W        W20795  17.870   2.796  13.260 -0.0163 -0.0891 -0.0703
 7382W        W20796   6.383   2.317   2.763 -0.0519 -0.0080  0.0289
 7383W        W20797  14.448  16.185   3.433  0.0814 -0.1645 -0.3149
 7384W        W20798   3.022   1.043  13.647 -0.0118 -0.1858  0.2135
 7385W        W20799   7.197  12.730  12.454  0.0508  0.1115 -0.0746
 7386W        W20800  11.424   0.238   5.199  0.1750  0.2497  0.1102
 7387W        W20801   2.807  17.993   4.370  0.2326  0.0860  0.0137
 7388W        W20802  15.668   0.285   4.982  0.0834 -0.0317  0.1318
 7389W        W20803  14.844  10.032   0.196  0.1989 -0.0042  0.0258
 7390W        W20804   3.701  15.108   2.979 -0.0601  0.1976 -0.0658
 7391W        W20805   6.503  17.052   2.974 -0.4834  0.2003 -0.2709
 7392W        W20806   2.423   2.813   6.081 -0.0313 -0.3321  0.3374
 7393W        W20807   0.145  15.035   3.380  0.1402  0.0112 -0.0135
 7394W        W20808   9.187  16.742  13.878 -0.2382  0.3129 -0.1936
 7395W        W20809   3.743  17.061   2.665 -0.1643  0.1214  0.0949
 7396W        W20810   7.484   7.142  12.985  0.0031 -0.0549  0.2984
 7397W        W20811   3.932   1.303   2.440 -0.1067  0.0346 -0.2778
 7398W        W20812  14.660  10.552   3.318  0.0190 -0.2453  0.2491
 7399W        W20813   9.552   3.495   4.218  0.1251 -0.1380 -0.0948
 7400W        W20814   2.993  17.499  13.160 -0.0230  0.0723 -0.1693
 7401W        W20815  12.445  13.576  12.541  0.0444  0.1401  0.2670
 7402W        W20816   7.261   8.927   2.490 -0.2131 -0.3484 -0.0559
 7403W        W20817   6.102   6.527  11.297 -0.1390 -0.2292 -0.1616
 7404W        W20818   2.627  13.473   2.965 -0.0721  0.0834 -0.1136
 7405W        W20819  11.249   1.501   4.922 -0.1297  0.0252  0.0056
 7406W        W20820   9.449   3.046  16.636 -0.0912  0.2753 -0.1121
 7407W        W20821   7.474   4.536  15.043  0.0560  0.0786  0.0926
 7408W        W20822   2.785   1.294  11.176  0.0369 -0.2058 -0.0899
 7409W        W20823  15.299  12.408  12.987  0.0000 -0.0883 -0.0715
 7410W        W20824  14.455  15.634  11.466 -0.1655 -0.1100  0.0266
 7411W        W20825  15.197  10.232   6.586  0.0500  0.1833 -0.2468
 7412W        W20826   3.673   9.768   4.334  0.0385  0.1714  0.2095
 7413W        W20827  12.259   2.691   3.342  0.2831  0.3798 -0.1355
 7414W        W20828   0.318   6.727   5.870 -0.1346  0.1631  0.1194
 7415W        W20829  14.531   1.802   0.811 -0.1314 -0.1136  0.2034
 7416W        W20830   7.719  11.195  16.321 -0.2119 -0.2876  0.0004
 7417W        W20831   0.573   4.112  12.437  0.0088 -0.1282 -0.1846
 7418W        W20832  13.664  16.710   4.684 -0.0190 -0.0216  0.0814
 7419W        W20833  17.776  17.752   6.132 -0.0820 -0.0333 -0.1871
 7420W        W20834  10.485  10.565  11.138  0.1326  0.1349  0.1406
 7421W        W20835  11.032  15.351  10.298  0.0447  0.0047 -0.0068
 7422W        W20836  17.502   1.373  13.596  0.2045  0.3922  0.0060
 7423W        W20837  16.187   5.224  12.937  0.3808  0.1090 -0.0618
 7424W        W20838   0.491   7.645   5.923  0.3096  0.3934 -0.0366
 7425W        W20839  17.800  12.763  15.215 -0.0027  0.0008 -0.0548
 7426W        W20840  13.682   9.182   2.556  0.2668  0.1284 -0.1224
 7427W        W20841   6.025   3.534   1.175 -0.0829  0.0747 -0.0904
 7428W        W20842   1.331  17.582   6.538 -0.4210  0.0672  0.0227
 7429W        W20843   4.314  13.864  16.294  0.1087 -0.0053 -0.0277
 7430W        W20844   4.399  17.961  12.530  0.0574  0.0185  0.3502
 7431W        W20845  17.438  11.521   4.348  0.2245 -0.0179  0.2379
 7432W        W20846  14.925  12.214  15.622  0.1204  0.0467 -0.1528
 7433W        W20847   1.252  16.477   4.175  0.0267  0.1005 -0.2817
 7434W        W20848   4.684   0.973   0.262 -0.1692 -0.4855  0.2699
 7435W        W20849  11.593   9.399  14.518 -0.2596  0.3197 -0.2337
 7436W        W20850   0.029  11.634   5.731 -0.0597 -0.1571  0.0384
 7437W        W20851   8.352   3.763  16.306 -0.0551  0.1436 -0.1529
 7438W        W20852  11.954   7.435  10.459 -0.0084  0.0274 -0.3155
 7439W        W20853   6.131  17.280   5.406 -0.1372 -0.2061 -0.2534
 7440W        W20854   0.812  13.124  15.119  0.0714  0.2556 -0.3926
 7441W        W20855  14.057   3.833  13.706  0.2464 -0.0717 -0.0506
 7442W        W20856   2.905   6.800  14.451 -0.0932  0.0793  0.0902
 7443W        W20857   3.444  16.156   0.852 -0.2078  0.1619  0.0637
 7444W        W20858   1.106   5.079  13.312  0.2023  0.3206 -0.2381
 7445W        W20859  10.875   8.935  10.774  0.0954  0.3097  0.3357
 7446W        W20860   4.720   3.047   5.215 -0.4468 -0.0592 -0.1645
 7447W        W20861  11.415   6.606  15.442  0.0115  0.0312  0.0602
 7448W        W20862  15.035  18.000  14.570  0.0037 -0.0692  0.0193
 7449W        W20863  15.743   8.216  15.168  0.1883  0.1159 -0.0089
 7450W        W20864  10.932  16.166  15.342  0.2738  0.2511 -0.0990
 7451W        W20865   9.018   2.698   2.795 -0.0173 -0.0116 -0.0681
 7452W        W20866   5.340   6.857   4.333 -0.0701  0.0860  0.0076
 7453W        W20867  15.878  14.665  13.928 -0.1402  0.2632 -0.0719
 7454W        W20868   3.538  17.403  15.789 -0.0971  0.2223 -0.0247
 7455W        W20869   0.803  14.981  11.388 -0.0930 -0.1670  0.1329
 7456W        W20870   9.213  10.634  14.223  0.0187  0.1547 -0.0990
 7457W        W20871  14.431   9.288   2.000  0.0483  0.2000 -0.0465
 7458W        W20872  15.105   5.422  11.732  0.2030  0.0650  0.1589
 7459W        W20873  15.646   5.337   5.796  0.0004 -0.2558 -0.0210
 7460W        W20874  10.487   3.072  10.883 -0.0739 -0.2405  0.0940
 7461W        W20875  10.019  10.007  16.625  0.0599 -0.3551  0.0497
 7462W        W20876   4.668  16.174  14.838  0.0904  0.1424  0.2077
 7463W        W20877   4.126   0.216  13.524 -0.1245  0.1880  0.1096
 7464W        W20878   9.041  15.778   2.639  0.2175 -0.1342 -0.1322
 7465W        W20879  11.120   9.060   1.036 -0.1673 -0.0271  0.0541
 7466W        W20880   3.043   0.178   4.699 -0.3789 -0.0186 -0.3613
 7467W        W20881   1.877  13.597  16.218 -0.1198 -0.2035  0.0740
 7468W        W20882  16.075   3.586  14.994 -0.0205 -0.1471  0.4375
 7469W        W20883   3.090   5.955  10.894 -0.0165  0.1171  0.2032
 7470W        W20884   5.155  17.294   1.992 -0.0013 -0.0486  0.0176
 7471W        W20885  14.837   8.377  12.448 -0.1468  0.0145  0.1392
 7472W        W20886   3.850  13.932  16.533 -0.0375 -0.3110 -0.0165
 7473W        W20887   6.466   3.228  10.374 -0.1072  0.1180  0.0549
 7474W        W20888   8.941  11.727  16.236 -0.2152 -0.1680  0.2137
 7475W        W20889   1.072  17.823   6.208  0.0154  0.0204  0.0185
 7476W        W20890   1.902  10.811   0.261 -0.1421 -0.0549  0.0275
 7477W        W20891  15.823   6.287  10.850 -0.1982  0.0110 -0.3806
 7478W        W20892   0.154   1.368   6.174 -0.1184  0.1078  0.1625
 7479W        W20893   8.610  17.811  12.665 -0.1960 -0.1769  0.0996
 7480W        W20894   0.724   0.110  15.481 -0.2612  0.3924 -0.2617
 7481W        W20895   5.470   9.820   1.519  0.1012 -0.0946 -0.2324
 7482W        W20896   1.669   9.057   4.236  0.0618 -0.0008  0.0762
 7483W        W20897  15.041   0.922  16.293  0.0628 -0.0632  0.2036
 7484W        W20898   4.630  13.494  10.813 -0.3428  0.3713  0.1242
 7485W        W20899   5.227  11.201   5.596  0.0744 -0.3806  0.1403
 7486W        W20900  10.536  11.319  13.419 -0.0571  0.1210  0.1265
 7487W        W20901   9.378   0.874   2.025  0.0563  0.0964 -0.0289
 7488W        W20902  13.723  10.064   4.060  0.0703  0.1186 -0.1097
 7489W        W20903   6.317  11.701  14.569  0.0541 -0.0991 -0.0946
 7490W        W20904   4.956   6.299  12.488  0.2052 -0.1674 -0.0678
 7491W        W20905   1.297   7.513  14.483 -0.0299  0.1420  0.0258
 7492W        W20906  17.925  10.730   3.506  0.4996  0.0013  0.0939
 7493W        W20907  10.356  10.287   1.856 -0.1449  0.2064 -0.0121
 7494W        W20908   4.132   4.538  13.419 -0.2274 -0.0553 -0.1875
 7495W        W20909  15.216   5.920   3.210  0.1191 -0.1155 -0.0747
 7496W        W20910   3.031  12.581   5.726  0.0885 -0.0700 -0.1621
 7497W        W20911  16.377   4.699  14.937 -0.2915  0.0209  0.0905
 7498W        W20912   7.408   1.771   2.814  0.0315  0.1785  0.1371
 7499W        W20913  11.771   8.787  11.143  0.0785 -0.0993  0.3507
 7500W        W20914  13.484   5.221  16.228 -0.1143  0.0811 -0.0976
 7501W        W20915   0.890  16.808   1.558 -0.0433 -0.1887 -0.1094
 7502W        W20916  11.218   3.847  11.716 -0.0022 -0.0806  0.0585
 7503W        W20917   8.658   6.975   3.272 -0.2394  0.0855 -0.0876
 7504W        W20918  15.334  12.662   5.115  0.2651  0.2175  0.1720
 7505W        W20919   2.513  15.114  14.853 -0.1982 -0.0429 -0.0663
 7506W        W20920  11.993   8.544   1.425 -0.0393  0.0171  0.1582
 7507W        W20921   1.721  17.067   2.639  0.2011  0.2490 -0.0914
 7508W        W20922   6.209   6.580  11.772 -0.2352  0.0203  0.1835
 7509W        W20923  12.129  12.898   3.247 -0.0840 -0.0737  0.0202
 7510W        W20924   0.096   6.052   3.898  0.0732  0.1740 -0.2374
 7511W        W20925  13.503  15.069   4.556 -0.0714  0.2162  0.1042
 7512W        W20926  13.214  14.583   4.572 -0.2998 -0.1352  0.2380
 7513W        W20927  17.856  15.954   0.653  0.0200 -0.1799 -0.0896
 7514W        W20928  14.051   7.473  16.260  0.1651 -0.1564 -0.1321
 7515W        W20929   5.451   3.538  12.002 -0.2356  0.0805 -0.2350
 7516W        W20930  11.965   5.155  13.506  0.2238 -0.2472  0.0561
 7517W        W20931   0.729  16.676   1.078 -0.1052 -0.2681 -0.3133
 7518W        W20932   2.834   9.347   5.451 -0.1453  0.1051 -0.0781
 7519W        W20933   7.007  15.102   2.057  0.2120  0.0081  0.0652
 7520W        W20934  14.307  11.268  12.349  0.2236 -0.1876  0.3047
 7521W        W20935  11.807   2.661   3.115  0.1473  0.1535  0.0697
 7522W        W20936   7.631  13.787  12.094  0.2541  0.1270 -0.2708
 7523W        W20937  10.131   7.075  14.468 -0.2016 -0.2936 -0.1012
 7524W        W20938  12.085   3.876   0.695 -0.1126 -0.0958  0.1008
 7525W        W20939   3.071  10.015   6.185 -0.2633  0.1040 -0.0019
 7526W        W20940   5.569   9.691   5.998  0.1275 -0.1843  0.1229
 7527W        W20941   9.253  17.920   4.108 -0.0662 -0.0654  0.1357
 7528W        W20942   0.199  16.837  10.480 -0.0817  0.2436 -0.2087
 7529W        W20943   5.789   6.307  13.568 -0.0813 -0.1973  0.3219
 7530W        W20944  14.331  15.364  12.331  0.1717 -0.2554  0.0058
 7531W        W20945   1.952   7.568  12.055 -0.0364  0.0223  0.2767
 7532W        W20946  15.482  17.399  15.075  0.2175  0.1775 -0.2324
 7533W        W20947   3.762   2.469  15.322 -0.1695 -0.0157  0.0601
 7534W        W20948   9.674  13.677   3.089 -0.0526  0.2245  0.0692
 7535W        W20949   7.122   3.697  12.770 -0.0899 -0.0508  0.0283
 7536W        W20950   5.661  16.890   1.085  0.0914  0.1087 -0.0036
 7537W        W20951   2.840  11.319  12.823  0.0479 -0.0619 -0.1491
 7538W        W20952  13.964   9.496   3.821 -0.1750  0.0948  0.0986
 7539W        W20953  15.783   0.611  13.822 -0.2118  0.1499 -0.0023
 7540W        W20954   3.697  17.980   4.201 -0.2932 -0.0475 -0.0351
 7541W        W20955   5.416  11.490  13.589  0.0848 -0.1677  0.5308
 7542W        W20956   9.464   3.695  14.574 -0.0710 -0.2311 -0.1291
 7543W        W20957   6.647   8.929  15.516 -0.2881 -0.1215  0.0337
 7544W        W20958  17.783   1.332   1.736  0.0297  0.1922 -0.2920
 7545W        W20959   5.334   3.183   0.580  0.0085 -0.1772 -0.1988
 7546W        W20960   6.654  15.740   1.522  0.0583  0.1979  0.1126
 7547W        W20961  15.001   4.208  11.351  0.2665  0.1205  0.3307
 7548W        W20962   4.640   4.335  11.677 -0.2151 -0.0283 -0.1166
 7549W        W20963   5.752   1.971  14.496 -0.1583 -0.0411  0.0324
 7550W        W20964   9.866   9.699  10.174 -0.2204  0.1466  0.2177
 7551W        W20965   9.840   8.022  12.908 -0.1940 -0.0215  0.2385
 7552W        W20966  16.460   5.207  11.182  0.0731 -0.0240  0.2464
 7553W        W20967  11.895  15.239  16.645 -0.3093 -0.3379  0.0045
 7554W        W20968   0.212   1.934   3.864  0.0824  0.1714 -0.1668
 7555W        W20969  15.270   2.139   1.968  0.2816 -0.3973  0.1461
 7556W        W20970   0.168   6.746  16.426 -0.5170 -0.0904 -0.0071
 7557W        W20971   6.118   0.050   3.389 -0.1275 -0.0915 -0.1377
 7558W        W20972   3.458  14.194   3.099  0.1882  0.2380 -0.1401
 7559W        W20973   7.628   9.331   0.396  0.2703 -0.1140  0.0913
 7560W        W20974   1.606   7.710   5.375  0.0392  0.0898 -0.0077
 7561W        W20975  11.766   1.247   5.435 -0.0092 -0.0245  0.1361
 7562W        W20976   5.530   5.052   5.582  0.1473  0.1958 -0.0714
 7563W        W20977  10.391  10.336  14.526 -0.2739  0.2153 -0.2357
 7564W        W20978  13.276   8.131   1.646 -0.0626 -0.1064  0.1420
 7565W        W20979  12.875   2.535   2.610  0.2293  0.1606  0.0084
 7566W        W20980   0.022   4.063  11.790  0.0312 -0.1148  0.1401
 7567W        W20981  15.974  17.943  12.558  0.0277  0.4476  0.0454
 7568W        W20982   0.437   8.742  12.340 -0.2498  0.1536 -0.1225
 7569W        W20983  14.038   0.543  12.373 -0.1229  0.0775 -0.2347
 7570W        W20984   2.765   2.853  16.470 -0.3892  0.2513 -0.2422
 7571W        W20985   5.297  13.172   4.679  0.2298  0.1304  0.1446
 7572W        W20986  14.335  11.008   5.132 -0.1058  0.1709  0.1286
 7573W        W20987   8.693  11.222   3.441  0.0492 -0.3021 -0.1388
 7574W        W20988  10.648   5.504  14.710  0.4592 -0.2089 -0.2046
 7575W        W20989  10.653  16.244  11.286 -0.0498 -0.2617  0.1179
 7576W        W20990   3.414   4.362   5.470 -0.1351  0.1339 -0.1635
 7577W        W20991   3.897   2.775  11.377  0.0990  0.2985 -0.1963
 7578W        W20992   1.390   4.084   4.995  0.0575  0.0472  0.1007
 7579W        W20993  12.212  15.745   1.317 -0.0282 -0.2692 -0.0984
 7580W        W20994   3.800   3.129   1.163  0.1991 -0.4505  0.0056
 7581W        W20995   0.376  11.289  12.393  0.0755  0.2242  0.0237
 7582W        W20996   0.377  10.890   3.363 -0.1968  0.4617 -0.0561
 7583W        W20997  17.587  17.120  16.027  0.0118  0.2434 -0.0010
 7584W        W20998  10.329  12.328   0.733  0.0789  0.0726  0.1106
 7585W        W20999  14.419   3.340   3.415 -0.0337  0.0059  0.0734
 7586W        W21000  15.521   8.939  10.696 -0.0016  0.1330 -0.1804
 7587W        W21001   6.123   5.877   1.914  0.2323 -0.1697 -0.1337
 7588W        W21002   0.700   0.518   0.663  0.0858  0.2322  0.1194
 7589W        W21003  17.351   3.406  14.047  0.0627  0.1197  0.2130
 7590W        W21004   0.712  11.676   3.210  0.1599  0.0362 -0.2025
 7591W        W21005  11.216   1.539  12.564  0.2219 -0.3349 -0.0492
 7592W        W21006   2.174  11.011   5.513 -0.0192 -0.1674 -0.2232
 7593W        W21007  15.987  10.293  13.242  0.3288  0.2776 -0.2663
 7594W        W21008   3.623  13.043  15.707  0.1193 -0.0561  0.1685
 7595W        W21009  16.037   2.363   3.205 -0.2025 -0.0191 -0.1506
 7596W        W21010   9.691   3.135  12.780  0.1133  0.3955  0.0231
 7597W        W21011  10.659  13.540   0.835 -0.0568 -0.1929  0.0083
 7598W        W21012  11.213   9.821   4.961  0.0133 -0.0447 -0.3252
 7599W        W21013   1.246  12.277   2.482  0.0402  0.3069  0.0391
 7600W        W21014  16.679  15.548   3.662  0.1003  0.1521 -0.0910
 7601W        W21015  10.688   8.563   2.724  0.1257  0.0887  0.0430
 7602W        W21016   0.059  17.447  16.585  0.0747  0.0234  0.1392
 7603W        W21017   5.965   5.289  11.505  0.0046  0.2155 -0.1361
 7604W        W21018   9.692   4.739  13.686 -0.1696  0.0329  0.0541
 7605W        W21019   8.278   7.389   2.745  0.1730 -0.3647  0.1633
 7606W        W21020  13.042  16.069   4.564  0.1466 -0.2708  0.0482
 7607W        W21021  11.923   7.808  13.436  0.0566 -0.0019 -0.0316
 7608W        W21022  15.145  10.247  15.461 -0.1004 -0.4950 -0.2885
 7609W        W21023   3.904   2.674   1.245  0.2094 -0.4021 -0.0568
 7610W        W21024   7.699  15.380  14.374  0.1812  0.0297  0.2754
 7611W        W21025  17.752   0.473  13.179  0.0648  0.0868  0.1934
 7612W        W21026   9.855   7.191  13.429 -0.0476 -0.0153  0.0034
 7613W        W21027   3.820   7.185  14.297  0.2267 -0.0956 -0.0195
 7614W        W21028   3.011   9.476   2.234  0.2943  0.0421 -0.2845
 7615W        W21029  10.599  11.557   3.091 -0.1618  0.1248  0.3082
 7616W        W21030  15.386  11.472  13.582 -0.2040  0.1277  0.2015
 7617W        W21031  12.315  11.840   3.595  0.2646 -0.0198 -0.0347
 7618W        W21032   7.212   9.878  12.046  0.0220 -0.0934 -0.2436
 7619W        W21033  14.645   9.022  14.120  0.2475 -0.1040  0.0657
 7620W        W21034   8.443   3.253  10.605 -0.0833 -0.1939  0.0713
 7621W        W21035   8.822   6.201  14.684  0.0256  0.1202 -0.1692
 7622W        W21036  12.706  17.111  15.079 -0.1005 -0.1904 -0.1493
 7623W        W21037   9.149   3.836   4.118 -0.0120  0.2780  0.0196
 7624W        W21038  16.935   6.469  15.250 -0.1514 -0.3688 -0.0444
 7625W        W21039  15.013  12.484  12.624 -0.0737  0.0559 -0.0044
 7626W        W21040  10.022  14.960   5.384  0.1571  0.0982  0.1964
 7627W        W21041  17.616   3.111  15.275 -0.1193  0.4236 -0.0555
 7628W        W21042   1.279  12.616  11.399 -0.0907 -0.0368  0.1134
 7629W        W21043   8.036  17.054   1.322  0.0549 -0.0491 -0.0612
 7630W        W21044   5.037  10.759   0.037  0.0420 -0.0765  0.2278
 7631W        W21045  17.278   6.864   5.782 -0.1859  0.1936  0.1126
 7632W        W21046   6.252  15.228  14.151 -0.0480  0.1051 -0.0170
 7633W        W21047  17.399  17.871  13.325 -0.3119  0.0699  0.2825
 7634W        W21048  17.165  13.773   1.265  0.0096 -0.2456  0.1475
 7635W        W21049   9.124   9.513   0.231  0.1342 -0.1321  0.2837
 7636W        W21050   3.101   2.228   4.267 -0.0915  0.0524 -0.2096
 7637W        W21051   8.627  16.668   6.207 -0.1366 -0.1550 -0.1107
 7638W        W21052   2.557  10.051   3.360  0.0752  0.0511 -0.1282
 7639W        W21053  11.400  18.007   2.066  0.0285  0.2229  0.2921
 7640W        W21054   5.610   7.716  11.450  0.2111  0.2342 -0.1386
 7641W        W21055  10.085  11.293  11.651 -0.1975 -0.1473  0.0242
 7642W        W21056   8.954  14.286   4.626 -0.3711  0.0251  0.0364
 7643W        W21057  13.916   6.082  11.893 -0.0382  0.5154  0.0510
 7644W        W21058   8.403   0.102   2.703 -0.1632 -0.1802  0.0225
 7645W        W21059   2.616   4.466  13.440  0.2085  0.3647 -0.1165
 7646W        W21060   0.493   7.814  15.698 -0.1882  0.1178  0.0550
 7647W        W21061  13.080   9.504   3.332  0.1803 -0.0230 -0.2497
 7648W        W21062   2.247  15.840  14.572 -0.2405  0.1531  0.0223
 7649W        W21063   0.261   7.873   0.836 -0.2427 -0.0233 -0.0498
 7650W        W21064   4.583  15.656  15.013 -0.1413  0.1059 -0.0693
 7651W        W21065  15.023   1.935   5.606 -0.0771 -0.0357 -0.1384
 7652W        W21066  10.240   8.749   2.426  0.0830  0.1505 -0.2206
 7653W        W21067  12.485   8.530   5.106  0.1238  0.1796  0.1923
 7654W        W21068  14.898  10.423   2.850  0.1007 -0.0634  0.2463
 7655W        W21069   0.157   8.370  16.156  0.0606 -0.2727 -0.2805
 7656W        W21070  15.885   2.448   5.765  0.1054  0.1183  0.1085
 7657W        W21071  13.993  14.690   3.783 -0.2240 -0.2648 -0.1212
 7658W        W21072   8.575   2.510  12.471  0.0794 -0.0643  0.1255
 7659W        W21073   2.267   8.060   4.257  0.0624  0.2226 -0.0599
 7660W        W21074   7.380   8.281  13.802 -0.4516 -0.2237  0.1551
 7661W        W21075   2.517   5.519   4.318  0.0965 -0.0387 -0.0175
 7662W        W21076  13.334   9.581   5.422 -0.2249 -0.1866 -0.0478
 7663W        W21077   4.399   5.498  15.682  0.1176 -0.0214  0.2234
 7664W        W21078   0.657  10.067  12.069 -0.3151 -0.2251 -0.1050
 7665W        W21079   1.368   7.118   6.483  0.0870  0.0447 -0.1560
 7666W        W21080  10.508  13.505  11.992 -0.2835 -0.2087  0.1007
 7667W        W21081  14.260  13.427  15.303 -0.0456  0.3646  0.0478
 7668W        W21082   8.052  11.968  14.965 -0.0872 -0.2951 -0.1482
 7669W        W21083   4.815   2.040  15.976 -0.0281  0.3169  0.1235
 7670W        W21084   8.749  12.036   4.500 -0.0769  0.4758  0.0827
 7671W        W21085   3.565   4.121   5.963  0.0165 -0.3157 -0.2606
 7672W        W21086  12.185   6.207   5.518  0.0019  0.1495 -0.0003
 7673W        W21087  13.085  17.713   1.366 -0.1845  0.3624  0.0685
 7674W        W21088  10.748  10.250  15.917  0.0626 -0.0495 -0.1974
 7675W        W21089  10.548   4.692  14.084  0.1451  0.0924  0.1481
 7676W        W21090   7.852   9.927   1.200  0.0551  0.2488 -0.0500
 7677W        W21091   0.424   0.010  14.995 -0.1509  0.1650 -0.1013
 7678W        W21092  15.393  10.508  14.226 -0.2819 -0.4029  0.3437
 7679W        W21093   9.679   1.714  11.540 -0.1130 -0.2024 -0.2374
 7680W        W21094  17.094   8.324   5.425 -0.1681  0.0308  0.1774
 7681W        W21095   4.339   8.694  11.210  0.1410  0.1237 -0.3146
 7682W        W21096  12.648   9.335  10.965  0.1178  0.2716  0.0089
 7683W        W21097   8.354  12.720  15.492  0.1014 -0.2285 -0.1737
 7684W        W21098  14.715   3.663   2.767 -0.0746 -0.3234  0.2323
 7685W        W21099   4.745  10.301  14.298 -0.0887  0.0529 -0.4386
 7686W        W21100  10.848  16.692  13.698  0.1542 -0.2301  0.1602
 7687W        W21101   3.179  11.858  12.124 -0.2022  0.0985  0.2215
 7688W        W21102   4.258  13.978  11.404 -0.1584  0.0097 -0.1811
 7689W        W21103   0.463  12.833  10.814  0.2054 -0.0192  0.0510
 7690W        W21104  14.657   9.732   4.362  0.2036  0.0267 -0.3961
 7691W        W21105   8.100  14.623   2.035  0.0145  0.0944 -0.1894
 7692W        W21106  13.340  10.498   3.146 -0.0347  0.0585  0.0951
 7693W        W21107   9.178  17.397  13.906  0.2218 -0.0859  0.0362
 7694W        W21108  10.782  13.207   2.382  0.0059 -0.0857  0.1363
 7695W        W21109  14.336  15.221  11.252  0.0341 -0.1292  0.2153
 7696W        W21110   2.065  10.096  13.004  0.1927 -0.3399 -0.0985
 7697W        W21111  10.535   5.119  15.051  0.4856 -0.2233  0.0038
 7698W        W21112   7.063  16.591  11.280 -0.1010  0.0438 -0.0361
 7699W        W21113   4.238   6.669  16.602 -0.1008  0.2295 -0.3404
 7700W        W21114  10.274  12.382   1.625  0.1557  0.2456 -0.1577
 7701W        W21115  16.157   1.069   4.548 -0.1062 -0.4146 -0.0467
 7702W        W21116  13.824  14.960  14.340 -0.2497 -0.2068 -0.0119
 7703W        W21117   9.423   8.066  13.460 -0.0860  0.2678 -0.0909
 7704W        W21118   6.885   7.564  10.113  0.2747  0.1774  0.0908
 7705W        W21119  15.428  17.325   2.395  0.0762 -0.2993  0.0326
 7706W        W21120  17.546   2.087   5.880 -0.1720  0.0196  0.2831
 7707W        W21121   7.305   7.965   2.201  0.1681  0.2315  0.0724
 7708W        W21122  15.275   8.896  12.523  0.0569 -0.3255  0.0889
 7709W        W21123   6.187   0.816   1.953  0.2963 -0.2279 -0.2825
 7710W        W21124  13.975  17.983  14.880 -0.0900  0.0345 -0.1799
 7711W        W21125   1.987  11.765   3.450  0.0638  0.1692 -0.0472
 7712W        W21126  11.134   6.383  16.596 -0.2674 -0.2678  0.0174
 7713W        W21127   8.554   4.231   2.407  0.2494  0.3678 -0.2795
 7714W        W21128   4.521   5.306  13.214 -0.1362 -0.3417  0.0849
 7715W        W21129   5.523   9.309  11.410  0.2056 -0.0136  0.0225
 7716W        W21130  10.804   5.077   4.925 -0.0435 -0.1142 -0.1343
 7717W        W21131   7.533  14.096   2.205 -0.2067 -0.0104 -0.2500
 7718W        W21132   2.962  13.611  10.031  0.2698 -0.0141  0.0986
 7719W        W21133  12.881  13.547  15.142  0.0772  0.2188 -0.0407
 7720W        W21134   7.250  11.239   4.743  0.1581  0.0908 -0.0689
 7721W        W21135  15.531  14.751  15.271  0.1154 -0.3734 -0.2389
 7722W        W21136   3.317  11.763   4.320  0.2347  0.0743 -0.1086
 7723W        W21137  11.474  11.724  13.401  0.2996 -0.2423  0.0449
 7724W        W21138  15.976  14.774  10.974  0.2985  0.0123  0.1024
 7725W        W21139   9.821   8.399   2.584 -0.3171  0.2201  0.3486
 7726W        W21140  15.117   3.295   3.621  0.0403  0.1305  0.2587
 7727W        W21141   5.372   3.443  16.422  0.1125  0.2696 -0.1138
 7728W        W21142  16.017   1.173  16.425 -0.0059  0.2526  0.0766
 7729W        W21143  10.764  15.620   2.524  0.0065 -0.0034  0.0762
 7730W        W21144  16.847  16.277  10.604 -0.2404  0.0143 -0.1177
 7731W        W21145   4.917  16.497  16.638 -0.2906 -0.0477  0.0219
 7732W        W21146   4.296   7.591   3.853  0.3193  0.1220 -0.0630
 7733W        W21147  12.492  13.016   5.012  0.3416 -0.2008 -0.0231
 7734W        W21148   9.138  15.125   3.144 -0.2369 -0.0361 -0.0498
 7735W        W21149   4.707  14.514   4.914 -0.0983  0.2214  0.1283
 7736W        W21150   8.809  15.763  12.626  0.0489 -0.0108  0.4774
 7737W        W21151   3.036  17.040   5.723 -0.0658 -0.0529  0.2224
 7738W        W21152   4.739   1.714  11.208 -0.1039 -0.0425  0.0759
 7739W        W21153   6.297   3.954  11.109 -0.3256 -0.1214  0.3557
 7740W        W21154   3.170   9.241  12.765 -0.2781 -0.2202  0.2509
 7741W        W21155   9.729  10.811  10.645 -0.0292  0.1021 -0.1810
 7742W        W21156  14.195   3.433  11.951  0.0912  0.2862  0.2073
 7743W        W21157   0.232   0.153  13.992 -0.0306  0.1176 -0.1625
 7744W        W21158  17.579   4.896  10.784 -0.1582  0.1675  0.2150
 7745W        W21159   5.507  15.663  14.952 -0.0996  0.1242  0.1754
 7746W        W21160  11.119   2.948  12.833  0.0166 -0.0344 -0.0740
 7747W        W21161   4.302   8.074   2.074 -0.1281  0.1003  0.5055
 7748W        W21162  15.503   8.972   1.598 -0.2927 -0.1448  0.2947
 7749W        W21163  16.370  14.435   4.377 -0.0962 -0.1313 -0.0354
 7750W        W21164  16.677  15.433   6.208  0.2361  0.1250 -0.0327
 7751W        W21165  17.885   0.940  14.195 -0.2427  0.3256  0.0506
 7752W        W21166   3.008   9.271  12.275  0.0383  0.1008  0.0923
 7753W        W21167   5.466  14.268  15.849  0.0121  0.1462 -0.0955
 7754W        W21168   0.205   1.861  13.422 -0.0734  0.1151 -0.1400
 7755W        W21169  12.590   3.552   2.836 -0.3303  0.0299  0.1186
 7756W        W21170   8.888   0.254   5.192  0.0563 -0.1127  0.1760
 7757W        W21171  13.390   3.913   5.217  0.0969  0.0124 -0.0007
 7758W        W21172  15.531  11.500   0.736 -0.2153 -0.1703  0.1407
 7759W        W21173  16.810   3.501  14.115 -0.0658 -0.1285 -0.2007
 7760W        W21174   6.748   3.797  15.625 -0.1041  0.3537  0.2670
 7761W        W21175   0.509  12.314  10.173 -0.1949  0.0967  0.0691
 7762W        W21176   2.812  10.046   1.545 -0.0913  0.0128 -0.1304
 7763W        W21177  14.229  16.394  16.496  0.1334 -0.0884 -0.3223
 7764W        W21178   1.661  13.000  13.384 -0.0091  0.0280 -0.1638
 7765W        W21179  11.463   4.714  12.738  0.1501  0.2178  0.1685
 7766W        W21180   3.288  17.044   6.146  0.0383 -0.0178 -0.0186
 7767W        W21181   3.500   7.891  13.109  0.2698 -0.0049 -0.0818
 7768W        W21182  10.759  18.043  11.116 -0.0666  0.0407  0.1758
 7769W        W21183   3.645   1.130   0.928  0.3061 -0.0455  0.1046
 7770W        W21184  15.465  10.812  12.951  0.1863 -0.1486 -0.2470
 7771W        W21185   7.417   4.898  16.398 -0.2277 -0.2087  0.0981
 7772W        W21186   9.207   9.081   4.267 -0.0888 -0.0599  0.4194
 7773W        W21187  16.919  17.459   5.176 -0.0725 -0.0667 -0.0374
 7774W        W21188   7.386   0.834  12.403 -0.0100  0.0799 -0.1137
 7775W        W21189   5.502  10.136  13.616 -0.0425 -0.2093 -0.0566
 7776W        W21190   4.236  12.286  12.426 -0.0082 -0.0311 -0.1656
 7777W        W21191  10.548   9.786  15.889 -0.2939  0.1933 -0.0608
 7778W        W21192   5.315   7.058   5.661 -0.1542 -0.1134  0.0194
 7779W        W21193   2.947   4.352  16.004 -0.2454 -0.1386 -0.0087
 7780W        W21194  11.450   8.829  11.503 -0.0476  0.0281  0.2776
 7781W        W21195  17.725  14.456   5.871  0.1322 -0.1767 -0.0044
 7782W        W21196   0.955   9.411  12.586 -0.0795 -0.1525 -0.1405
 7783W        W21197   0.287  11.710   2.747  0.0963  0.0871 -0.0437
 7784W        W21198  11.424  18.049  11.863  0.0398  0.1003 -0.1324
 7785W        W21199   9.828   6.575   3.763 -0.1408  0.0337 -0.1172
 7786W        W21200   8.430  16.607   5.225 -0.2760  0.0576  0.1449
 7787W        W21201   9.613  13.970  10.969  0.0591 -0.1383 -0.3294
 7788W        W21202   6.811  15.348   0.609 -0.1451 -0.0268 -0.0219
 7789W        W21203  13.801  14.879  12.895  0.2335 -0.0291 -0.0508
 7790W        W21204   9.375   1.436   0.750 -0.0547  0.1132  0.3996
 7791W        W21205  11.269  13.641  10.799 -0.0115  0.2657 -0.2181
 7792W        W21206  10.644   4.206  16.056  0.0993 -0.0809 -0.0988
 7793W        W21207   3.645  14.725   5.922 -0.1222 -0.2789 -0.0936
 7794W        W21208   5.126   8.174  13.388 -0.0891  0.3081  0.0989
 7795W        W21209   3.058   6.781   4.257 -0.0260 -0.0004  0.1252
 7796W        W21210   8.178   8.115  13.274  0.2791 -0.0124 -0.0444
 7797W        W21211   8.301   8.718   4.935 -0.1183 -0.0790  0.0488
 7798W        W21212  10.880   7.487  16.256  0.1596 -0.1483  0.1619
 7799W        W21213   0.131   7.509  15.804 -0.2443  0.1411 -0.1152
 7800W        W21214   9.009   6.697   5.277  0.2785  0.0865  0.1495
 7801W        W21215  14.681   6.521   0.581  0.0765  0.0813 -0.0224
 7802W        W21216  13.692  15.888  10.727  0.0166  0.4465 -0.1066
 7803W        W21217  11.793  12.056   6.124  0.1260 -0.1045  0.0151
 7804W        W21218   5.814   2.119  13.767  0.0741 -0.1504  0.0026
 7805W        W21219  12.577   2.882   4.343 -0.2439 -0.1185  0.3071
 7806W        W21220  15.060   3.456  13.069  0.1409 -0.0630  0.0311
 7807W        W21221   5.484   8.837  11.261  0.2152  0.3353  0.2204
 7808W        W21222  13.217   9.757   4.920  0.1379 -0.1757 -0.1748
 7809W        W21223   0.822  14.615  10.964  0.1602 -0.0988 -0.2397
 7810W        W21224   7.092   3.186  12.931  0.1676  0.2258 -0.1839
 7811W        W21225   5.010   2.800  13.318  0.1014 -0.0897 -0.0840
 7812W        W21226   3.512   7.383   1.107 -0.0514 -0.0887 -0.1340
 7813W        W21227   2.703  15.925   2.504 -0.0615 -0.0624  0.0703
 7814W        W21228  10.132   5.234   2.942 -0.2817 -0.0884  0.2519
 7815W        W21229  13.974  14.039  13.572  0.1763 -0.1134  0.1306
 7816W        W21230  13.728   5.525  15.044  0.1138 -0.1144  0.1616
 7817W        W21231  16.203   2.875   4.015 -0.0199 -0.1566  0.1371
 7818W        W21232   1.480  16.224   3.137 -0.0724 -0.1503 -0.1384
 7819W        W21233   5.725   9.923  14.734  0.1189  0.1669  0.0824
 7820W        W21234   1.521  10.729  14.686 -0.2835  0.0965 -0.0449
 7821W        W21235  15.540  12.823  12.916 -0.0606  0.1062 -0.2498
 7822W        W21236  13.777   6.296   1.488  0.0623 -0.0545  0.1538
 7823W        W21237   9.369   5.044  10.595  0.0427  0.1448  0.3295
 7824W        W21238   5.277  14.396   1.791 -0.0734  0.1811  0.3229
 7825W        W21239  10.577   4.400  14.484  0.0634  0.2225 -0.0006
 7826W        W21240   8.789  15.873   3.530 -0.1225  0.1206 -0.0701
 7827W        W21241   2.336  12.441  15.795 -0.0615 -0.1569  0.1138
 7828W        W21242   1.766  17.005   1.522  0.0361  0.0410  0.3571
 7829W        W21243   5.415  17.454  13.892  0.0769  0.0280  0.3668
 7830W        W21244  14.363   8.484   6.212 -0.1525  0.0699  0.0091
 7831W        W21245   1.227   8.330  16.065 -0.0461 -0.0091 -0.0015
 7832W        W21246   2.808   9.836   4.185 -0.0261  0.0948 -0.1184
 7833W        W21247   7.254  14.196  12.691 -0.0034 -0.0316 -0.2279
 7834W        W21248   4.819   9.521   1.012 -0.0662 -0.0851  0.0913
 7835W        W21249   6.529   7.717   5.485  0.0849  0.2997 -0.0072
 7836W        W21250   3.212   3.085  14.948  0.0792  0.1429 -0.1328
 7837W        W21251   0.248  14.320   3.967  0.0896 -0.2032  0.0412
 7838W        W21252   5.051  11.657   2.047  0.1831  0.1999  0.1670
 7839W        W21253   2.958  13.153   0.095 -0.0454 -0.0754 -0.1536
 7840W        W21254  11.379   1.808   5.747  0.1044  0.0612  0.0836
 7841W        W21255   2.266   9.427   5.355  0.2198 -0.1558  0.0531
 7842W        W21256  13.449   8.116   0.120 -0.0330  0.0964 -0.0024
 7843W        W21257   3.119  14.183  14.047 -0.3368  0.0013 -0.0005
 7844W        W21258   1.818   0.917   3.654 -0.3928  0.3133 -0.0632
 7845W        W21259   5.892  15.452  11.844 -0.1419 -0.1571  0.0922
 7846W        W21260   7.221  12.829   3.146 -0.1556  0.1880 -0.1021
 7847W        W21261   1.266   6.818  15.118 -0.2129 -0.0989 -0.0329
 7848W        W21262   5.966   7.016  14.744  0.1442  0.1383  0.3341
 7849W        W21263   2.306   4.390  14.891 -0.2705  0.0195 -0.1367
 7850W        W21264   1.703  12.281  13.932  0.0584 -0.2089  0.2374
 7851W        W21265   2.169  15.306  15.998  0.0052  0.0293  0.0966
 7852W        W21266   6.876  13.527  11.115 -0.0137 -0.3134  0.0191
 7853W        W21267   2.236  13.896   1.236 -0.0068  0.2212 -0.2780
 7854W        W21268  12.973  17.725   4.425 -0.3289  0.0144 -0.0344
 7855W        W21269  10.809  11.594  11.253 -0.2127  0.1289 -0.3243
 7856W        W21270  12.181  14.316   1.628  0.0367 -0.1663  0.0580
 7857W        W21271  14.779  17.465   0.521  0.3176  0.1763 -0.3472
 7858W        W21272   0.964  14.540   1.564  0.3077  0.1238  0.1637
 7859W        W21273   6.351  11.185   2.281 -0.1179  0.0536 -0.0594
 7860W        W21274  18.054  13.399  11.563  0.1329  0.0836 -0.0811
 7861W        W21275  12.034  12.522   5.856 -0.0295  0.1573 -0.0091
 7862W        W21276   8.032  11.346   5.480 -0.1581 -0.0134  0.1207
 7863W        W21277  15.615   5.880   0.289 -0.0805  0.0615 -0.2097
 7864W        W21278   1.013  17.764  14.141 -0.2494 -0.1870 -0.1509
 7865W        W21279   5.759   9.867  13.182  0.0419 -0.2042 -0.0261
 7866W        W21280   4.468   7.274  14.990  0.1757 -0.3059  0.0588
 7867W        W21281  10.007   7.041  15.799 -0.0200 -0.2240 -0.2220
 7868W        W21282   3.528  15.171   5.645  0.0665  0.0606 -0.0843
 7869W        W21283  14.570  12.100   1.515 -0.0896  0.3613 -0.1342
 7870W        W21284  17.130   3.321   1.384 -0.1793  0.2419 -0.1804
 7871W        W21285  11.928   0.217  12.978 -0.0242  0.0023  0.0545
 7872W        W21286  14.354   7.761  15.978  0.2970 -0.1701  0.1942
 7873W        W21287  16.280   6.986  14.356  0.2608  0.2533  0.0930
 7874W        W21288   9.962  17.310   3.220 -0.4410 -0.1053  0.0068
 7875W        W21289   9.990   7.872   5.231 -0.0307  0.2741  0.1153
 7876W        W21290   0.535  13.307   9.985  0.0081  0.1420 -0.0688
 7877W        W21291  13.558   3.979  16.652  0.1093 -0.1694 -0.0188
 7878W        W21292  10.705   1.100  16.359 -0.0885 -0.2763  0.1309
 7879W        W21293   8.047  13.001   1.429  0.2018  0.2859 -0.1053
 7880W        W21294  17.039   2.114   5.947 -0.1374 -0.0947 -0.0992
 7881W        W21295  12.269  12.694  12.808 -0.1020 -0.0496  0.0634
 7882W        W21296  13.093  12.304   3.164  0.0113 -0.2154 -0.1834
 7883W        W21297   6.931   4.527   2.947 -0.0963 -0.1842  0.2860
 7884W        W21298   3.356  15.803  16.647 -0.1297  0.0900  0.0957
 7885W        W21299   9.917  16.395   5.544 -0.0758  0.1836 -0.2800
 7886W        W21300  17.671   0.159   5.451  0.0361 -0.2074 -0.1157
 7887W        W21301  17.992  16.099   5.788 -0.0774 -0.0101  0.0482
 7888W        W21302   8.593  16.783  15.415  0.0508 -0.0643 -0.0312
 7889W        W21303  14.879   0.154  10.847  0.1732  0.0083  0.1049
 7890W        W21304  11.644  11.698  10.625 -0.0871 -0.0107  0.0965
 7891W        W21305   5.144  13.382   0.246 -0.1544  0.0683  0.3257
 7892W        W21306   2.677  12.647   4.392 -0.1639  0.0247  0.2013
 7893W        W21307  10.746  10.269   5.639  0.1643 -0.0799  0.0407
 7894W        W21308  14.482  11.959   5.621  0.1590 -0.1084 -0.0351
 7895W        W21309  17.369   2.351   6.358  0.2064 -0.1447  0.1425
 7896W        W21310  12.789   4.384   0.386  0.2465 -0.1034 -0.3606
 7897W        W21311   6.822  16.177  14.753 -0.0402  0.1005 -0.0022
 7898W        W21312   6.873  11.304   1.525  0.1984 -0.0878 -0.0833
 7899W        W21313   7.496  11.786   3.156  0.2616 -0.1132  0.1151
 7900W        W21314  12.000  14.691   0.642  0.0743  0.1545 -0.1825
 7901W        W21315   4.296  12.676  13.416 -0.0703 -0.2814  0.0113
 7902W        W21316  13.191  17.828  14.621  0.0081  0.2647 -0.2122
 7903W        W21317   1.279   0.557   0.595  0.0652 -0.1187  0.1283
 7904W        W21318   7.695   0.600   3.773 -0.2038 -0.0343 -0.2226
 7905W        W21319   6.873   9.412  16.442 -0.0327 -0.1275  0.2930
 7906W        W21320  12.431   9.490   1.727  0.0727 -0.4186  0.2708
 7907W        W21321   6.783   9.917  11.707  0.3722  0.1394 -0.2605
 7908W        W21322   2.469   1.931  15.444 -0.2147 -0.1261 -0.2915
 7909W        W21323  13.695   8.477   1.524  0.1909  0.2824  0.3642
 7910W        W21324   6.997   0.995   1.967  0.2205  0.0914 -0.1015
 7911W        W21325  17.095   3.039   0.931 -0.4396 -0.1530  0.1119
 7912W        W21326   9.816   1.167   6.360  0.1510 -0.1192 -0.0109
 7913W        W21327  13.756   8.056   1.951  0.0434 -0.0570  0.0673
 7914W        W21328   1.920   7.618   5.050 -0.3718 -0.2357 -0.1009
 7915W        W21329  12.741  17.540  11.792  0.1084 -0.3394 -0.4379
 7916W        W21330   0.770  15.724  12.341 -0.2665 -0.1461  0.2152
 7917W        W21331   4.908  16.688   4.436 -0.3680  0.2208  0.3338
 7918W        W21332  15.172  16.707   4.377 -0.2072 -0.0592  0.1189
 7919W        W21333   8.992  14.588   2.378  0.2686  0.1718 -0.1298
 7920W        W21334   3.938   6.927   1.101 -0.0380 -0.0665 -0.1995
 7921W        W21335  14.399  15.341   5.683 -0.0795  0.0730  0.1718
 7922W        W21336   7.905  10.326  16.247 -0.1631  0.1628  0.2252
 7923W        W21337  13.643   2.261   5.761  0.3898  0.1152  0.0250
 7924W        W21338   8.785   4.870   0.347  0.0269 -0.0423  0.0416
 7925W        W21339   7.048   7.409   0.596  0.0803  0.2587  0.2276
 7926W        W21340   5.201  10.267  15.822  0.1940 -0.1950  0.0857
 7927W        W21341   4.135  14.945  15.585 -0.1388  0.1095  0.0084
 7928W        W21342   3.102  16.883  15.035  0.2183  0.0755  0.0740
 7929W        W21343  15.649  10.416   0.761  0.1096 -0.3323 -0.2146
 7930W        W21344  16.305  14.347   6.253 -0.2406 -0.1014 -0.1338
 7931W        W21345   1.709  12.161   2.471 -0.3697  0.0861 -0.0173
 7932W        W21346   1.569   5.405  14.735 -0.1735 -0.3445  0.4350
 7933W        W21347   2.666   0.753   3.795  0.1791 -0.0134 -0.3289
 7934W        W21348   0.198  10.670  10.218  0.1898  0.1182 -0.2939
 7935W        W21349   2.688   8.810   1.135 -0.1754 -0.5046  0.2439
 7936W        W21350  13.689   7.715   3.408  0.0246 -0.0224  0.0744
 7937W        W21351  11.332  13.638  16.674  0.0477 -0.0906  0.2591
 7938W        W21352   9.415   7.346   3.603  0.0112 -0.2061  0.2380
 7939W        W21353   1.397  17.252   5.826  0.1758  0.2675 -0.2193
 7940W        W21354  10.385  15.494  13.783 -0.1388 -0.1467 -0.0244
 7941W        W21355  13.157   2.609  14.791  0.1893  0.2858  0.0430
 7942W        W21356  17.747   5.490   2.482  0.0787 -0.0330 -0.0992
 7943W        W21357   1.540  16.359  11.414 -0.0510  0.3093  0.2371
 7944W        W21358  14.845  12.137  13.006 -0.2083  0.4151 -0.1126
 7945W        W21359  15.900  17.585   2.181 -0.1479  0.1828  0.0607
 7946W        W21360   7.282   7.495  14.725 -0.0150 -0.2311  0.4533
 7947W        W21361   5.417  14.357   1.185  0.0236 -0.0352  0.0777
 7948W        W21362   4.117   6.702   5.270 -0.0165 -0.2623  0.1722
 7949W        W21363  13.682  12.562  12.014 -0.3478  0.1037  0.0451
 7950W        W21364  17.243   0.467  14.813 -0.3044  0.0977 -0.0130
 7951W        W21365  13.548  11.916   3.938 -0.2643  0.2790  0.0433
 7952W        W21366   2.501   9.815  12.854  0.1482  0.0849 -0.0370
 7953W        W21367  12.880   0.605   2.844  0.1168  0.0952 -0.1877
 7954W        W21368   2.705   2.542  11.260  0.0618  0.3841  0.0152
 7955W        W21369   5.315   9.486   0.749 -0.0362 -0.0780  0.0048
 7956W        W21370   0.677   7.206  12.571 -0.3248 -0.0884  0.2535
 7957W        W21371  17.182   6.888   7.227  0.2790 -0.2034  0.2367
 7958W        W21372   6.746  10.024   0.971  0.5541 -0.2772 -0.2408
 7959W        W21373   5.779   2.570   5.930  0.2132 -0.2828 -0.0028
 7960W        W21374   2.542  16.412  15.685 -0.1604 -0.1739 -0.1366
 7961W        W21375   7.535   0.596   6.221  0.0240 -0.0061  0.1829
 7962W        W21376   1.061   6.678  14.690 -0.0535  0.0062  0.0079
 7963W        W21377   5.868  16.374   4.193  0.1632 -0.1179  0.1833
 7964W        W21378  16.628   2.457  13.194 -0.3439  0.1125  0.1462
 7965W        W21379  11.643  10.679   5.373 -0.3498  0.0733  0.0893
 7966W        W21380  15.657  16.905   0.430  0.0318 -0.2687 -0.0697
 7967W        W21381   0.705  13.192  14.256  0.2162  0.0365  0.1502
 7968W        W21382   8.239   6.627   4.115  0.0713  0.0496  0.0472
 7969W        W21383  14.256   6.076  14.411  0.2189 -0.0837  0.0399
 7970W        W21384  10.085   9.605   6.008  0.0678 -0.0671 -0.1180
 7971W        W21385   8.674   4.948   3.145  0.1539 -0.2558  0.2548
 7972W        W21386  13.801   1.539  12.068 -0.1141  0.2208 -0.1978
 7973W        W21387  15.107   9.916   1.702  0.0453 -0.0391 -0.0699
 7974W        W21388   6.193   5.903  15.728 -0.0447 -0.0456 -0.3117
 7975W        W21389   5.168  10.928   0.527  0.0314 -0.0773  0.1081
 7976W        W21390   2.592  14.643  11.529 -0.0691  0.2758 -0.0416
 7977W        W21391   3.920  17.503   3.994 -0.1861 -0.1887 -0.1460
 7978W        W21392  16.747   9.562   4.085 -0.0148  0.2371  0.1452
 7979W        W21393  10.153   8.836   5.332 -0.1049  0.0024  0.1041
 7980W        W21394   1.737  17.719  13.949 -0.1166  0.0482 -0.3982
 7981W        W21395  15.001   7.154   4.524  0.0419 -0.1047  0.0987
 7982W        W21396  12.230  15.537   0.167  0.0779  0.0730 -0.0404
 7983W        W21397  12.463   2.050  15.746  0.1215 -0.2554 -0.2988
 7984W        W21398  15.677  13.653  13.774  0.2001  0.1564 -0.2380
 7985W        W21399   0.021  16.653   4.774 -0.1069 -0.1425  0.0021
 7986W        W21400   9.865   3.369   3.500 -0.4167  0.1805  0.0974
 7987W        W21401   5.175   8.439  16.508 -0.1390  0.0050  0.2429
 7988W        W21402  11.079   6.599  15.761  0.0698  0.0315 -0.0401
 7989W        W21403   7.544  14.575  13.870 -0.0566 -0.1560  0.0159
 7990W        W21404   9.777   5.066   0.534 -0.0764  0.3670  0.1780
 7991W        W21405  14.113  16.672   5.022  0.1018 -0.0634  0.1425
 7992W        W21406   5.219   9.640   0.231  0.1526 -0.1814  0.0552
 7993W        W21407   3.630   4.755   5.225  0.0768 -0.2174 -0.2364
 7994W        W21408   8.565  17.316   0.572 -0.0628  0.1967  0.0287
 7995W        W21409   6.640   6.892   0.403 -0.2798 -0.0349 -0.2683
 7996W        W21410   6.382   4.733   0.576  0.2065  0.1997  0.2064
 7997W        W21411   1.181  11.829   5.336 -0.0768  0.1436  0.0693
 7998W        W21412   5.755   4.448  11.144 -0.1949  0.2273  0.1148
 7999W        W21413  11.372  10.211  11.695 -0.0157 -0.0525 -0.0468
 8000W        W21414   5.264  13.799  15.344 -0.1736  0.0264  0.3247
 8001W        W21415   3.566  15.964  10.959 -0.1201  0.2293 -0.0178
 8002W        W21416   1.812  16.512   2.847  0.1404  0.0733 -0.2400
 8003W        W21417   8.563   9.604   3.398  0.1061  0.1126 -0.2666
 8004W        W21418  11.599   0.247   4.744 -0.0123 -0.3379 -0.2822
 8005W        W21419  16.647   2.131   3.581 -0.0150  0.0128  0.2123
 8006W        W21420   4.577   7.451   4.757 -0.1143  0.0999  0.1770
 8007W        W21421   7.245   8.925  14.198 -0.2483 -0.2888 -0.3137
 8008W        W21422  13.008   8.249   3.043 -0.2304  0.0379 -0.3640
 8009W        W21423   7.724   5.598  10.779  0.2276  0.0613  0.0268
 8010W        W21424  14.222   8.182   5.181 -0.1675  0.1791  0.1011
 8011W        W21425   2.521   4.745  15.965  0.0321 -0.0891 -0.3192
 8012W        W21426  10.471  12.397   4.779 -0.0596  0.0561  0.3003
 8013W        W21427   2.884   2.742   4.479 -0.0553 -0.0133 -0.0312
 8014W        W21428  14.040  11.998   2.867  0.2208  0.1471  0.0625
 8015W        W21429   0.037   9.912  15.802 -0.0421  0.1685  0.1770
 8016W        W21430   6.389   2.659   1.180 -0.1917  0.0539 -0.1492
 8017W        W21431  10.487   9.768   1.067 -0.3846 -0.1868  0.3566
 8018W        W21432  16.105  12.328  15.778  0.2196  0.0003 -0.2142
 8019W        W21433  14.081   3.916  16.454  0.3043 -0.3393  0.0757
 8020W        W21434  16.837  10.563   0.212  0.3132  0.0360  0.0510
 8021W        W21435   0.136   9.505   6.129  0.1738 -0.1029 -0.0911
 8022W        W21436  13.073   8.333  16.085 -0.0816  0.3136 -0.0731
 8023W        W21437   7.707   6.274   4.419 -0.1216 -0.0660  0.1743
 8024W        W21438  15.541  10.985  13.504 -0.0283 -0.1557 -0.2548
 8025W        W21439   1.125  13.619  13.280 -0.1275 -0.1324  0.2206
 8026W        W21440  10.549   6.391   3.380  0.3287 -0.0071 -0.1155
 8027W        W21441   9.215   2.777   3.512  0.0982  0.1621  0.1731
 8028W        W21442   6.251   0.646  10.905  0.1940 -0.0694  0.5479
 8029W        W21443   9.346  13.315   2.245  0.2321  0.1286  0.3205
 8030W        W21444  12.591   1.291   1.278 -0.0061  0.1680 -0.3598
 8031W        W21445   4.650   9.237   5.708 -0.0068 -0.0894 -0.1357
 8032W        W21446  11.468  10.670  12.984  0.0709 -0.0470  0.0239
 8033W        W21447  14.563  16.152  12.057 -0.0996  0.0684 -0.0489
 8034W        W21448   0.942   4.003   4.076  0.2817 -0.1408  0.1419
 8035W        W21449   5.632   4.569   2.868 -0.0436  0.0157  0.0323
 8036W        W21450  11.649  12.592   4.086  0.1719 -0.0362  0.2215
 8037W        W21451   1.663  10.827   3.798  0.5082 -0.3010  0.1688
 8038W        W21452  17.334  11.583   2.938  0.1186 -0.1121 -0.2169
 8039W        W21453   1.863   0.923   4.968  0.1842  0.1681 -0.0129
 8040W        W21454  14.189   0.885   5.881 -0.1447 -0.0609 -0.1406
 8041W        W21455   7.275   4.363   3.324 -0.0213  0.0657  0.0674
 8042W        W21456  15.467   1.414  15.106 -0.2437  0.3303 -0.1112
 8043W        W21457  14.906  16.311  10.723  0.2280 -0.1551 -0.0824
 8044W        W21458  14.851  15.365  15.320 -0.1254  0.2315  0.2314
 8045W        W21459  12.727  12.112  14.939  0.2260  0.1593  0.0846
 8046W        W21460   2.898  14.868   4.104  0.1092  0.2099  0.0734
 8047W        W21461  13.720   2.105  13.403  0.0624  0.0821  0.0100
 8048W        W21462   6.332  13.822  13.915  0.0527 -0.1534 -0.0047
 8049W        W21463  11.118   7.209  10.540 -0.2719  0.0701  0.0072
 8050W        W21464  16.295   5.168  16.474 -0.0587 -0.2377 -0.2979
 8051W        W21465   4.562   3.791   6.830  0.2345  0.1235  0.0651
 8052W        W21466   2.142  16.690  16.472  0.0831 -0.1689  0.0831
 8053W        W21467   6.380   1.182   1.530  0.0059  0.0649  0.2420
 8054W        W21468   3.066   5.849   3.303 -0.0773  0.1298 -0.1974
 8055W        W21469   2.186   1.736  16.211  0.0095 -0.0390 -0.0532
 8056W        W21470  12.916   5.425   0.938  0.0382  0.0795  0.0134
 8057W        W21471   3.336  17.093   4.466  0.1860  0.1152  0.1569
 8058W        W21472   8.314   4.201  14.737  0.2683 -0.2043  0.2219
 8059W        W21473   6.197   8.987  13.150 -0.0412 -0.1320 -0.4611
 8060W        W21474   2.815   7.087   3.361 -0.0098 -0.2828 -0.0438
 8061W        W21475   4.892  14.889  12.167 -0.1428  0.0350 -0.0256
 8062W        W21476   3.683   0.354  13.726 -0.0695  0.0463 -0.0161
 8063W        W21477   2.867  12.864   5.274  0.1512  0.0695 -0.1743
 8064W        W21478   6.549   5.769   1.683  0.1043  0.0527 -0.1847
 8065W        W21479   9.966  17.077  10.009  0.1500 -0.1107  0.2430
 8066W        W21480  10.376  16.886   9.725  0.5705  0.1422 -0.0931
 8067W        W21481   2.664   4.343   5.051 -0.0596 -0.2708 -0.1991
 8068W        W21482  16.197   1.728   1.062 -0.3229  0.2813 -0.0823
 8069W        W21483  16.311   8.179   6.704  0.0945  0.2443 -0.1135
 8070W        W21484   0.065  17.639  14.859 -0.2608 -0.0445 -0.0391
 8071W        W21485  16.062   6.939  16.417 -0.0515  0.1708  0.0045
 8072W        W21486  17.231   8.893   6.078  0.0758 -0.0650  0.3741
 8073W        W21487  10.394   6.515   3.862  0.3826  0.0778 -0.0600
 8074W        W21488  16.166   2.807   6.545  0.2487  0.1190  0.0143
 8075W        W21489   8.172  11.435  13.703 -0.1659 -0.0580 -0.0262
 8076W        W21490  15.969  15.173  10.595 -0.0686  0.0650 -0.0871
 8077W        W21491   7.359  14.587   0.593 -0.0593 -0.1653 -0.0689
 8078W        W21492   4.759  16.560   1.234 -0.0827  0.1562 -0.0625
 8079W        W21493   5.271   3.026   0.087  0.1016 -0.0954  0.2027
 8080W        W21494  16.363  11.848  15.537 -0.0834 -0.1851 -0.1346
 8081W        W21495   9.598  12.983   0.058 -0.0213  0.1594  0.0088
 8082W        W21496   2.351  11.242  13.656  0.3091  0.1744  0.1151
 8083W        W21497   3.183   7.702  14.656  0.2964  0.2717 -0.2276
 8084W        W21498   6.511   0.412   0.327 -0.2111 -0.1914 -0.2469
 8085W        W21499   7.669  17.622   0.705 -0.2154  0.2456  0.1272
 8086W        W21500  12.424   1.188   4.055 -0.1470  0.3434 -0.1787
 8087W        W21501  15.740   1.899  16.019  0.0930  0.1091  0.0548
 8088W        W21502   2.651  15.908  14.247 -0.0993  0.1521  0.2474
 8089W        W21503  12.979   4.311   3.714 -0.0191  0.3102 -0.0741
 8090W        W21504  17.741  13.034   0.113 -0.0348 -0.0943  0.0020
 8091W        W21505  16.385   3.637   0.053 -0.1530 -0.0399 -0.0468
 8092W        W21506   1.872  15.425  15.649  0.0832 -0.0189 -0.0390
 8093W        W21507  12.512   4.516   1.360 -0.4081 -0.0807  0.0629
 8094W        W21508   7.347  17.470   5.257  0.0188 -0.0900  0.2374
 8095W        W21509   5.806   7.614  13.502 -0.3413  0.1514 -0.2478
 8096W        W21510  16.579   7.884   2.320 -0.1323  0.1480  0.1980
 8097W        W21511   3.658   8.876   2.166 -0.1039 -0.4766 -0.0310
 8098W        W21512   1.464  16.884   3.027 -0.1399  0.0286 -0.0693
 8099W        W21513   9.210  11.510  10.644 -0.1725  0.0039  0.0122
 8100W        W21514   7.865   6.381   1.777 -0.2669 -0.0851  0.0495
 8101W        W21515   9.983   3.645  15.801  0.0659 -0.1841 -0.0603
 8102W        W21516   9.289   1.229   1.606 -0.0283 -0.2411  0.4670
 8103W        W21517   2.948   8.514   0.115  0.2777  0.0323  0.3590
 8104W        W21518  10.788  12.779  12.203 -0.0667  0.0571 -0.0985
 8105W        W21519   5.492   0.048  15.604  0.0942 -0.1241  0.4343
 8106W        W21520   2.154   9.786   1.172  0.1681  0.1125  0.2844
 8107W        W21521   1.216   7.207   4.924  0.1982 -0.0841  0.1057
 8108W        W21522  16.753  16.152   1.176 -0.1030 -0.1150 -0.1873
 8109W        W21523  11.602   9.602  10.617  0.1543  0.0842 -0.0099
 8110W        W21524  12.570  12.819  14.212  0.0921 -0.3887  0.1146
 8111W        W21525  15.676  10.514  15.979  0.0230  0.0633  0.1135
 8112W        W21526  12.100   4.078  15.506 -0.1129  0.0373 -0.0463
 8113W        W21527  14.017  16.375  14.005  0.2406  0.2556 -0.0903
 8114W        W21528  12.155   6.418   4.353 -0.2404  0.2294  0.4286
 8115W        W21529  11.173   0.259   2.615  0.1085  0.3034 -0.0706
 8116W        W21530   6.281   6.092   5.464 -0.3649  0.4439 -0.2397
 8117W        W21531  16.295   9.444   3.693 -0.0939 -0.2619  0.0185
 8118W        W21532  17.913  11.982   3.043 -0.1637 -0.0929  0.1390
 8119W        W21533  11.443   6.490   3.614  0.0795  0.4458 -0.2807
 8120W        W21534   8.759  12.000   1.437  0.0761  0.0362  0.1532
 8121W        W21535   1.031   6.553  13.340  0.0360  0.1684  0.0012
 8122W        W21536  16.117   5.464   5.601  0.1249  0.2103 -0.1869
 8123W        W21537   3.651  13.166   0.701 -0.0860  0.0460  0.2951
 8124W        W21538  15.407   7.483  14.805 -0.3893 -0.1089 -0.0570
 8125W        W21539  10.363  14.347  12.718  0.0500 -0.1858  0.0932
 8126W        W21540   5.570  11.945  11.358 -0.1873  0.1071 -0.1416
 8127W        W21541   4.924  15.964   5.775  0.0966 -0.2883  0.0647
 8128W        W21542   6.126   7.149   1.629 -0.0780 -0.0148  0.0474
 8129W        W21543   7.467   8.057  16.114  0.0683  0.1917 -0.0081
 8130W        W21544  15.400   4.305  13.785  0.2375  0.2697  0.1955
 8131W        W21545   8.861   6.173   0.397  0.2535  0.1037 -0.2362
 8132W        W21546  13.897  16.658  12.319 -0.2076 -0.1024 -0.1429
 8133W        W21547  15.817  13.716   2.542  0.3267 -0.1466  0.3743
 8134W        W21548   9.876  10.318   2.956  0.2192  0.0630  0.4084
 8135W        W21549   3.885  16.987   1.270  0.1352  0.1442 -0.1003
 8136W        W21550   6.708  10.191   1.464  0.0056  0.3988 -0.3125
 8137W        W21551  11.931   6.112   0.462 -0.2588  0.1572  0.1420
 8138W        W21552  17.066   4.446   1.310  0.1053 -0.2694 -0.2473
 8139W        W21553   7.433   3.014   0.983 -0.2299 -0.0390 -0.2059
 8140W        W21554   7.845   8.313   2.226  0.0103  0.0581  0.0100
 8141W        W21555   9.991   4.451   2.731  0.0157  0.1342  0.2880
 8142W        W21556  10.338   4.859   5.917  0.0173  0.0352  0.1992
 8143W        W21557   7.227  13.614  13.461 -0.3522  0.0247 -0.0474
 8144W        W21558  10.602  13.675  15.547 -0.0828  0.0691  0.0824
 8145W        W21559   5.785   1.830  16.471 -0.1899 -0.0991  0.0426
 8146W        W21560   3.982  13.339  15.856  0.0710 -0.0732  0.0920
 8147W        W21561   4.506  16.848   0.046  0.0709  0.0875  0.0494
 8148W        W21562  12.365   3.632  14.127 -0.0877 -0.1986 -0.2526
 8149W        W21563  15.352   2.355   4.011  0.2152 -0.0096 -0.0249
 8150W        W21564  16.731  10.907   5.953 -0.1691 -0.0828  0.0444
 8151W        W21565  10.601   3.032   3.828  0.0244  0.3027 -0.0134
 8152W        W21566   4.457  15.966   6.002  0.2495  0.0690  0.2858
 8153W        W21567  13.428   4.207   6.082 -0.1313  0.2389 -0.0209
 8154W        W21568   7.386  12.223  16.039  0.2729  0.1026 -0.1322
 8155W        W21569   0.051  12.834  12.477 -0.0469 -0.0204 -0.2990
 8156W        W21570   5.785  11.546  13.882 -0.1059  0.1047  0.4259
 8157W        W21571  17.358  16.220   2.280 -0.2559  0.0179  0.1288
 8158W        W21572   6.587   6.354  14.888  0.3184  0.0950  0.1031
 8159W        W21573   7.650   5.286  10.372  0.0939  0.0677 -0.0749
 8160W        W21574   6.201   7.292  15.158 -0.0905 -0.2237 -0.1253
 8161W        W21575  17.300   5.616  11.987  0.0457 -0.1932 -0.1712
 8162W        W21576  17.630  14.015   6.099 -0.2185 -0.1442  0.0751
 8163W        W21577   1.329   7.894  10.921  0.1803  0.0962 -0.1658
 8164W        W21578   4.580   0.660  15.903  0.0185  0.0786 -0.0435
 8165W        W21579   3.172   7.558  14.101 -0.2254  0.1479  0.3113
 8166W        W21580   1.603   0.647   0.949 -0.2396 -0.0217 -0.2060
 8167W        W21581   0.890   2.472   4.742  0.0765  0.0486  0.2491
 8168W        W21582  13.447   7.318   1.941 -0.0413 -0.2781  0.0160
 8169W        W21583  15.387   1.524  11.542  0.0808  0.1605  0.0093
 8170W        W21584  13.260  12.222  13.656 -0.3894  0.1484  0.1571
 8171W        W21585   5.614   5.845  12.040 -0.2687  0.1622  0.0400
 8172W        W21586   4.540   2.443  16.156 -0.1274  0.1779  0.0165
 8173W        W21587  14.766   6.627   4.455  0.2682 -0.0038 -0.1162
 8174W        W21588   7.357  17.732  15.859 -0.0092  0.2028  0.1976
 8175W        W21589   7.122   2.019  14.559 -0.3239  0.3544  0.3500
 8176W        W21590  14.998  13.424  15.847 -0.1520  0.1774 -0.2976
 8177W        W21591  11.339   1.556  13.048  0.0428 -0.3255  0.0672
 8178W        W21592   0.326   6.855   2.973 -0.0085 -0.2594  0.2399
 8179W        W21593   2.489   0.141  15.980  0.1758 -0.0067  0.2056
 8180W        W21594   7.568  13.125   4.965 -0.1594  0.2432 -0.0953
 8181W        W21595  13.719  11.079   3.731  0.1332 -0.0171  0.4775
 8182W        W21596  10.026   6.409  16.312 -0.2682 -0.0387  0.1594
 8183W        W21597   7.145  11.673  14.723  0.2117  0.1184 -0.0723
 8184W        W21598   4.598  10.436   0.081 -0.3247 -0.1863 -0.0324
 8185W        W21599  16.440   0.056   0.285  0.3450 -0.2393  0.1870
 8186W        W21600  16.964  13.152  15.027  0.1788 -0.1012  0.0901
 8187W        W21601   4.393   4.971  11.234  0.1203  0.1994  0.1196
 8188W        W21602   4.976   6.240   2.150  0.0321 -0.0458  0.0685
 8189W        W21603  11.077   3.315   1.287  0.1571  0.0682 -0.1835
 8190W        W21604  15.210   6.066   2.733 -0.2034  0.1402 -0.2376
 8191W        W21605   9.741   2.517  11.111 -0.0722 -0.0551  0.0092
 8192W        W21606   0.562   0.334   2.429 -0.0742 -0.0107 -0.0454
 8193W        W21607  16.276  10.939   6.188 -0.0522 -0.1166  0.0510
 8194W        W21608  17.507   7.974  16.048 -0.2266 -0.2354  0.1740
 8195W        W21609   6.503  17.613   2.479  0.0086 -0.0292  0.2615
 8196W        W21610  13.038   0.867   2.181  0.0811 -0.0359  0.4438
 8197W        W21611  17.448  11.286  11.235  0.1570  0.2336 -0.3637
 8198W        W21612   0.261   8.358   4.923  0.0598  0.4339 -0.0332
 8199W        W21613  12.124  14.643   4.897  0.4098 -0.1041  0.0483
 8200W        W21614   7.729   4.286   4.596  0.2766  0.1111 -0.0501
 8201W        W21615   9.784  10.291  13.176 -0.1411  0.1534  0.0439
 8202W        W21616  15.409   4.931  11.865 -0.1144 -0.0439 -0.0486
 8203W        W21617  15.263  14.389  15.752  0.2944  0.0586  0.2898
 8204W        W21618   1.663   4.739   6.032 -0.2112 -0.0018  0.0586
 8205W        W21619   7.941  10.759  15.975 -0.2941 -0.4930  0.2597
 8206W        W21620  14.593  13.941  10.913  0.0831 -0.0944  0.0185
 8207W        W21621  10.375   4.042  14.763  0.0706 -0.4358  0.0268
 8208W        W21622  14.908   1.873  11.538  0.0879 -0.3328  0.2693
 8209W        W21623  13.940   1.901   3.186 -0.0301  0.0345  0.0647
 8210W        W21624  10.307   3.940   2.356 -0.1706 -0.2640 -0.3004
 8211W        W21625   4.378  10.371   4.234  0.3879  0.1469  0.2859
 8212W        W21626  13.038  16.145   1.877 -0.1141 -0.0765  0.0545
 8213W        W21627   4.288  16.623   5.290 -0.0567 -0.0575 -0.0549
 8214W        W21628  15.316  12.981   3.106 -0.2763 -0.0314  0.0399
 8215W        W21629  11.772   8.119   5.097  0.2394  0.1308 -0.0838
 8216W        W21630   7.772  10.595  15.081  0.0831 -0.3324  0.0137
 8217W        W21631  14.238  14.335  12.219 -0.1035 -0.0069  0.0373
 8218W        W21632  17.083   5.507   2.755 -0.0973  0.0071 -0.1204
 8219W        W21633  16.246   3.165  15.515 -0.0749 -0.0500  0.2780
 8220W        W21634   3.918   4.894  13.904 -0.2449 -0.0114 -0.0776
 8221W        W21635   5.171  11.204  10.834  0.0953  0.0059  0.2400
 8222W        W21636   7.293  13.924  16.634  0.1669 -0.0433 -0.1613
 8223W        W21637   5.214   7.024   1.758 -0.1637  0.3219 -0.0276
 8224W        W21638   3.785   2.582  12.666 -0.0580  0.1009  0.1321
 8225W        W21639   6.365   6.719  16.092 -0.0380 -0.1207  0.0630
 8226W        W21640   3.471  17.417   3.582  0.0324 -0.0887  0.1584
 8227W        W21641  12.062  10.141  15.117  0.2008 -0.2669 -0.1530
 8228W        W21642   7.852   1.939   3.881  0.0378  0.1002 -0.4203
 8229W        W21643   3.265   1.334  12.850  0.0067  0.4487 -0.1562
 8230W        W21644  11.246   0.338  16.378  0.0930  0.2121 -0.1793
 8231W        W21645   9.874   9.381  10.639 -0.1506  0.0912 -0.0948
 8232W        W21646  16.300  15.977  16.631 -0.1396 -0.0048 -0.3470
 8233W        W21647   3.700   2.557  16.400  0.1666 -0.1188  0.0897
 8234W        W21648   2.304  11.141   1.417 -0.1364  0.1643 -0.1333
 8235W        W21649   4.280   5.337   2.772  0.1024 -0.1626  0.1343
 8236W        W21650  10.267   4.066   2.912  0.1232 -0.0376 -0.0104
 8237W        W21651   6.022   2.976   1.346 -0.4711  0.1860  0.3479
 8238W        W21652  14.374   6.264  12.202  0.0147  0.2030 -0.0666
 8239W        W21653  12.634  17.309   4.714 -0.2102  0.0395  0.1204
 8240W        W21654   4.003  17.666   3.487 -0.1789  0.0022  0.1207
 8241W        W21655  15.781   3.139  14.530 -0.0225 -0.0097  0.2220
 8242W        W21656  11.991   6.771   5.196 -0.0834  0.0362 -0.3321
 8243W        W21657   3.665   0.260  14.720  0.1027  0.0298 -0.1084
 8244W        W21658   2.944  11.456   5.689  0.0171 -0.4317  0.2735
 8245W        W21659   0.132   1.014  12.415 -0.1074 -0.0295  0.0567
 8246W        W21660   6.910  17.946  13.241  0.0293  0.1220 -0.0530
 8247W        W21661  17.434  14.472  15.094 -0.0469 -0.2125 -0.1807
 8248W        W21662   0.751  16.057   2.291  0.1418 -0.1899 -0.0274
 8249W        W21663   1.501  14.633   1.145  0.0976 -0.0678  0.1120
 8250W        W21664   0.777  11.106   2.056 -0.1474 -0.0190  0.1638
 8251W        W21665   6.337  11.533  15.466  0.0088  0.0178 -0.3040
 8252W        W21666  11.233   8.297  16.311 -0.1623  0.0620 -0.2714
 8253W        W21667   5.203   8.711  13.380 -0.1062  0.3020 -0.2024
 8254W        W21668   1.372  13.839   1.691  0.1099 -0.0646  0.2124
 8255W        W21669   1.499  14.851   1.990 -0.1149  0.0139  0.2671
 8256W        W21670  17.678   2.863   0.492 -0.0570  0.1824 -0.3626
 8257W        W21671   5.810   4.913  15.566  0.0340  0.1094  0.0674
 8258W        W21672  13.037   9.950  12.355  0.2827  0.3386 -0.0854
 8259W        W21673   3.029  15.303  11.478  0.0894 -0.0014  0.1001
 8260W        W21674   7.309   9.954   2.667 -0.1563 -0.1510 -0.1497
 8261W        W21675  15.704  15.099   1.097  0.3084 -0.3399 -0.0867
 8262W        W21676  14.619  14.868  11.557 -0.0605  0.2406  0.1392
 8263W        W21677  11.777  14.375  13.270  0.1235 -0.0502  0.2389
 8264W        W21678   1.708   1.471  14.212  0.1681  0.1884  0.2025
 8265W        W21679   2.905   4.457  13.992 -0.4107  0.1409 -0.0282
 8266W        W21680   3.873   7.315  10.803  0.0728 -0.0829  0.0954
 8267W        W21681   1.934  17.156  16.543  0.0752 -0.2395  0.0299
 8268W        W21682   3.264  15.501  16.099 -0.1437  0.0539  0.3042
 8269W        W21683   1.855  17.661   1.387  0.0223  0.0640 -0.1470
 8270W        W21684  11.909   6.984  15.510  0.4235  0.0098 -0.2193
 8271W        W21685  15.222   4.060   4.478 -0.4813  0.2457  0.1015
 8272W        W21686  12.568   8.860   3.274 -0.1233  0.0188  0.0885
 8273W        W21687   4.482  17.630   5.807  0.0381  0.1626 -0.3069
 8274W        W21688  15.933  13.045   3.820 -0.1335 -0.0437  0.0757
 8275W        W21689   3.725   1.964  16.604  0.2318 -0.2206  0.1531
 8276W        W21690  12.434   3.128   5.615  0.1617  0.0682 -0.1190
 8277W        W21691  12.850   6.821  13.237  0.2179  0.0936  0.0031
 8278W        W21692   3.723   8.075   1.921  0.0016  0.1534 -0.0623
 8279W        W21693   7.866   3.468  16.497 -0.1613  0.1714 -0.2316
 8280W        W21694   5.988   2.785  16.282 -0.0507 -0.2528 -0.2479
 8281W        W21695  15.717  11.270   2.686 -0.0841 -0.1132 -0.2958
 8282W        W21696   9.524   8.037   5.042  0.2480  0.0249  0.0894
 8283W        W21697  11.059  10.348   4.689  0.1309 -0.1332  0.0457
 8284W        W21698  16.108   4.943   1.341  0.0863 -0.2536  0.1382
 8285W        W21699   1.035  17.290  14.115 -0.1379 -0.0385 -0.1017
 8286W        W21700   5.795  15.533  14.438  0.0266  0.0337  0.3523
 8287W        W21701  13.290   8.133   5.199  0.0888  0.1808 -0.2777
 8288W        W21702   8.712   8.773   2.879  0.2106 -0.0763  0.1522
 8289W        W21703   3.547  10.940  16.396 -0.1270 -0.0268  0.0577
 8290W        W21704  11.420  12.156   4.097  0.2479 -0.5030  0.3702
 8291W        W21705  17.247  12.843   1.887 -0.5372 -0.0302  0.1267
 8292W        W21706   0.870   2.593  15.960  0.0249  0.0026 -0.0641
 8293W        W21707   1.760   3.902   5.891 -0.1800  0.1150 -0.0696
 8294W        W21708   1.005   5.428  12.351  0.3675  0.1991 -0.1953
 8295W        W21709   8.309  14.192   5.214 -0.3585 -0.3643  0.1071
 8296W        W21710   1.165  15.816   6.666  0.1090 -0.1325  0.0035
 8297W        W21711   1.383  12.350  15.285 -0.3151  0.3395  0.0482
 8298W        W21712  17.800  17.053  11.295 -0.1624 -0.0536  0.3333
 8299W        W21713  10.063  13.824   0.180 -0.1228 -0.0309 -0.2180
 8300W        W21714  15.682   5.424  15.586 -0.0019 -0.2082 -0.1884
 8301W        W21715  11.113  15.960  11.275 -0.0556 -0.2934  0.0654
 8302W        W21716   3.270  13.174   5.487  0.1388  0.2084  0.0898
 8303W        W21717   5.974   3.064  11.580  0.1276 -0.2908  0.1376
 8304W        W21718   2.223  13.637   3.202 -0.0041 -0.1651  0.0442
 8305W        W21719   1.245  11.328   3.247  0.2324 -0.0978 -0.0931
 8306W        W21720  15.779   3.946  13.898  0.0210 -0.0730  0.0065
 8307W        W21721  10.160   8.466   0.248 -0.0453 -0.1866  0.1150
 8308W        W21722  17.362  13.281   0.886 -0.1065  0.1144  0.0135
 8309W        W21723   0.633   0.054   1.082  0.1371 -0.1138  0.0207
 8310W        W21724  10.125  17.695  12.301 -0.0804  0.1983 -0.0027
 8311W        W21725  12.860  10.202   3.141  0.3295 -0.0157  0.0953
 8312W        W21726  16.239  10.749   5.108 -0.2872  0.1028 -0.0033
 8313W        W21727   2.891   0.487   2.318  0.0040  0.3362  0.1708
 8314W        W21728   1.877   3.070  11.189  0.0664 -0.2185  0.2730
 8315W        W21729   0.786  12.939  11.298 -0.0175  0.2239 -0.1702
 8316W        W21730   4.362  11.082   3.593 -0.2556 -0.1893 -0.1647
 8317W        W21731   3.169   4.967  15.272  0.0871  0.1907 -0.1903
 8318W        W21732  11.406  10.754  15.343  0.1467  0.0360 -0.3943
 8319W        W21733  14.830   1.148   3.117 -0.1938 -0.3671  0.0618
 8320W        W21734   3.889  10.712  12.008 -0.0079 -0.1456  0.1952
 8321W        W21735   6.565   6.253   2.514 -0.0272 -0.1168 -0.1078
 8322W        W21736  11.070  14.766  13.654  0.2332 -0.0640  0.0480
 8323W        W21737  14.802   0.761  12.297 -0.1413 -0.1366 -0.1715
 8324W        W21738  15.986   5.693  13.671 -0.0012  0.3583 -0.3070
 8325W        W21739  12.803   8.710  15.821 -0.0284 -0.0812 -0.1271
 8326W        W21740   7.402   1.145  14.662 -0.0024  0.1664  0.0796
 8327W        W21741   8.065   2.534  14.333  0.0779  0.0583  0.1237
 8328W        W21742   8.838   0.814  15.497  0.1670 -0.1933 -0.0158
 8329W        W21743   5.412   0.671   5.470  0.0905  0.5966 -0.3279
 8330W        W21744   6.623  14.489   1.345  0.0364 -0.2428  0.2545
 8331W        W21745   5.674   2.298  10.439  0.2862 -0.1824  0.2052
 8332W        W21746   8.415   6.394   2.616 -0.1820 -0.2053  0.0344
 8333W        W21747   8.363   2.865   2.028  0.0202 -0.0079 -0.3512
 8334W        W21748   0.433   4.387  11.547 -0.1385  0.1748  0.1164
 8335W        W21749   8.384  17.228  15.549  0.0073  0.1481  0.0515
 8336W        W21750  17.845   1.301   3.740 -0.2101 -0.2615 -0.0964
 8337W        W21751   7.758   9.539   2.151 -0.0346  0.0441 -0.0022
 8338W        W21752  13.348   1.746  12.111 -0.3032 -0.0727 -0.0066
 8339W        W21753  16.908  17.891   6.342  0.0405  0.2055  0.1070
 8340W        W21754  14.256  17.088  10.720 -0.0113  0.2000  0.0644
 8341W        W21755   1.846  15.594   2.588  0.2032 -0.0240  0.1924
 8342W        W21756   3.824   3.308  11.906  0.2097 -0.0023  0.1618
 8343W        W21757   1.668  10.287  16.428  0.0308 -0.2266 -0.0572
 8344W        W21758  12.421  15.896   3.337  0.2428 -0.0590 -0.0854
 8345W        W21759   3.134  12.007  14.403 -0.0805  0.0308  0.0609
 8346W        W21760   4.945  11.750  10.656  0.2868  0.1259  0.0425
 8347W        W21761  12.731   6.537   0.661  0.0513  0.3287 -0.0802
 8348W        W21762   6.324  16.819  13.867 -0.0038 -0.0017  0.1579
 8349W        W21763   3.550   6.070   0.312 -0.1249  0.2243 -0.0515
 8350W        W21764   8.806  16.378  14.066 -0.1812  0.0433 -0.0119
 8351W        W21765   4.426   8.203  11.868 -0.4321  0.2770 -0.2347
 8352W        W21766   6.200  17.998   0.241 -0.4379 -0.2279 -0.2558
 8353W        W21767   5.633  11.417   5.372  0.1183  0.0307 -0.0711
 8354W        W21768  11.227  13.476  15.186  0.1235  0.1629 -0.2231
 8355W        W21769  10.805   3.216  15.779 -0.1518  0.0769 -0.0853
 8356W        W21770  16.522  12.637  11.371  0.1406  0.0468 -0.1918
 8357W        W21771  10.504   0.373  10.673  0.5056  0.2618  0.0306
 8358W        W21772  10.647   9.323  13.302 -0.2776 -0.1242  0.1318
 8359W        W21773  15.945  13.935  12.496  0.0205 -0.0670 -0.1387
 8360W        W21774  14.023  10.652   0.272 -0.0645  0.3266  0.0662
 8361W        W21775  14.234   3.810   3.012  0.0734  0.0024  0.0007
 8362W        W21776   2.595  17.649  15.439 -0.2399  0.1163 -0.0620
 8363W        W21777  14.065   2.310   0.669 -0.1501 -0.1322  0.1815
 8364W        W21778   9.369   8.818   0.833 -0.1405  0.0041  0.1474
 8365W        W21779   8.909   0.310  10.432  0.0181 -0.1977 -0.0543
 8366W        W21780  12.199  12.553   4.956  0.1651 -0.1352  0.4602
 8367W        W21781  13.589   8.316  13.657 -0.0643  0.0854 -0.1096
 8368W        W21782  12.431  13.440   3.020  0.2358  0.1975  0.2391
 8369W        W21783   8.260   8.215   4.870  0.1526 -0.1258  0.3130
 8370W        W21784  10.388  14.463   5.782  0.0426  0.0109  0.1838
 8371W        W21785   2.810   3.402  15.783 -0.4365 -0.0067  0.2095
 8372W        W21786   7.372   3.135   5.186  0.2494  0.1906 -0.1382
 8373W        W21787   1.929   0.132  14.123 -0.0594  0.1084  0.2395
 8374W        W21788   2.952  12.530   2.132 -0.1671 -0.2327  0.1608
 8375W        W21789   7.929   0.968  15.513  0.0448  0.0066 -0.1964
 8376W        W21790  14.973   2.735  13.480 -0.0130  0.1165  0.1020
 8377W        W21791  12.153  14.732  13.327 -0.0050  0.1748 -0.0423
 8378W        W21792   4.425   0.919  11.018  0.1420 -0.2842 -0.1453
 8379W        W21793   9.352  12.627   2.985  0.0647 -0.0140 -0.2310
 8380W        W21794   0.249   9.076   0.263  0.2408 -0.0499  0.0971
 8381W        W21795   1.395   8.808  12.644  0.0783 -0.1504  0.2333
 8382W        W21796  17.736   6.479  15.268  0.1672 -0.1274  0.0236
 8383W        W21797   6.062   8.497  13.401 -0.1018 -0.0448  0.2628
 8384W        W21798   2.302   1.473  15.460 -0.0833 -0.1079 -0.0882
 8385W        W21799  13.741   2.642   6.683  0.1330  0.0011 -0.2675
 8386W        W21800  12.771   9.013   0.105 -0.2855 -0.0385  0.2688
 8387W        W21801  16.272  13.359   3.105  0.3396 -0.2807  0.2434
 8388W        W21802  13.002   8.135  14.454 -0.0614  0.3233  0.0152
 8389W        W21803   2.274  10.661  16.027  0.0740 -0.0258 -0.0969
 8390W        W21804  17.380   7.291  12.350  0.0100 -0.0185  0.1420
 8391W        W21805   9.647   0.393   4.063 -0.1421 -0.2029 -0.1415
 8392W        W21806   7.097   4.965  15.972 -0.0733 -0.0399 -0.2828
 8393W        W21807  17.479   9.914  14.743 -0.3201 -0.0323  0.0439
 8394W        W21808   2.054  13.532   5.934 -0.2585 -0.3424 -0.1007
 8395W        W21809   4.141  11.247  14.967 -0.0326  0.1033  0.0645
 8396W        W21810   9.198   8.682   0.319  0.0880  0.0006 -0.0883
 8397W        W21811   7.780  16.436   4.081  0.0898 -0.0137  0.2106
 8398W        W21812   3.886  11.449   4.685  0.0257 -0.2095  0.0148
 8399W        W21813   2.968  16.832   5.199 -0.1761 -0.0304  0.1348
 8400W        W21814   8.417  10.009   1.759 -0.2885  0.0706  0.1036
 8401W        W21815  16.425   4.686   2.254  0.1526 -0.0750 -0.0321
 8402W        W21816  15.547   3.094  11.486  0.2452  0.3341 -0.1391
 8403W        W21817   1.391  13.425   1.997 -0.3404  0.0634  0.1573
 8404W        W21818   6.421   3.753  15.251 -0.0638 -0.0868 -0.0911
 8405W        W21819   6.846   8.777  10.629  0.2219  0.2464 -0.2223
 8406W        W21820   9.291   5.408  14.873 -0.2258  0.0113 -0.0945
 8407W        W21821   1.786  10.636  15.979 -0.0477 -0.0595  0.1048
 8408W        W21822   9.926  12.577  16.593  0.0677 -0.2423  0.0158
 8409W        W21823   9.930  17.735  10.442  0.1699 -0.1131 -0.1863
 8410W        W21824   1.763   8.159  13.922  0.4117 -0.0905 -0.0970
 8411W        W21825   9.890  14.240  12.488 -0.2173  0.0863  0.2928
 8412W        W21826  10.296   5.397  11.035 -0.2010 -0.1678  0.0331
 8413W        W21827   5.840   3.395  13.982 -0.0906 -0.2059 -0.0666
 8414W        W21828   1.725   1.466  12.795 -0.2956  0.3698 -0.1124
 8415W        W21829  15.688   9.174   1.157 -0.1510  0.0279 -0.2569
 8416W        W21830   2.917   5.002   3.534 -0.3841 -0.1551 -0.2163
 8417W        W21831  15.139   3.499   5.097  0.1545 -0.0457 -0.0739
 8418W        W21832  14.713  18.027  14.220  0.1003  0.0614 -0.0916
 8419W        W21833   4.192  14.761   2.469  0.2152 -0.0240  0.2070
 8420W        W21834   3.630   9.398  16.179  0.0757 -0.1145  0.0201
 8421W        W21835  17.358  12.439  15.103 -0.2257 -0.0234 -0.3128
 8422W        W21836   6.100  11.875   4.735 -0.1880  0.0408  0.0938
 8423W        W21837  11.901  15.878  14.104  0.2409 -0.0801 -0.0581
 8424W        W21838   1.552   3.113   5.068 -0.0191 -0.1321 -0.2185
 8425W        W21839  14.142  16.172  10.811  0.2968  0.1613 -0.0010
 8426W        W21840   4.534   9.300  13.487  0.0216 -0.1847  0.0570
 8427W        W21841  15.789   1.206   0.765 -0.0253  0.0793 -0.2364
 8428W        W21842   4.502   5.376   1.059 -0.0971 -0.0255 -0.2343
 8429W        W21843  16.115   8.729   4.792  0.1008  0.0237 -0.1535
 8430W        W21844   5.363   6.961   3.195 -0.1552 -0.3243  0.2265
 8431W        W21845  10.730   4.621  13.271 -0.0519 -0.0058 -0.1570
 8432W        W21846   9.950  14.134  16.254  0.1435 -0.1115  0.5008
 8433W        W21847  17.460  11.373   5.265  0.0106  0.2400  0.2574
 8434W        W21848   5.398  15.288  11.776  0.0959 -0.0396  0.3193
 8435W        W21849   1.973   3.261   1.142 -0.1170  0.2162 -0.1033
 8436W        W21850   3.844   9.023  11.000 -0.1262  0.1009  0.1411
 8437W        W21851   6.138  10.055   2.156 -0.1181 -0.0058  0.1056
 8438W        W21852  14.284  10.609   1.448  0.0808 -0.5555 -0.0610
 8439W        W21853   6.026   9.153   3.864  0.1533 -0.2183 -0.2306
 8440W        W21854  12.303   0.399  13.484  0.2590 -0.0281  0.2134
 8441W        W21855  16.293   4.016  14.994 -0.2558  0.0904  0.1678
 8442W        W21856  14.812   8.095   0.570 -0.1186 -0.3066 -0.3073
 8443W        W21857   7.203  14.288   3.788 -0.0765 -0.1029  0.1287
 8444W        W21858   2.547  17.655  11.913 -0.1453  0.2360  0.0554
 8445W        W21859   1.241   1.476  11.528  0.1589  0.0046 -0.2568
 8446W        W21860   1.244   8.122  13.154 -0.0002 -0.1962  0.1416
 8447W        W21861   1.041   1.095  15.588 -0.1225 -0.4303  0.2142
 8448W        W21862   5.814   4.761   3.966 -0.1445  0.0411 -0.1180
 8449W        W21863   6.680   6.581  12.685 -0.0443 -0.1151  0.1672
 8450W        W21864   9.401  13.396   4.696  0.2008  0.0496 -0.1744
 8451W        W21865   3.400   2.811  13.514 -0.0761  0.2697 -0.2874
 8452W        W21866   1.734   9.520   0.347  0.1997 -0.3622 -0.0483
 8453W        W21867   4.151   8.575   4.635 -0.1906  0.1987  0.4099
 8454W        W21868  11.440  11.134   1.265  0.2158 -0.2334 -0.1974
 8455W        W21869  11.642  13.307   1.061  0.2636  0.1622 -0.0940
 8456W        W21870   8.791   0.146   4.703 -0.1621  0.1066  0.0417
 8457W        W21871   8.219   8.049   2.570  0.1671  0.1167  0.0223
 8458W        W21872   4.465   3.212   4.640 -0.1627  0.3070 -0.1978
 8459W        W21873  14.816  17.951   0.532 -0.2556  0.3169  0.0287
 8460W        W21874   5.590  15.266   4.153  0.1778 -0.1789  0.1014
 8461W        W21875  11.540  17.083   4.018  0.0398  0.2718  0.0886
 8462W        W21876   1.443  10.227   1.910 -0.2162  0.1921 -0.3959
 8463W        W21877   4.747  10.414  15.937 -0.0554  0.1291  0.0108
 8464W        W21878   0.032   9.485   2.197  0.3523 -0.0372 -0.2563
 8465W        W21879  12.906   5.317   4.597  0.1387 -0.0488 -0.1920
 8466W        W21880  12.495   6.383   2.298 -0.3498 -0.1928 -0.2262
 8467W        W21881  16.403   9.022  12.765 -0.0081 -0.1932 -0.2052
 8468W        W21882  10.706   3.635   1.074  0.0713  0.1684 -0.2267
 8469W        W21883   0.346  17.860  15.771 -0.0641  0.1945  0.1223
 8470W        W21884   6.709   6.889   3.358 -0.1053 -0.1236 -0.0280
 8471W        W21885   6.520   5.592  12.576  0.1117 -0.4254  0.0040
 8472W        W21886   3.703   6.051   1.271 -0.2245  0.1281  0.0070
 8473W        W21887   1.472  11.197  11.489  0.1231 -0.0269 -0.0009
 8474W        W21888   0.505   5.351   4.744  0.1430  0.2394 -0.0171
 8475W        W21889  13.988  13.147   2.773  0.0072  0.0959 -0.1104
 8476W        W21890   3.805   1.282  15.547  0.0365 -0.4681  0.0417
 8477W        W21891  13.077   1.461   1.246 -0.1497 -0.2073 -0.1170
 8478W        W21892  17.780  13.476   3.965 -0.0274  0.2052 -0.0218
 8479W        W21893  15.019  12.648   3.857  0.0444 -0.2533 -0.1848
 8480W        W21894  11.593   4.934  13.149 -0.0456  0.0897  0.1540
 8481W        W21895   3.766  14.138  12.294 -0.1381  0.1080 -0.0713
 8482W        W21896  17.645   8.263   1.749 -0.2677 -0.1424  0.1123
 8483W        W21897  10.827   0.813   3.826  0.1355  0.0617  0.0859
 8484W        W21898   4.200   4.633  10.887  0.0358 -0.1199  0.2924
 8485W        W21899   4.080   6.958   2.924  0.2392 -0.0925 -0.3471
 8486W        W21900   8.809  12.647  13.751 -0.1318 -0.0511  0.2211
 8487W        W21901   0.205   9.509  12.933 -0.0244 -0.2709  0.0630
 8488W        W21902   1.332  10.568   5.775 -0.2110 -0.0143 -0.1110
 8489W        W21903  17.305  11.833  13.589  0.1494  0.0574  0.1368
 8490W        W21904  10.033   8.664  15.325 -0.0861 -0.0498 -0.0159
 8491W        W21905  15.389   6.710  11.845  0.1030 -0.0896 -0.1385
 8492W        W21906  15.126  10.557   4.364  0.2086  0.0616  0.1095
 8493W        W21907  16.259  11.118   2.086  0.1021  0.0032  0.2945
 8494W        W21908   9.707   0.159   0.641  0.0610 -0.1215  0.2614
 8495W        W21909  15.730   0.778   5.267 -0.1077 -0.0620 -0.1665
 8496W        W21910  15.734   1.295   1.316  0.1070  0.0471  0.2246
 8497W        W21911   3.873  11.215   1.633  0.1426 -0.3501 -0.2235
 8498W        W21912  12.464  11.023   2.262 -0.0983  0.0642  0.3742
 8499W        W21913   0.501   1.430   5.222 -0.4288  0.4077 -0.0903
 8500W        W21914   9.908   8.943   3.105 -0.1067 -0.1245 -0.0934
 8501W        W21915  15.093  11.631   0.346 -0.2939  0.0266  0.1649
 8502W        W21916   3.186  13.485  11.675  0.0967 -0.3847  0.1246
 8503W        W21917   5.619  10.671   2.762 -0.1051  0.1014 -0.0468
 8504W        W21918   1.204  10.431   5.304  0.0438  0.1472  0.0245
 8505W        W21919   0.486   3.436  16.171 -0.2000 -0.2224  0.0592
 8506W        W21920  14.633  17.716   3.191 -0.2207  0.2772  0.1905
 8507W        W21921  17.099  11.532  13.953  0.0259  0.0291 -0.1565
 8508W        W21922   5.756   5.399   4.255 -0.3167  0.1449 -0.0070
 8509W        W21923   1.096  16.535  14.517 -0.1315 -0.1642 -0.0595
 8510W        W21924   3.542  13.457  16.008 -0.2607 -0.2539 -0.4262
 8511W        W21925   0.520   5.679   6.599 -0.0762 -0.0058 -0.4397
 8512W        W21926  11.601   6.888  11.819 -0.0983 -0.1704  0.0416
 8513W        W21927   3.619  12.995  15.122 -0.3372 -0.1797  0.0435
 8514W        W21928  17.323  11.916   1.894 -0.0568 -0.1458  0.0382
 8515W        W21929   9.441   3.317  11.972  0.3808 -0.0179 -0.2793
 8516W        W21930  11.875   0.641   0.146 -0.0313 -0.2217  0.2000
 8517W        W21931   4.300  17.223   2.624  0.2277 -0.2214  0.1004
 8518W        W21932   3.195   9.864   1.301 -0.0039  0.1397 -0.0738
 8519W        W21933   4.679   5.598  12.135 -0.0672  0.2738 -0.0985
 8520W        W21934   6.067   6.680   3.969 -0.0533  0.1202 -0.0479
 8521W        W21935  11.722   9.269  11.384  0.1286 -0.1949 -0.0862
 8522W        W21936   0.000   8.780   3.287  0.0929 -0.1306  0.1530
 8523W        W21937   6.707  13.118  10.894 -0.0917  0.1820 -0.0465
 8524W        W21938   3.944   0.721  11.144  0.1182  0.2500 -0.1330
 8525W        W21939  15.807  13.075  16.408 -0.3160 -0.0334  0.2841
 8526W        W21940  11.739  13.939  11.120  0.1089  0.2307 -0.3061
 8527W        W21941   2.142  11.573   2.152 -0.1708  0.1640  0.0183
 8528W        W21942  10.716  15.326   5.879  0.1606 -0.2969  0.0465
 8529W        W21943   1.604  13.518   3.739  0.0617  0.0746 -0.2262
 8530W        W21944   4.908   5.905   3.019 -0.0938  0.0808  0.0779
 8531W        W21945  17.125  18.029  13.783 -0.0008 -0.2931  0.2613
 8532W        W21946   2.075  12.069   3.826 -0.0769  0.2207  0.1643
 8533W        W21947   8.158  14.063  13.236 -0.0116  0.1210  0.0911
 8534W        W21948   3.304  14.309  12.158  0.1934  0.0690  0.1328
 8535W        W21949   9.263   5.660   4.347 -0.0435 -0.1492  0.1157
 8536W        W21950  15.710   3.242   4.138  0.0798  0.3249 -0.0630
 8537W        W21951   7.397   5.857   1.142 -0.2221  0.2507 -0.0292
 8538W        W21952  12.534  18.049  13.669 -0.0584  0.2007 -0.1365
 8539W        W21953   5.849  17.729   3.049  0.3413  0.1949  0.0804
 8540W        W21954   7.712  11.023  13.858 -0.2194 -0.2131 -0.0003
 8541W        W21955   2.004   6.145   3.050 -0.0846  0.0206 -0.1994
 8542W        W21956   9.306  17.945  15.724  0.2325 -0.0470  0.0809
 8543W        W21957   2.219  12.328   5.017  0.1123 -0.2366  0.4188
 8544W        W21958  13.525  15.183  13.146 -0.2349 -0.0199  0.1316
 8545W        W21959  11.419  17.522  11.032  0.1248  0.0356  0.2220
 8546W        W21960   1.762   7.890  15.200  0.1101 -0.0022 -0.4745
 8547W        W21961  17.522   5.213  12.867  0.0935  0.3899  0.1158
 8548W        W21962   8.493   6.400  15.561  0.0610 -0.1142 -0.1488
 8549W        W21963  12.848  12.972   5.493  0.0514  0.1982  0.0424
 8550W        W21964  15.087   3.700   6.452  0.0695 -0.0873 -0.2472
 8551W        W21965   1.779   6.677   0.372 -0.1108 -0.3244  0.0099
 8552W        W21966  13.091   7.150  13.685 -0.3353 -0.0914 -0.0096
 8553W        W21967  11.673   4.829   2.776  0.0911  0.1832 -0.3942
 8554W        W21968   5.211   5.354  10.252 -0.2618  0.1407  0.1113
 8555W        W21969  16.325   6.011  12.760  0.0419 -0.0663 -0.3712
 8556W        W21970  16.679   9.783   5.370 -0.0903 -0.1846 -0.1568
 8557W        W21971  16.983  14.518   2.710 -0.2191 -0.1502 -0.0521
 8558W        W21972  16.482   2.149  15.751  0.1933  0.3050 -0.3777
 8559W        W21973  16.907  11.305  11.616 -0.0519 -0.0773  0.2986
 8560W        W21974   6.920   7.975   3.036 -0.1605  0.1057  0.1543
 8561W        W21975  13.565   9.297  13.732  0.2110 -0.1185  0.0171
 8562W        W21976  12.270   9.715  13.968 -0.1646  0.1196 -0.0077
 8563W        W21977   1.098   0.680  12.307 -0.0593 -0.1272 -0.1266
 8564W        W21978   2.261   3.422   4.027  0.1403 -0.1751  0.2597
 8565W        W21979   1.685  16.335   2.194 -0.1706 -0.2312 -0.1009
 8566W        W21980   6.693   0.237   0.976  0.0718 -0.1640  0.0129
 8567W        W21981  16.567  15.084  12.248  0.0971  0.1109 -0.0712
 8568W        W21982   4.226   6.609   0.528  0.0015  0.3524  0.2924
 8569W        W21983   3.940  15.315  13.865  0.0626 -0.0332  0.1910
 8570W        W21984  13.138  13.692  16.486 -0.0677 -0.1624  0.3158
 8571W        W21985  17.947   3.280   1.129  0.1124 -0.1685  0.3371
 8572W        W21986   2.067  15.291   5.770  0.0288  0.1459 -0.2440
 8573W        W21987   9.435   5.963   3.502 -0.1001 -0.2991 -0.2417
 8574W        W21988  11.452  16.268  11.912  0.1691  0.3413  0.0717
 8575W        W21989  10.794  15.828  12.403  0.1739  0.3063  0.2475
 8576W        W21990  15.031  10.027   2.501 -0.5658  0.0493 -0.0584
 8577W        W21991  15.646  11.437  14.061 -0.0845  0.0957 -0.0687
 8578W        W21992  17.761  10.419  14.527 -0.0395 -0.3448  0.0557
 8579W        W21993  17.857   7.721   1.717  0.0432 -0.3212  0.1622
 8580W        W21994  11.830  13.727   0.083  0.0584 -0.2952  0.0252
 8581W        W21995   6.442  14.775  15.138 -0.1111  0.0376  0.1351
 8582W        W21996   1.215   0.007  15.632 -0.1783  0.0477  0.2343
 8583W        W21997   0.536  12.220  14.952  0.1718 -0.0221  0.2485
 8584W        W21998  12.539  11.994   3.186 -0.1338 -0.0360 -0.2160
 8585W        W21999  10.158   0.785  12.483  0.1846  0.2366 -0.3139
 8586W        W22000  12.357   3.603  15.044  0.1207  0.2167 -0.0472
 8587W        W22001  10.590   3.183  12.797  0.1735  0.2687  0.0718
 8588W        W22002   5.172   6.589  14.206 -0.0297  0.1610  0.1899
 8589W        W22003  14.941   8.552   1.916  0.1810 -0.0842  0.3873
 8590W        W22004   5.874  12.536   4.167  0.0959 -0.0146  0.0385
 8591W        W22005  15.860   1.910  14.518 -0.0996 -0.2040  0.2673
 8592W        W22006   1.358   6.310   4.909 -0.0935 -0.4617  0.0526
 8593W        W22007   9.646   3.775  13.599 -0.1927  0.0567  0.2029
 8594W        W22008   5.809   9.370  13.599 -0.0038  0.1809  0.0045
 8595W        W22009  13.972  10.776   4.872  0.2436 -0.2001 -0.0607
 8596W        W22010   5.338  17.676  13.406  0.2992 -0.0161 -0.1566
 8597W        W22011   2.779   2.461   5.851 -0.0386  0.0885 -0.1551
 8598W        W22012   8.261  14.572  14.968 -0.0446 -0.0201  0.1277
 8599W        W22013  13.244  11.771   3.046  0.2931  0.1614  0.2331
 8600W        W22014   9.150   1.720   5.259 -0.1060  0.0543  0.1997
 8601W        W22015  12.443   8.555  14.086  0.1234 -0.4433 -0.0859
 8602W        W22016  11.587   0.225   2.921  0.1600 -0.1876 -0.0712
 8603W        W22017   6.025  17.715  15.998  0.2441 -0.0302  0.0093
 8604W        W22018  10.605   3.622  11.034  0.1523 -0.0179  0.0601
 8605W        W22019  17.727  15.712  14.261  0.2367 -0.0852  0.0404
 8606W        W22020  14.008   6.645   0.212  0.0510  0.2111  0.0753
 8607W        W22021   4.245   4.391   0.035  0.0684 -0.1545 -0.0192
 8608W        W22022   9.701   6.132  15.510  0.2675 -0.0812  0.0048
 8609W        W22023   0.850  11.678  14.953 -0.0376 -0.0625 -0.1674
 8610W        W22024   3.634   6.422  15.205  0.3680 -0.0629  0.0350
 8611W        W22025  13.062   7.233   2.690 -0.0531 -0.1374 -0.0133
 8612W        W22026  17.793   9.172  16.265  0.1654  0.0950 -0.0758
 8613W        W22027   4.364   7.745   1.266  0.2036  0.1059  0.0755
 8614W        W22028   0.069   7.774  14.333 -0.3795 -0.2013 -0.1836
 8615W        W22029   9.068  14.484  14.992 -0.1631  0.1054  0.0838
 8616W        W22030  12.615  15.751   0.493 -0.2323  0.0566  0.2336
 8617W        W22031   3.454  16.293  11.866 -0.0617  0.1939 -0.0018
 8618W        W22032  10.243   0.842   4.800  0.1024  0.2966 -0.0911
 8619W        W22033  10.965   1.568   2.794  0.0353  0.0705 -0.1462
 8620W        W22034   7.365   0.688   2.802  0.2726  0.1782  0.1371
 8621W        W22035  12.938   4.876   3.706 -0.0966 -0.2422 -0.0606
 8622W        W22036  12.382   2.239   2.003 -0.0541  0.0985  0.0596
 8623W        W22037  15.576   4.977  12.358  0.1542  0.0034  0.2012
 8624W        W22038  17.738  10.305   3.349  0.2405 -0.0170  0.0303
 8625W        W22039  17.091  12.114   2.452  0.0112  0.2309 -0.0604
 8626W        W22040  12.392   4.153   2.383  0.3125  0.3619 -0.2226
 8627W        W22041  11.822   0.989  16.410  0.0450 -0.1928  0.0378
 8628W        W22042   7.037  13.964  10.311 -0.0827 -0.0063  0.0871
 8629W        W22043   2.774  17.043   4.326  0.1232 -0.0559 -0.0746
 8630W        W22044   6.835   6.997   0.855  0.2711  0.3132  0.1357
 8631W        W22045  14.202   6.530   2.653  0.1808  0.0047 -0.2833
 8632W        W22046   0.931  13.874  14.520  0.2306  0.2246  0.0978
 8633W        W22047   5.930   6.219  14.392 -0.1184 -0.0396 -0.0720
 8634W        W22048   6.516  10.626   4.831 -0.0124 -0.2870 -0.1809
 8635W        W22049   4.943   1.473   3.315  0.2492 -0.1591 -0.2063
 8636W        W22050   0.047   9.352  13.757 -0.0103  0.0222  0.0994
 8637W        W22051   6.160   2.049  15.672  0.2557  0.2677  0.2738
 8638W        W22052  12.510  10.844  14.966 -0.1477 -0.3157 -0.0514
 8639W        W22053   2.276   3.952   4.154 -0.2004  0.0065  0.3784
 8640W        W22054   9.454   3.827   4.968 -0.1280 -0.1108  0.2126
 8641W        W22055  15.748   4.921   4.006  0.0355 -0.2599  0.1964
 8642W        W22056   4.739  16.128   2.855  0.1569 -0.0248 -0.1345
 8643W        W22057   5.115  17.609  11.639  0.2806 -0.0031  0.0216
 8644W        W22058  11.669  12.064   0.178 -0.0748 -0.1498 -0.2175
 8645W        W22059   0.697   5.956  14.450  0.3537  0.3221  0.1735
 8646W        W22060  14.339  11.218  15.519 -0.0233  0.0375 -0.1417
 8647W        W22061   9.496   4.125  10.875 -0.1186  0.2198  0.0904
 8648W        W22062   8.915   2.952  12.635  0.1222  0.1573  0.0172
 8649W        W22063   9.774  11.179  14.646 -0.0476  0.1252 -0.0425
 8650W        W22064  13.127   0.442   5.052  0.0862  0.2305 -0.3014
 8651W        W22065   6.411   0.886  16.187  0.0542  0.4464 -0.1610
 8652W        W22066   3.618   3.875  11.033  0.3759  0.3403  0.1325
 8653W        W22067   7.647   0.157  13.481 -0.0324  0.0785 -0.1555
 8654W        W22068  12.757  15.868   5.491 -0.2728 -0.0563 -0.0050
 8655W        W22069   6.162  14.776   3.409 -0.0503  0.0720 -0.1895
 8656W        W22070  17.760  15.975   5.324 -0.2202 -0.2908  0.1328
 8657W        W22071  10.401  15.952  15.079  0.0438 -0.0442 -0.3497
 8658W        W22072  13.047  11.457   2.716 -0.1124  0.0233  0.3039
 8659W        W22073   1.209  16.869   1.067 -0.1210  0.2705 -0.0450
 8660W        W22074  17.813   7.449   6.779 -0.0493 -0.1782 -0.2194
 8661W        W22075   4.040  11.628  13.308 -0.2025  0.2504 -0.0397
 8662W        W22076  15.430  13.757   3.427  0.1118 -0.1299  0.3798
 8663W        W22077  13.075  14.530   5.060  0.0834  0.4267  0.1900
 8664W        W22078   8.466   2.742   1.578 -0.3647  0.1766 -0.0442
 8665W        W22079   4.194   6.184  13.283  0.0656 -0.1676  0.1633
 8666W        W22080   7.882  14.475   3.249  0.0371 -0.0352 -0.1292
 8667W        W22081  13.687  12.502   1.527 -0.2864 -0.1070 -0.0381
 8668W        W22082   9.631   1.465  12.860 -0.0837  0.3409  0.1958
 8669W        W22083  12.075  17.045   2.220  0.2173 -0.2705  0.1532
 8670W        W22084   4.818  10.978   3.806 -0.0950  0.0446 -0.0026
 8671W        W22085   2.281  15.640   3.725  0.1617 -0.3287 -0.1367
 8672W        W22086  10.096   0.766   4.306  0.1172 -0.1069  0.1406
 8673W        W22087   7.182   4.479  16.214 -0.1804 -0.4973 -0.2621
 8674W        W22088   7.795   4.015   9.974  0.2529  0.0423 -0.0303
 8675W        W22089   2.523  16.337  11.713 -0.1298 -0.1102 -0.1664
 8676W        W22090  16.450  10.285  14.565  0.1197 -0.1190 -0.0983
 8677W        W22091   1.513  16.043   1.295 -0.3514 -0.3107 -0.0706
 8678W        W22092  13.043   6.420  15.063  0.1430  0.0028 -0.2058
 8679W        W22093   0.192   4.500  16.700 -0.1246  0.2930 -0.1865
 8680W        W22094  13.301   4.298   6.624  0.1627 -0.2550 -0.0401
 8681W        W22095   1.815   3.344  12.190 -0.3157  0.0699  0.2228
 8682W        W22096  16.139   0.055   5.215  0.2415  0.1225 -0.1551
 8683W        W22097   8.177   6.129   0.038  0.1627 -0.1062  0.0963
 8684W        W22098   6.779   5.864  10.359 -0.4300  0.0653  0.3273
 8685W        W22099   1.563   9.044   1.175  0.3005  0.0393  0.3088
 8686W        W22100   7.994   1.819   2.874  0.3432  0.0766  0.1785
 8687W        W22101   5.244  10.578  10.891  0.3378 -0.1575 -0.2031
 8688W        W22102  17.214  13.217   2.857 -0.1415 -0.1201  0.1568
 8689W        W22103   8.777   1.927  15.482  0.0820  0.2314  0.0825
 8690W        W22104  15.189  16.476   2.140  0.2028  0.0780 -0.1931
 8691W        W22105   7.937   7.733   3.431 -0.0243 -0.1021  0.2813
 8692W        W22106  13.950  13.348  14.422  0.0289  0.1880 -0.0887
 8693W        W22107  15.040   0.367  13.279  0.0543 -0.1125 -0.2254
 8694W        W22108  14.316  14.484   4.245  0.0817 -0.1715 -0.1875
 8695W        W22109   2.627  15.150  11.062 -0.0164  0.2319  0.2186
 8696W        W22110  12.257   9.281   0.793  0.1371  0.3082  0.0616
 8697W        W22111  10.648  16.259   0.583 -0.0567  0.0070  0.2119
 8698W        W22112  12.626  11.376  10.950 -0.0089 -0.2973 -0.0018
 8699W        W22113  10.629   3.923   1.847  0.1472 -0.1905  0.2386
 8700W        W22114   5.136  10.601   1.991  0.2528  0.0233 -0.0368
 8701W        W22115  16.327   4.117   1.271 -0.2200 -0.0035 -0.0265
 8702W        W22116  13.723   3.515   5.475 -0.0274 -0.1391  0.1766
 8703W        W22117  14.941  13.190   0.140 -0.0227  0.0923 -0.0375
 8704W        W22118   3.503  13.758  12.047  0.0658 -0.2021  0.1693
 8705W        W22119   3.699   7.594  13.924  0.1660  0.1939 -0.1470
 8706W        W22120  11.504  15.399  12.194 -0.0339  0.2468  0.0523
 8707W        W22121   3.678  17.517   4.480  0.0029 -0.1950 -0.1130
 8708W        W22122  11.443  10.564  12.028  0.1133 -0.1183 -0.0099
 8709W        W22123   6.985  11.720  15.214 -0.4115 -0.0377  0.1548
 8710W        W22124  13.287  12.684  12.816  0.1741 -0.1480  0.1445
 8711W        W22125   9.229  15.696   1.682 -0.1985 -0.2918 -0.3051
 8712W        W22126   9.519  15.419   3.995  0.0547 -0.1924  0.1038
 8713W        W22127  11.191  14.737  13.093 -0.1529  0.2708 -0.1304
 8714W        W22128   8.726  12.154   3.602 -0.0612 -0.0590 -0.1493
 8715W        W22129  17.032   7.997  16.695  0.0536 -0.1222 -0.1241
 8716W        W22130  10.605   5.927  14.521  0.1004 -0.0450  0.3250
 8717W        W22131   0.911   1.355  14.826  0.2584  0.4949 -0.1915
 8718W        W22132  17.504   9.191  14.888 -0.0569  0.1109 -0.1695
 8719W        W22133  14.042   9.803  16.350 -0.1144 -0.0987  0.0317
 8720W        W22134  14.644   1.892  12.970 -0.0974 -0.0395  0.2964
 8721W        W22135  11.710  15.415   2.685  0.1343  0.4303 -0.1683
 8722W        W22136   9.567   5.134   3.762 -0.0404 -0.0523  0.1332
 8723W        W22137  17.583  15.250   0.515 -0.2645  0.2351  0.1895
 8724W        W22138   0.410   0.367   4.634 -0.0427  0.1925  0.0771
 8725W        W22139   7.756  11.585  10.405  0.0104 -0.1711 -0.2168
 8726W        W22140  16.705  13.955   1.219  0.2029  0.3786 -0.0960
 8727W        W22141   3.721  12.663   1.257  0.1410 -0.1528 -0.0188
 8728W        W22142  13.873  17.653   1.968  0.0698  0.0735  0.0305
 8729W        W22143   6.394   4.840   1.420 -0.0065  0.0129  0.0353
 8730W        W22144   3.577  10.036  10.658 -0.2181 -0.1933 -0.0066
 8731W        W22145   4.711   1.428  13.905 -0.0928  0.0333 -0.0090
 8732W        W22146  15.034  10.970   3.910 -0.0608  0.2916  0.0190
 8733W        W22147   0.425  16.663   0.717 -0.0072  0.2029  0.2941
 8734W        W22148  11.651   2.392  11.438 -0.0162 -0.1714  0.1822
 8735W        W22149  15.255   7.129  16.701 -0.4376  0.4078  0.0051
 8736W        W22150  13.285  16.108  15.758 -0.1669 -0.1858  0.1289
 8737W        W22151  14.103   0.863  10.181  0.2452  0.0967  0.0330
 8738W        W22152  13.423  13.954  12.560 -0.1857 -0.1217 -0.3881
 8739W        W22153   8.280   2.148   3.651  0.1079  0.0619 -0.1804
 8740W        W22154   0.539  10.962   1.066  0.0480 -0.0808  0.3671
 8741W        W22155   1.701   8.991  15.254  0.0703  0.0041 -0.0635
 8742W        W22156   2.404   0.174  10.722 -0.1335 -0.0391 -0.0846
 8743W        W22157   6.450   9.724   3.036 -0.0331  0.0582  0.3182
 8744W        W22158  11.719   9.181  10.864 -0.1154  0.0048  0.2042
 8745W        W22159  15.353   9.373   3.895  0.0834 -0.2321  0.0961
 8746W        W22160   4.168   3.610  15.538 -0.1630  0.2238  0.2439
 8747W        W22161  10.536  11.226  12.965  0.1081  0.2391  0.0054
 8748W        W22162   5.558   1.728   5.134 -0.1899 -0.0255 -0.1020
 8749W        W22163  12.857  15.666  12.656  0.1059 -0.3757 -0.0710
 8750W        W22164  12.704   4.060  12.234  0.1419 -0.0461 -0.4726
 8751W        W22165  13.854  13.297   2.285 -0.4385 -0.1579 -0.0692
 8752W        W22166   5.615   5.649  14.266 -0.0528  0.1556  0.1602
 8753W        W22167   4.264   0.178   0.131  0.2515  0.2396  0.1090
 8754W        W22168   9.389   6.940   1.685 -0.1699  0.2292  0.0184
 8755W        W22169  17.533  12.731  14.176  0.1280 -0.1479 -0.1036
 8756W        W22170   8.081  14.761   5.584  0.2037 -0.2094 -0.2746
 8757W        W22171  17.864   0.837  13.661  0.0637  0.0316 -0.0067
 8758W        W22172  18.008   7.291  15.419 -0.0523 -0.1756 -0.1614
 8759W        W22173  10.024  15.601  14.948  0.0607 -0.0180 -0.0971
 8760W        W22174  11.760   9.216   5.821 -0.0778  0.0205  0.1508
 8761W        W22175  14.371   6.559  14.505  0.0766  0.0076 -0.1441
 8762W        W22176   4.046   7.917   0.139 -0.1110 -0.1549 -0.0126
 8763W        W22177  14.179   8.966   4.073  0.0602  0.0813  0.1205
 8764W        W22178   4.306   6.689  12.570  0.2022 -0.1038  0.0253
 8765W        W22179   9.619  12.807  16.254  0.1839  0.4197 -0.3213
 8766W        W22180   8.449   9.551   3.909 -0.0897 -0.1672  0.1935
 8767W        W22181  12.239  12.007  15.421 -0.0560  0.0589  0.0122
 8768W        W22182   4.511   9.391  15.885 -0.0232  0.1849 -0.1414
 8769W        W22183   8.346  15.770   2.697  0.0689  0.0000 -0.4005
 8770W        W22184   8.811   1.327  15.552  0.0321 -0.1386  0.1884
 8771W        W22185  10.021  11.104  13.127 -0.2598 -0.1934  0.1673
 8772W        W22186  11.966  12.420  13.498  0.1182  0.1464  0.2055
 8773W        W22187  14.001  12.473   2.794  0.0465 -0.3703  0.1189
 8774W        W22188   4.253  14.617  16.233 -0.2624 -0.3943 -0.1717
 8775W        W22189  14.531  15.424   2.499  0.1494 -0.3956  0.1354
 8776W        W22190   9.099   5.645  13.949 -0.2263  0.2821 -0.1502
 8777W        W22191   7.981  12.681   0.384 -0.0392 -0.2164  0.0329
 8778W        W22192  11.209  17.994  14.064 -0.2983  0.0717 -0.1473
 8779W        W22193  11.991  10.083  16.269  0.2148  0.1671  0.2785
 8780W        W22194  13.241   0.653   5.537 -0.0658 -0.1638  0.0836
 8781W        W22195  14.298  12.738  12.915 -0.0561  0.2745  0.0812
 8782W        W22196  12.126  12.696   4.147 -0.2000 -0.1857  0.1908
 8783W        W22197   4.364   2.752  11.226  0.0778  0.5178  0.0279
 8784W        W22198   5.408   6.366   0.866  0.0170 -0.3472 -0.0769
 8785W        W22199   9.419   4.064  11.757 -0.1835 -0.2185 -0.0811
 8786W        W22200  14.249  14.709  10.610  0.4725  0.1118 -0.1084
 8787W        W22201   4.186  13.783  10.939  0.1425 -0.0957  0.0681
 8788W        W22202   8.542  17.509   4.720  0.1245  0.1868  0.0623
 8789W        W22203   1.645  11.577  15.144  0.1953  0.2079 -0.0393
 8790W        W22204  17.677   9.995   5.467 -0.2326 -0.2422 -0.3421
 8791W        W22205   0.592  13.947   5.394 -0.3161 -0.1876 -0.2846
 8792W        W22206   0.474   6.251  13.968 -0.0243  0.2144 -0.0617
 8793W        W22207   8.080  15.665   5.334  0.3282  0.0067  0.1636
 8794W        W22208   0.122   6.349   6.204  0.0065  0.2254 -0.1122
 8795W        W22209   6.632  18.032   1.627 -0.0307 -0.1644  0.0475
 8796W        W22210  12.104  14.670  15.264 -0.3528  0.1466  0.0499
 8797W        W22211  11.684   2.770  14.948 -0.1255 -0.0615  0.0301
 8798W        W22212   5.002  15.970  14.437  0.0973  0.0260  0.0534
 8799W        W22213   7.058  12.631  10.193  0.0566 -0.2554 -0.2422
 8800W        W22214  11.102  10.485   3.747 -0.4197  0.2449  0.3960
 8801W        W22215  14.108   8.313   4.639 -0.2279  0.1618 -0.2620
 8802W        W22216  17.534  11.866  11.147  0.0343  0.0705 -0.0641
 8803W        W22217   8.412   5.278  14.214 -0.2078 -0.1524  0.0604
 8804W        W22218  10.958   8.744   4.179  0.0307  0.2606  0.0148
 8805W        W22219  12.493  13.737   3.788  0.2333  0.1622 -0.0800
 8806W        W22220   9.461  12.368   2.529 -0.0512  0.1678  0.0106
 8807W        W22221   8.631   2.854   5.599 -0.0554  0.2325 -0.0845
 8808W        W22222   5.483   0.996  16.584  0.0195  0.1302  0.1011
 8809W        W22223   1.334  16.102   6.001 -0.0121  0.1486 -0.0042
 8810W        W22224   8.603  10.475   3.432 -0.0210 -0.3040  0.2954
 8811W        W22225  14.288  16.186  11.454 -0.0637 -0.0610 -0.0377
 8812W        W22226  11.745  11.959  12.382  0.1477  0.1988 -0.0099
 8813W        W22227   3.192   8.494   4.168 -0.0563  0.1847  0.0641
 8814W        W22228  11.254   0.557  11.391  0.2284 -0.2139 -0.0699
 8815W        W22229   9.609   9.581   5.467  0.0112  0.3048 -0.1937
 8816W        W22230  15.230   7.666  12.551 -0.0731 -0.0021 -0.2034
 8817W        W22231   4.681   7.221   3.773 -0.0084  0.0741 -0.2268
 8818W        W22232  17.296  10.393   1.468 -0.0289 -0.0600  0.2022
 8819W        W22233  16.978   0.765  13.067 -0.0250 -0.3327  0.1514
 8820W        W22234  12.205   7.786   4.145 -0.1215 -0.0617  0.1384
 8821W        W22235  10.728   6.076   0.696  0.0180 -0.0085  0.0319
 8822W        W22236  11.638   9.984   2.745 -0.0722 -0.1800  0.0415
 8823W        W22237  14.718  13.290   5.426  0.0016 -0.1423  0.0090
 8824W        W22238  14.573  13.116   6.324 -0.1771 -0.0357 -0.0825
 8825W        W22239   2.245  15.781  16.316  0.3978  0.1394  0.0284
 8826W        W22240  10.342  17.368   2.192 -0.0479 -0.3339  0.1665
 8827W        W22241   0.501   8.336   1.588  0.0673  0.1298 -0.0088
 8828W        W22242   0.011   3.883   3.176  0.0963 -0.1882  0.3027
 8829W        W22243   3.436  17.188   1.327  0.0295 -0.0147 -0.2505
 8830W        W22244  15.627  12.673   2.225 -0.1117  0.0820 -0.2086
 8831W        W22245  14.198  17.420  14.041  0.0398 -0.2442  0.0051
 8832W        W22246  13.353   9.828   0.348  0.1861 -0.0220  0.0683
 8833W        W22247  16.728   6.873   4.758 -0.1910 -0.0980 -0.0572
 8834W        W22248  13.154   9.125   1.329  0.1496  0.2357 -0.2467
 8835W        W22249  13.045  15.922   5.040 -0.2253  0.0943 -0.0029
 8836W        W22250   5.090   2.715   2.373 -0.1459 -0.1794  0.0044
 8837W        W22251   6.363   5.175   1.899  0.2011  0.3016  0.0471
 8838W        W22252   9.725  14.141   3.467 -0.0663 -0.0448  0.0549
 8839W        W22253  10.767  13.865  12.277 -0.1030  0.0548 -0.1485
 8840W        W22254  13.175  10.396   1.945  0.2525 -0.0603  0.2090
 8841W        W22255  17.436   3.967   2.634  0.0953 -0.1105 -0.1601
 8842W        W22256  13.741   2.039  12.365  0.1514 -0.2428 -0.2318
 8843W        W22257  11.217  14.753   0.303  0.1733 -0.1239  0.0004
 8844W        W22258  16.043  10.118  14.335 -0.2671 -0.0910  0.1109
 8845W        W22259  17.059   2.101   4.488 -0.0795 -0.1813 -0.2371
 8846W        W22260   8.120  11.919  14.008 -0.2093  0.0840 -0.0172
 8847W        W22261   4.601   4.814  15.477 -0.1868  0.0642 -0.0629
 8848W        W22262   3.392  10.610  13.180 -0.0906  0.0484 -0.0486
 8849W        W22263  11.871  14.292   4.078 -0.1834 -0.0078 -0.0613
 8850W        W22264  12.164   3.688   3.649  0.0788 -0.2605  0.0476
 8851W        W22265   5.305  11.064   4.098 -0.1015 -0.0033 -0.0764
 8852W        W22266  17.615  13.565  14.011 -0.0887 -0.1691 -0.3322
 8853W        W22267   4.070  16.758   1.831  0.0461 -0.0598 -0.1825
 8854W        W22268   3.771  11.025   3.180  0.0884 -0.0990  0.0597
 8855W        W22269   6.008  14.625   0.470  0.0476 -0.0008 -0.1851
 8856W        W22270  12.514   9.040   1.129 -0.1263  0.0456  0.1274
 8857W        W22271   7.287   5.854  11.657  0.0680  0.0603  0.1829
 8858W        W22272   4.263   7.067   0.697 -0.1462  0.1142 -0.0171
 8859W        W22273   9.688   4.448   0.426 -0.0942  0.0648  0.3107
 8860W        W22274   2.663  17.809  12.898 -0.0582 -0.0443  0.0398
 8861W        W22275  10.650   6.199  14.971 -0.2089 -0.1231  0.2508
 8862W        W22276   6.515  13.721   3.005 -0.0188 -0.0444 -0.1284
 8863W        W22277   9.002  16.017   1.330  0.0286  0.0838 -0.2301
 8864W        W22278  16.869   7.787   3.474 -0.1318 -0.2258 -0.0222
 8865W        W22279   1.528   5.041  12.969  0.4066 -0.3001 -0.0767
 8866W        W22280   8.994  10.984  11.981  0.3716 -0.0951  0.3349
 8867W        W22281   9.429  12.434   5.526 -0.0600  0.1477 -0.1024
 8868W        W22282  11.343  10.730  11.321 -0.1837 -0.3791  0.1287
 8869W        W22283   0.281  17.104  11.937  0.4053  0.2495  0.1117
 8870W        W22284   1.316   6.529   0.647 -0.0426  0.0021 -0.3895
 8871W        W22285   1.954   7.165  16.265 -0.0308 -0.1416 -0.0931
 8872W        W22286  16.574   8.834   5.792 -0.3479 -0.3728  0.4317
 8873W        W22287   3.894  11.127   3.653 -0.2724  0.1290  0.0007
 8874W        W22288  14.309   7.488  13.231 -0.1377 -0.1944 -0.3590
 8875W        W22289   5.968   8.200   6.387 -0.2805  0.0082  0.1162
 8876W        W22290  17.107  13.590  14.081  0.0404 -0.1971 -0.1343
 8877W        W22291   3.912   5.568  15.768 -0.0602  0.0926  0.2215
 8878W        W22292   9.676   0.357  15.522 -0.2218  0.1415 -0.2496
 8879W        W22293   1.495   9.688  14.513  0.3536  0.0724 -0.1974
 8880W        W22294   3.325   0.877   1.680  0.1533  0.1481 -0.0567
 8881W        W22295   7.591   6.205  12.979 -0.1491 -0.1678 -0.4068
 8882W        W22296  15.966   9.159  16.428  0.0062  0.0240 -0.2412
 8883W        W22297  10.819   0.254   3.543 -0.0216 -0.0111  0.0696
 8884W        W22298  13.503  15.960  12.580  0.2484  0.2446  0.0373
 8885W        W22299  10.173  15.647  10.310 -0.1253  0.1800 -0.1646
 8886W        W22300  13.143   2.756   2.947 -0.1113  0.2144 -0.1274
 8887W        W22301   4.575   5.006   1.613 -0.3564 -0.0877  0.0721
 8888W        W22302  17.312  16.771   3.449  0.0938  0.3439 -0.1375
 8889W        W22303  17.298   0.356  13.300  0.2015 -0.0372  0.3033
 8890W        W22304   6.137  13.895   6.028  0.1801 -0.0347  0.0823
 8891W        W22305   3.104  10.337  16.078  0.3930  0.1425 -0.4161
 8892W        W22306  11.388  11.085  12.700 -0.1211  0.0513 -0.1263
 8893W        W22307  15.113  11.380  16.636 -0.0589  0.0227  0.0152
 8894W        W22308  17.472   1.492   4.110 -0.1192  0.5315 -0.0947
 8895W        W22309   7.257   5.841   5.760  0.2543  0.2389 -0.2347
 8896W        W22310   2.253   0.026   0.101 -0.2842 -0.1516 -0.0400
 8897W        W22311  17.494  12.957   0.576 -0.1614  0.1220 -0.2880
 8898W        W22312  15.629  15.018   4.623  0.1723  0.3059 -0.0396
 8899W        W22313  14.578   2.743  11.945 -0.1142 -0.0493 -0.1241
 8900W        W22314  14.512   1.297   1.026 -0.1179  0.0015  0.0887
 8901W        W22315  14.662  15.126   3.612  0.1992  0.0361  0.1022
 8902W        W22316   4.611  10.542   3.545  0.1799 -0.0430  0.1369
 8903W        W22317   5.789   3.020  15.047  0.0153 -0.0383  0.0755
 8904W        W22318  12.408  14.926   5.279  0.0295 -0.0985  0.1599
 8905W        W22319   4.780  10.687  13.865 -0.2886 -0.2806 -0.1400
 8906W        W22320   6.737  13.076   4.402  0.1542 -0.3488  0.0990
 8907W        W22321   3.224   0.055   1.299 -0.1852  0.2625 -0.1671
 8908W        W22322  14.982   3.168  13.889 -0.4113 -0.0308 -0.0721
 8909W        W22323  13.911   5.925  15.550 -0.3574  0.3188 -0.0065
 8910W        W22324   1.593   1.820  11.625  0.0201 -0.0103  0.0190
 8911W        W22325   2.525   4.079  15.232  0.3706  0.0574  0.0739
 8912W        W22326   0.849  11.686  13.618  0.2409  0.2298 -0.0707
 8913W        W22327  10.001  13.926  13.438 -0.2123  0.2299  0.1577
 8914W        W22328   0.215  14.763  12.880  0.0878 -0.1315  0.3082
 8915W        W22329  11.833   0.270  13.542 -0.0035 -0.0150 -0.3180
 8916W        W22330   3.754   6.483  13.340 -0.1251  0.0722  0.0685
 8917W        W22331   7.927  15.872   3.486 -0.0615  0.0221 -0.1090
 8918W        W22332  10.020   7.753  12.466 -0.1066  0.2866  0.1238
 8919W        W22333   1.694   0.139   6.087  0.3127  0.0363  0.1421
 8920W        W22334   0.486  12.491   0.087 -0.0643  0.2154  0.0472
 8921W        W22335   2.627   6.235  16.237  0.1009 -0.1777  0.1709
 8922W        W22336  15.756   7.187  12.771 -0.0704  0.1460 -0.0387
 8923W        W22337   0.335   7.864  14.797  0.3303 -0.0487 -0.1100
 8924W        W22338   9.370   9.571  11.882 -0.2912 -0.2125  0.0203
 8925W        W22339   4.784  14.684  16.364  0.1907 -0.0256 -0.1009
 8926W        W22340  17.849   6.791   1.482 -0.0474 -0.0289 -0.0469
 8927W        W22341   8.601   3.056   3.695  0.0761 -0.0231 -0.1705
 8928W        W22342   3.611  14.738   3.346 -0.0679  0.0720 -0.0798
 8929W        W22343   4.907  10.136  15.376 -0.0085  0.0119 -0.1239
 8930W        W22344  16.852  16.172   5.056  0.1818  0.0454  0.1309
 8931W        W22345   6.819   0.805   3.290 -0.0415  0.0422  0.0077
 8932W        W22346   5.304   6.087   3.686  0.1765  0.1926  0.1281
 8933W        W22347   0.028  12.148  13.698  0.0808 -0.1076  0.0174
 8934W        W22348  10.656   5.859  16.099  0.1778 -0.2680 -0.1759
 8935W        W22349   2.282   0.666   0.513 -0.0698 -0.1356  0.0301
 8936W        W22350  10.280  14.673   3.824  0.1643 -0.0978 -0.0445
 8937W        W22351   6.466   1.436   6.132 -0.0776  0.0427 -0.3182
 8938W        W22352  11.948   9.399  15.845  0.0073  0.0824  0.1494
 8939W        W22353  14.295   6.260  14.954  0.2430  0.1554 -0.0424
 8940W        W22354   8.913   3.236  13.986  0.0965 -0.1101  0.0283
 8941W        W22355   3.494  10.567  10.811 -0.0326  0.0166 -0.0094
 8942W        W22356   5.790   8.316   5.449  0.0619  0.1806  0.4142
 8943W        W22357   7.867  17.175   0.709 -0.1538 -0.1436 -0.3010
 8944W        W22358   2.739  16.331   3.310  0.0285 -0.1426  0.2820
 8945W        W22359  15.283   3.805   5.419  0.0512  0.0092  0.1167
 8946W        W22360   3.321   4.714   1.889 -0.1011 -0.1216  0.2742
 8947W        W22361   5.756   4.891  12.227  0.0054 -0.0158  0.2611
 8948W        W22362  14.166   1.659  15.364 -0.2032 -0.2079  0.3612
 8949W        W22363   9.032  10.415  12.292 -0.2112  0.0313  0.0925
 8950W        W22364  11.458  17.879   0.231  0.1322 -0.2068  0.2238
 8951W        W22365   0.390  12.660   5.004  0.1034 -0.3180 -0.0837
 8952W        W22366  17.080  12.580  11.103 -0.1253 -0.0587  0.3494
 8953W        W22367  13.166  12.323   1.723 -0.2299 -0.0818  0.2215
 8954W        W22368  10.232  14.347  10.295 -0.0341  0.0534 -0.0973
 8955W        W22369   3.296   8.345   4.754 -0.0165  0.1750 -0.0002
 8956W        W22370  10.090   1.483  11.829  0.2466 -0.2665  0.3954
 8957W        W22371   3.872  14.238   4.321  0.1566 -0.1443  0.0054
 8958W        W22372  16.003  10.815   0.775 -0.0815 -0.1962 -0.1995
 8959W        W22373   8.294  17.376   2.071  0.0200 -0.1872 -0.2788
 8960W        W22374   3.912  13.723   1.439  0.2496 -0.3138  0.0506
 8961W        W22375   9.372   5.610   1.522  0.1716 -0.3566 -0.2448
 8962W        W22376  10.070  13.558  15.585  0.2171  0.1536  0.1484
 8963W        W22377  17.147   4.332   2.852  0.1156  0.0501 -0.1362
 8964W        W22378   0.559  11.384   2.463 -0.2268  0.1561 -0.0932
 8965W        W22379  13.180   9.818  16.515 -0.5277 -0.1377  0.0877
 8966W        W22380  11.579  12.093  14.202  0.1860  0.0010  0.0967
 8967W        W22381   6.535   9.228   2.998 -0.2021  0.1008  0.1715
 8968W        W22382  12.227  13.106   0.323 -0.1112 -0.0631  0.1359
 8969W        W22383  17.384  16.515  13.882  0.2680  0.0772 -0.3048
 8970W        W22384   7.964   0.523  10.479 -0.2315 -0.0353 -0.0055
 8971W        W22385   3.720   6.919   6.138  0.2347  0.0339  0.1429
 8972W        W22386   5.968  14.871   4.607 -0.0104  0.1934  0.1692
 8973W        W22387  16.228   1.179   1.025  0.0228 -0.3763 -0.2013
 8974W        W22388   9.541   8.882  14.223  0.3046 -0.0986 -0.3525
 8975W        W22389   4.572  14.570   2.175 -0.1918  0.3870 -0.0696
 8976W        W22390   7.448  14.950   0.335  0.3044  0.2848 -0.0675
 8977W        W22391   4.921   2.632  11.239  0.0085 -0.3483  0.1735
 8978W        W22392  11.772  11.956   3.716  0.0339 -0.0348 -0.0259
 8979W        W22393  12.298   0.632  15.422 -0.3898  0.2100  0.0585
 8980W        W22394   1.740  14.749   0.538 -0.2281  0.1369  0.2717
 8981W        W22395   9.242   0.303   2.233 -0.2099  0.0250 -0.0488
 8982W        W22396  10.649  13.518   1.934 -0.1750 -0.0087 -0.0567
 8983W        W22397   3.392  17.075   5.242 -0.2160  0.1357 -0.2393
 8984W        W22398  15.193   8.735   0.963  0.2494 -0.4488  0.2477
 8985W        W22399   8.771  11.764   5.286  0.1061 -0.3820 -0.3883
 8986W        W22400   0.366   8.135   3.628  0.0252  0.1590 -0.1345
 8987W        W22401   0.502  16.173   4.982  0.0181  0.0148 -0.5247
 8988W        W22402   1.372   5.122   6.101  0.1019  0.0012  0.0203
 8989W        W22403   5.035  14.689   3.010 -0.0891  0.2921 -0.0802
 8990W        W22404  10.455   3.361  13.325 -0.2536 -0.2974 -0.1272
 8991W        W22405   8.119   6.148   3.514 -0.1414  0.1111  0.1342
 8992W        W22406   5.436   7.535  15.184  0.2373 -0.1505 -0.1533
 8993W        W22407   3.656   9.070  10.497  0.0389  0.0745  0.1791
 8994W        W22408   0.950  13.762   2.249 -0.0961  0.0348 -0.0879
 8995W        W22409   0.741  13.523   4.189 -0.2067  0.1598 -0.0602
 8996W        W22410  16.279  14.736  14.238  0.3103 -0.2509 -0.0933
 8997W        W22411  17.713  16.278   6.234  0.0383  0.0228 -0.0174
 8998W        W22412  14.207   2.363   6.631  0.3202  0.3015 -0.1689
 8999W        W22413  15.138   3.216  11.236 -0.2983 -0.0451 -0.0080
 9000W        W22414   8.116  10.634  11.858  0.1056  0.1063 -0.0465
 9001W        W22415  12.427  14.153  10.596 -0.3389 -0.5140  0.4158
 9002W        W22416   1.263  13.631   3.019  0.1740 -0.0953 -0.3911
 9003W        W22417   6.249  14.197   3.647 -0.1053 -0.0898 -0.1343
 9004W        W22418   4.316  13.714  14.430 -0.1051 -0.0400  0.1074
 9005W        W22419   3.050  17.687  15.609 -0.0216  0.2648  0.0996
 9006W        W22420  17.617   1.016  12.317  0.0040  0.0016 -0.1014
 9007W        W22421   9.058   7.064   3.723 -0.0824  0.1091  0.1690
 9008W        W22422   4.314  12.845   2.323  0.0347  0.0458  0.1718
 9009W        W22423  13.342   1.869  12.623  0.0840  0.2528  0.1288
 9010W        W22424   2.254  14.672  13.056  0.4687 -0.0409 -0.1537
 9011W        W22425  11.233   6.157   0.571  0.1456 -0.0708  0.2566
 9012W        W22426   5.514  11.260  12.208 -0.0267  0.2041 -0.1642
 9013W        W22427   5.362   4.275   0.761 -0.2287  0.0434 -0.0415
 9014W        W22428  17.434  12.813  14.677  0.1420  0.0363 -0.1363
 9015W        W22429   2.393   2.015   6.529 -0.1165  0.1329  0.3087
 9016W        W22430   4.569   9.271   4.185 -0.1217  0.0939 -0.0588
 9017W        W22431  17.073   4.015   4.974 -0.1154 -0.1738 -0.4985
 9018W        W22432  14.379   5.389  11.210 -0.0297  0.2130  0.2756
 9019W        W22433  15.045   6.347   4.858 -0.1593  0.1249  0.2559
 9020W        W22434   8.722   4.484  16.627 -0.0344  0.3541  0.1822
 9021W        W22435   8.636  11.456   1.239 -0.4401  0.1482  0.1842
 9022W        W22436   0.303   0.831   0.703  0.0572 -0.0926  0.0389
 9023W        W22437  17.558   2.833  16.695  0.1330 -0.0233 -0.2972
 9024W        W22438  16.960   5.411   4.106  0.0893 -0.1799  0.0005
 9025W        W22439   8.142   4.262  16.543 -0.0332  0.1613  0.0041
 9026W        W22440   3.446   1.249   4.086  0.0583  0.1828  0.1717
 9027W        W22441   2.285  17.189  12.773  0.0521 -0.0192  0.0249
 9028W        W22442  11.319   8.433   3.384  0.1661  0.2659 -0.0628
 9029W        W22443  10.956   7.259   3.368 -0.2362 -0.0944 -0.0616
 9030W        W22444   8.152  12.186   3.663  0.0452 -0.0632 -0.1106
 9031W        W22445  10.769  16.093   2.360  0.1648  0.3252  0.1328
 9032W        W22446   4.720  14.486  13.307 -0.1400  0.0835 -0.0887
 9033W        W22447  16.257   9.769  15.279 -0.2848 -0.0645 -0.1440
 9034W        W22448   8.159   2.471   5.425 -0.0755  0.1230 -0.0571
 9035W        W22449  14.709  10.100   3.621  0.0563  0.1814  0.1587
 9036W        W22450  14.247   5.046  13.229 -0.0948  0.0300  0.0297
 9037W        W22451   8.285   1.579   5.208 -0.0895  0.0398 -0.2432
 9038W        W22452  14.858  11.399  11.619 -0.0237  0.0111 -0.1008
 9039W        W22453   3.603  17.150  11.145  0.0187 -0.1160  0.0659
 9040W        W22454   0.580   1.413  15.221  0.1078  0.1241  0.1353
 9041W        W22455   4.095  16.084   5.094 -0.1257  0.2592 -0.0466
 9042W        W22456   1.108   9.588   4.871  0.1956 -0.2093 -0.2042
 9043W        W22457  12.219  14.627   3.926  0.1961  0.3516  0.1363
 9044W        W22458   8.507   7.628  15.148 -0.0237  0.2714 -0.2733
 9045W        W22459   7.895   1.172   1.767  0.0039 -0.1105 -0.1857
 9046W        W22460   4.095   5.635  15.234 -0.0101 -0.2526  0.1853
 9047W        W22461   0.657  16.014   3.696 -0.0520  0.1083  0.0095
 9048W        W22462   6.957   4.501  14.089  0.3031 -0.0904  0.1481
 9049W        W22463  14.805   0.933  14.362 -0.1620 -0.0590 -0.2316
 9050W        W22464  15.169   1.355   4.843  0.0289  0.1083  0.0082
 9051W        W22465  10.475   5.431  16.266  0.1972  0.2345  0.0589
 9052W        W22466   5.451   4.420   1.237  0.1496  0.0442  0.0916
 9053W        W22467   1.676   5.763   0.245 -0.1713  0.0795 -0.0298
 9054W        W22468  14.124  14.571  16.222  0.1403  0.0124  0.1502
 9055W        W22469  10.281   9.977  11.839 -0.2880 -0.0193 -0.0167
 9056W        W22470  12.571   3.272   6.097  0.2247 -0.0898 -0.0378
 9057W        W22471   5.721  14.757   1.214  0.0661  0.1678  0.0215
 9058W        W22472   3.626   7.103  14.775  0.0029 -0.2949  0.0116
 9059W        W22473   9.799   5.481   4.797 -0.0728 -0.0176  0.1989
 9060W        W22474  12.000  11.519  12.414 -0.2861  0.0563 -0.4297
 9061W        W22475   7.495  11.318  14.730  0.0188  0.3308 -0.0519
 9062W        W22476  15.084   6.090  12.813  0.2639  0.0062  0.3273
 9063W        W22477   9.690   3.987  11.348  0.1796 -0.1672 -0.2806
 9064W        W22478   2.529   0.943  13.986 -0.1032 -0.1057  0.2549
 9065W        W22479   8.490   1.914  10.677 -0.0322 -0.2723 -0.2292
 9066W        W22480   3.707  12.403   3.567  0.0070  0.0391 -0.2159
 9067W        W22481   5.577  16.640  12.475 -0.0686 -0.0674  0.2197
 9068W        W22482   0.111   9.242   4.594 -0.1746 -0.1528  0.0015
 9069W        W22483   5.555   5.962  11.183  0.0630 -0.2943  0.1070
 9070W        W22484   6.159   3.359  16.432  0.1855  0.0687  0.2558
 9071W        W22485  15.095   0.196  12.523  0.0456  0.0156 -0.2156
 9072W        W22486  12.496   5.622   1.736 -0.1606  0.1920  0.0568
 9073W        W22487   1.743   4.105  15.730 -0.1664  0.1179  0.2637
 9074W        W22488  11.982   9.462   5.467  0.0658 -0.1420 -0.2756
 9075W        W22489  10.504   5.976  11.033  0.5055 -0.1442  0.2913
 9076W        W22490   7.191   9.808  16.216  0.0718 -0.2119 -0.1112
 9077W        W22491   5.408   7.942   5.466 -0.1718 -0.0092 -0.1443
 9078W        W22492  13.440   1.823   3.358 -0.1366 -0.0171  0.1009
 9079W        W22493   5.188   1.202  15.681  0.1500 -0.2138  0.1481
 9080W        W22494  15.029   9.204  13.449 -0.0788  0.0290 -0.2039
 9081W        W22495   2.704  17.747   0.824 -0.0868  0.2677 -0.2508
 9082W        W22496   1.424   8.848  14.250 -0.1141 -0.0415 -0.0061
 9083W        W22497   5.692  10.783  14.394  0.0758  0.0301  0.3738
 9084W        W22498   4.820  11.993   3.193  0.1146 -0.1663  0.1374
 9085W        W22499  17.639   7.017   6.463 -0.3420 -0.0930 -0.2059
 9086W        W22500   7.239  12.401  10.634 -0.0884  0.2207 -0.0451
 9087W        W22501  17.177  12.488   3.336  0.1471 -0.3988  0.4637
 9088W        W22502  10.530   1.593  16.325 -0.0838 -0.1883 -0.0633
 9089W        W22503   9.880   6.494   2.470 -0.0098  0.0102  0.1487
 9090W        W22504  12.140   3.833   1.931 -0.2042  0.1895 -0.3927
 9091W        W22505  12.878   3.602  15.046 -0.0290 -0.0057 -0.1953
 9092W        W22506  15.405  18.019  12.166 -0.1432  0.0623 -0.0086
 9093W        W22507  13.862   5.984   2.881  0.0512 -0.2590 -0.0390
 9094W        W22508  13.032   0.331   1.933  0.1918 -0.1781 -0.0477
 9095W        W22509   0.501   1.504   4.134 -0.3929  0.0226  0.1087
 9096W        W22510  14.278   0.118  13.763  0.1703  0.3588  0.1207
 9097W        W22511  11.890   7.166  14.865  0.0631  0.0483  0.3953
 9098W        W22512   1.504  12.299   1.266  0.1972  0.0826  0.1197
 9099W        W22513   5.419   6.270  12.796 -0.0634 -0.2362  0.2560
 9100W        W22514   8.096  12.998   4.806 -0.0758  0.0343  0.1759
 9101W        W22515   4.535  10.060   3.721  0.2137  0.0506  0.2546
 9102W        W22516   8.410   9.651  16.516  0.4034 -0.3702  0.1334
 9103W        W22517  10.460   7.767  16.222 -0.4204 -0.0127  0.0913
 9104W        W22518   2.671  13.027  15.177 -0.0608 -0.3212 -0.1547
 9105W        W22519  16.453  13.915  16.089  0.4397 -0.1184 -0.1416
 9106W        W22520   8.911   4.906   4.533  0.2339 -0.1198 -0.0425
 9107W        W22521   5.576   9.499   2.097 -0.1424 -0.1464 -0.0712
 9108W        W22522  16.094  17.339   3.131 -0.0487 -0.1593  0.1120
 9109W        W22523  14.395   8.767   1.927 -0.0124  0.1032  0.1242
 9110W        W22524  10.143   5.004  13.904 -0.0465  0.0624 -0.0558
 9111W        W22525  10.009  13.438  12.048  0.0897  0.0309 -0.2093
 9112W        W22526   3.981  14.511   0.679  0.0725 -0.0414  0.0118
 9113W        W22527  17.591   3.205  16.255  0.2878  0.3088  0.1540
 9114W        W22528   4.125   7.265  14.685 -0.1952  0.4790  0.3276
 9115W        W22529   4.039  16.898  11.181  0.1517  0.2954  0.1573
 9116W        W22530  11.073  10.704  16.188  0.2324  0.2537  0.0437
 9117W        W22531  12.467   8.189  12.939  0.0812 -0.0814  0.0824
 9118W        W22532  10.027   2.783  12.642  0.1837  0.2080  0.0744
 9119W        W22533   3.677  17.126   4.824 -0.0727 -0.0628  0.0047
 9120W        W22534   6.219   9.982  15.867  0.0612  0.3595 -0.1926
 9121W        W22535   0.744   1.751   6.687  0.1754  0.0613  0.1645
 9122W        W22536  13.142   8.611  10.796  0.1102  0.3589 -0.2988
 9123W        W22537   3.068  15.789   2.059  0.0206  0.1660  0.0854
 9124W        W22538  10.917   2.178   3.442  0.1814 -0.0245 -0.2030
 9125W        W22539  11.763   0.243   1.005  0.0372 -0.0806  0.1459
 9126W        W22540   3.074   4.340  15.433  0.0544  0.0252 -0.2046
 9127W        W22541  17.504   8.508  15.901  0.2153  0.0123 -0.2308
 9128W        W22542   7.167   5.365  11.780 -0.0940 -0.0535 -0.2025
 9129W        W22543  10.536  12.433  14.939  0.1474 -0.0080 -0.0304
 9130W        W22544  16.037  14.536   1.692 -0.2907 -0.2037  0.0901
 9131W        W22545   6.254   9.572  10.894 -0.0015 -0.0477  0.0695
 9132W        W22546  11.626   1.684   5.229 -0.0612 -0.2599  0.0689
 9133W        W22547   5.915   7.260   3.822  0.0784 -0.1233 -0.2196
 9134W        W22548   8.850  16.859   0.511  0.1453 -0.1301  0.1088
 9135W        W22549   8.265   6.492   6.204  0.0549  0.0735 -0.3307
 9136W        W22550   2.452  14.954  15.669  0.0743  0.1516  0.0938
 9137W        W22551  17.616   1.226  11.863  0.0119  0.3391  0.0875
 9138W        W22552  10.469   9.061  11.492  0.0408  0.2952  0.1191
 9139W        W22553   1.972   1.486  14.606 -0.1075 -0.0141  0.3319
 9140W        W22554   9.106  12.261  10.952  0.2108 -0.0411  0.2203
 9141W        W22555   9.476  12.830  12.517 -0.2241 -0.3058  0.1102
 9142W        W22556   7.926  14.905  13.637  0.3857 -0.1056  0.1604
 9143W        W22557   6.357  14.704  12.492  0.0606 -0.3886 -0.2610
 9144W        W22558  14.500  11.497  14.996 -0.0450 -0.0653 -0.0003
 9145W        W22559   0.249  13.878  15.247  0.1292  0.2616  0.1584
 9146W        W22560   9.348   4.958   3.342 -0.0829 -0.1240  0.0566
 9147W        W22561   7.339   1.153   5.516  0.3334  0.0259 -0.1392
 9148W        W22562   8.637   1.853   0.014  0.3046  0.1180  0.1002
 9149W        W22563   5.018  10.137   3.668 -0.1544  0.1621 -0.0803
 9150W        W22564   6.124   5.297  14.087  0.1919 -0.2597  0.0850
 9151W        W22565  14.273   8.556  13.348  0.2848  0.0211  0.0965
 9152W        W22566   9.914   5.363  16.017  0.0874  0.0998  0.4031
 9153W        W22567   7.704  15.480  11.508  0.2072 -0.2665 -0.2830
 9154W        W22568   6.936   6.769  14.864 -0.0922 -0.0241 -0.1730
 9155W        W22569   3.647   7.420   4.415 -0.0173 -0.0148  0.0036
 9156W        W22570  16.336   5.295  13.605 -0.1080  0.0259  0.0727
 9157W        W22571  17.524  13.488   1.318  0.1065  0.0383 -0.2167
 9158W        W22572   0.156  14.385  13.794 -0.2654  0.0701 -0.3190
 9159W        W22573  13.041   1.582   5.805 -0.0512  0.5696 -0.1593
 9160W        W22574  11.858  14.245  16.637  0.4459 -0.1159 -0.1390
 9161W        W22575   3.535   2.495  13.191  0.1161 -0.0178 -0.0695
 9162W        W22576   8.907  10.830   3.213  0.0983 -0.1225  0.0143
 9163W        W22577  17.002  11.025  11.178  0.0651 -0.0278 -0.3456
 9164W        W22578  17.270   3.799  11.782  0.0992  0.0403 -0.0146
 9165W        W22579  12.723  12.203  12.158  0.0816  0.0300 -0.1487
 9166W        W22580   9.785  12.871   3.697 -0.0278 -0.0794  0.2068
 9167W        W22581   5.696   9.978   5.521 -0.1427 -0.3857  0.0476
 9168W        W22582  16.880  12.084  13.820  0.1936 -0.1196  0.1875
 9169W        W22583   6.339   4.916  12.811 -0.1707  0.0408 -0.2465
 9170W        W22584   6.500  10.091   0.195  0.1402 -0.1710  0.1578
 9171W        W22585   6.884   2.748  12.681  0.2213  0.0593  0.3420
 9172W        W22586   1.786  16.500  16.145 -0.2269  0.0146  0.0923
 9173W        W22587   3.414   2.716   6.088 -0.1696  0.1352 -0.0720
 9174W        W22588  11.144  14.395   0.600  0.1114  0.0378 -0.3703
 9175W        W22589  14.595  12.793   0.281 -0.0288 -0.1412  0.2044
 9176W        W22590  13.461   7.793  12.394 -0.0844  0.0516  0.0592
 9177W        W22591  10.573  12.027  14.624 -0.0660  0.4220  0.1847
 9178W        W22592  14.661  16.316   6.010  0.1391  0.1493  0.1573
 9179W        W22593   3.018  11.788  12.861  0.1760 -0.0352 -0.0652
 9180W        W22594   6.485  17.552   0.275  0.0575  0.2089 -0.0341
 9181W        W22595   6.003   0.567   5.181  0.1363  0.1315  0.1497
 9182W        W22596  11.247   0.238  10.969  0.1198 -0.0903  0.2894
 9183W        W22597   7.752   8.847  11.167 -0.1835 -0.0742 -0.1524
 9184W        W22598   1.947  11.074   4.289 -0.1818  0.1630  0.3549
 9185W        W22599   5.146  12.131   5.791 -0.0296 -0.2204  0.4090
 9186W        W22600   2.003  11.492  14.177 -0.1125 -0.1753 -0.1034
 9187W        W22601  11.578   6.179   4.156 -0.3542 -0.0181  0.1094
 9188W        W22602  10.199   4.898   4.197 -0.2061  0.4891  0.4046
 9189W        W22603  16.842  11.900  11.668 -0.3294  0.0390 -0.1068
 9190W        W22604  16.507   2.620  14.497  0.1294 -0.0435  0.3139
 9191W        W22605   0.648   0.719   1.214  0.2309 -0.2272 -0.0223
 9192W        W22606   7.112   5.735   2.094  0.1006 -0.0497  0.1928
 9193W        W22607   3.841  15.241   4.999  0.1312 -0.0294  0.1279
 9194W        W22608   0.167   9.874  11.559  0.1711  0.1613 -0.1250
 9195W        W22609   5.658   9.035   2.370 -0.0231 -0.0839  0.2963
 9196W        W22610   2.493   0.683   2.534  0.0566  0.2019  0.1050
 9197W        W22611   8.564   5.918  15.602  0.2042 -0.1863  0.0038
 9198W        W22612  17.030  15.405   2.614 -0.1590  0.1944  0.0302
 9199W        W22613   8.978   6.699  15.667  0.0430  0.1884  0.0436
 9200W        W22614   3.113   4.575   3.216  0.0126  0.2500  0.0144
 9201W        W22615  14.332  11.517   5.866  0.2793  0.1691 -0.0231
 9202W        W22616   5.353  17.649  14.747 -0.0382 -0.2254 -0.0698
 9203W        W22617  10.974  10.949  13.025  0.2102 -0.1911  0.1538
 9204W        W22618  14.868  15.052   1.211 -0.1984  0.1483 -0.0024
 9205W        W22619   8.249   9.632  12.498  0.1004  0.1698 -0.3541
 9206W        W22620  13.789  10.716  13.465 -0.1134  0.1291 -0.2794
 9207W        W22621   2.493  11.350  14.219 -0.0324 -0.3341 -0.2663
 9208W        W22622   2.996  12.786  16.372  0.2276  0.3282 -0.0100
 9209W        W22623   2.786   7.634   5.844  0.1187  0.0384 -0.0586
 9210W        W22624   0.495   3.521   6.126 -0.1567  0.1996  0.2511
 9211W        W22625   8.280  10.551   2.612  0.4342 -0.1440 -0.1390
 9212W        W22626   9.592   7.149   0.643  0.2340 -0.3086 -0.2613
 9213W        W22627   3.120   5.288  16.387 -0.2253 -0.0504  0.0242
 9214W        W22628   0.846   3.783   6.268 -0.2081  0.1279 -0.0910
 9215W        W22629  13.112   4.546  12.976 -0.0958  0.0916  0.3393
 9216W        W22630  17.376   0.148   3.842  0.0997  0.0138 -0.1437
 9217W        W22631   7.561   0.527  15.666  0.1183 -0.0802 -0.3989
 9218W        W22632   6.605   5.190  13.891 -0.3583 -0.2110 -0.0513
 9219W        W22633  12.915  14.997   5.242 -0.0593 -0.1641 -0.3290
 9220W        W22634   0.687  14.956   6.288  0.2542  0.0467 -0.1628
 9221W        W22635  16.539  13.658   0.710 -0.0954 -0.1113  0.0459
 9222W        W22636   6.489   2.065  16.069  0.0622 -0.1850  0.1974
 9223W        W22637  12.722  14.900   0.068 -0.0519  0.1103  0.0691
 9224W        W22638   2.220   6.307  14.014  0.1833 -0.1453 -0.0600
 9225W        W22639  15.144  14.041   4.643 -0.1785  0.0380  0.1221
 9226W        W22640   3.588   1.742   1.696  0.2057 -0.0162 -0.0648
 9227W        W22641   5.699   0.225  10.754  0.2421  0.0853 -0.1478
 9228W        W22642   3.090  14.582   0.154  0.0516 -0.0605  0.1196
 9229W        W22643  13.200   2.461   4.893 -0.1552  0.0817 -0.1348
 9230W        W22644  17.092  13.314   5.590 -0.1807 -0.0876  0.3445
 9231W        W22645   2.981  12.175  14.853 -0.2500 -0.1418 -0.0684
 9232W        W22646   2.253  14.550  13.597  0.2649  0.1582 -0.3476
 9233W        W22647   1.684   4.719   4.214  0.1820  0.0263 -0.1807
 9234W        W22648   7.024  14.297  15.005  0.0338  0.1876  0.1702
 9235W        W22649   5.186   9.979   5.246 -0.2899 -0.1296 -0.0733
 9236W        W22650  16.849  11.732  12.395  0.1514  0.3990  0.2849
 9237W        W22651  16.431   9.589   4.768  0.0501 -0.0744  0.0080
 9238W        W22652   3.339  15.427  14.453 -0.2043  0.0856  0.0044
 9239W        W22653  14.321   4.502  11.648 -0.1037  0.1223 -0.0233
 9240W        W22654  13.483  17.384   2.267  0.0598  0.1218 -0.1040
 9241W        W22655   1.045   2.629  12.102  0.2002 -0.0250 -0.0761
 9242W        W22656  17.026   9.544  11.996 -0.2328 -0.1028 -0.1503
 9243W        W22657  11.677   1.414   4.458  0.0161  0.1703  0.1192
 9244W        W22658   8.723   3.678  16.635 -0.0953  0.0888 -0.0888
 9245W        W22659  11.297   3.252   4.315 -0.2403  0.1775  0.1110
 9246W        W22660   1.562   2.463  12.457  0.0028 -0.1460 -0.2881
 9247W        W22661   2.362   2.319   0.203 -0.0677  0.1178 -0.1409
 9248W        W22662  14.482   5.758   1.222  0.5147 -0.0392  0.1805
 9249W        W22663   0.763   1.007   5.297 -0.0598 -0.0618 -0.2472
 9250W        W22664  15.339   9.977   3.881 -0.1570  0.1660 -0.0226
 9251W        W22665  14.873   1.302  10.597 -0.0589 -0.2638  0.1388
 9252W        W22666   0.796  17.377   2.406 -0.0758 -0.0132 -0.4135
 9253W        W22667   9.241   8.994   2.604  0.1297  0.1971 -0.3165
 9254W        W22668   7.062  10.067   1.792 -0.1848  0.4106  0.1564
 9255W        W22669  15.485   5.860  12.499 -0.1078 -0.0913  0.1086
 9256W        W22670   6.421  10.288  12.274  0.0759 -0.2648  0.0608
 9257W        W22671   0.069   2.950  12.317 -0.1602  0.0555 -0.1377
 9258W        W22672   8.334   2.211  16.371  0.0501 -0.0772 -0.2476
 9259W        W22673  15.610   9.424  10.448  0.0703  0.1967  0.0101
 9260W        W22674   6.751   5.096  11.926  0.0683 -0.2241 -0.3315
 9261W        W22675   3.678  14.650   4.115  0.0513 -0.0142 -0.1525
 9262W        W22676  14.362   8.922  12.051 -0.1116  0.2529  0.0090
 9263W        W22677   7.064  15.250   0.216 -0.0415 -0.0996 -0.2326
 9264W        W22678   6.786  12.103  14.790 -0.1020 -0.1318 -0.1828
 9265W        W22679   3.227   1.476  12.020  0.1684 -0.3786 -0.3298
 9266W        W22680  13.998   4.730  12.552 -0.0121 -0.0692 -0.0329
 9267W        W22681   3.366  14.948   4.307 -0.2188  0.4621 -0.0633
 9268W        W22682   1.532   8.567   0.337  0.1406  0.1317 -0.1454
 9269W        W22683  10.655  15.151   4.673  0.0465  0.0553 -0.2965
 9270W        W22684  10.837   4.738  15.441  0.0455  0.0805 -0.0144
 9271W        W22685  13.885  11.700   6.181 -0.0804  0.1719 -0.0667
 9272W        W22686  11.283   1.366   5.483  0.2081  0.0764 -0.0271
 9273W        W22687  12.146  10.206   4.157 -0.0496 -0.2026  0.1413
 9274W        W22688  16.499   6.820  12.285  0.0321 -0.1265  0.0293
 9275W        W22689  14.574   1.219   0.481  0.1492  0.0700  0.4269
 9276W        W22690  10.721   4.704   2.312 -0.1158 -0.1174 -0.2083
 9277W        W22691   6.389   1.318  11.992  0.1677  0.0548  0.1072
 9278W        W22692   8.849   0.970   1.533 -0.1302 -0.0316  0.2574
 9279W        W22693   2.938   0.835  11.316  0.2403 -0.1493 -0.0843
 9280W        W22694  15.855  17.397  13.767  0.2026 -0.2205 -0.2676
 9281W        W22695  12.992  12.149  11.733 -0.1639 -0.0268 -0.2376
 9282W        W22696  11.353   7.958   1.745  0.3765 -0.1144  0.2808
 9283W        W22697  14.055   5.501   2.765  0.0867  0.2025  0.0566
 9284W        W22698  12.995  10.836   4.944  0.2258  0.0511  0.0145
 9285W        W22699  11.204   5.016   2.538 -0.0859  0.0021 -0.0943
 9286W        W22700  10.603   2.663  16.264 -0.3936 -0.0340  0.0063
 9287W        W22701  14.964  10.877   1.846 -0.0132 -0.2229  0.1614
 9288W        W22702  17.000  14.302   4.510 -0.1093  0.1035 -0.1330
 9289W        W22703  11.128   1.757  14.706 -0.2592 -0.0741 -0.2112
 9290W        W22704   8.645   6.700  14.706 -0.0463 -0.1035  0.3074
 9291W        W22705   1.299  13.939  13.634 -0.0298 -0.0075 -0.1798
 9292W        W22706  16.459   7.507   1.054  0.1437 -0.2353  0.1488
 9293W        W22707   6.769  11.730  14.349  0.2737 -0.0455 -0.0838
 9294W        W22708   2.115   0.173   5.622 -0.2160 -0.0435 -0.1376
 9295W        W22709   5.676   0.712  10.746  0.0770 -0.2331 -0.0486
 9296W        W22710   5.308  12.561   2.097  0.0238  0.0621  0.2030
 9297W        W22711   0.421   7.129   2.146  0.1214  0.1239  0.3318
 9298W        W22712   3.786   3.926   3.351  0.1232 -0.1547 -0.0695
 9299W        W22713  12.154   0.532   2.342  0.1023  0.1522  0.0908
 9300W        W22714   0.687   9.317  12.146 -0.0561 -0.5242 -0.4492
 9301W        W22715  11.516   9.799  12.846 -0.0653  0.1614 -0.0721
 9302W        W22716  15.406   4.083  15.505  0.0102  0.2046  0.0846
 9303W        W22717  15.999   8.830   1.382 -0.1612 -0.2555 -0.0116
 9304W        W22718   7.854  16.019  13.600 -0.1054  0.2940  0.4986
 9305W        W22719  17.095  16.942  16.383  0.0526 -0.1363  0.0858
 9306W        W22720   1.978   1.796  12.464 -0.2763  0.0259  0.3764
 9307W        W22721   1.576  16.470   5.777 -0.3954 -0.0235 -0.0225
 9308W        W22722   7.616  13.208   3.066  0.3021 -0.0130  0.1580
 9309W        W22723  12.945   5.382   1.829 -0.1773 -0.0333 -0.0882
 9310W        W22724  17.330  15.370  14.493 -0.0244  0.1079  0.2754
 9311W        W22725   0.997  12.897   4.679  0.4070  0.0289  0.4756
 9312W        W22726   1.070   7.409   1.315  0.2040 -0.0198  0.2789
 9313W        W22727  11.718  14.535   5.251  0.2808  0.0146  0.0944
 9314W        W22728  15.195   5.134  13.530  0.1430  0.0728 -0.2077
 9315W        W22729   5.941   8.149   3.775 -0.2145 -0.0356  0.0040
 9316W        W22730   1.317   6.969   3.295  0.0120  0.0311 -0.0003
 9317W        W22731  14.678   6.368   2.642 -0.1451 -0.1299  0.2796
 9318W        W22732  13.849   3.694   2.142 -0.0643 -0.0322  0.0452
 9319W        W22733  12.365   9.582   2.562  0.0694  0.2323 -0.2220
 9320W        W22734   3.430  14.239  16.647 -0.0966  0.3112  0.0758
 9321W        W22735  12.088  16.178  10.191 -0.1363 -0.0753 -0.1100
 9322W        W22736   1.680  17.279  12.570 -0.1850  0.0124  0.1119
 9323W        W22737   8.791  15.342  14.820 -0.2049 -0.2423 -0.0416
 9324W        W22738  15.046   0.938  13.226  0.2245 -0.1656  0.2361
 9325W        W22739  14.963   2.386   0.419  0.1421  0.0666 -0.0199
 9326W        W22740   9.429   9.219  12.438 -0.0312 -0.0534  0.1140
 9327W        W22741   4.527   1.428   4.143  0.0312  0.2812  0.1032
 9328W        W22742  13.359  10.595  11.848 -0.0313 -0.1427 -0.0243
 9329W        W22743  16.967   2.108   1.650  0.0200  0.0727  0.0017
 9330W        W22744  15.765  10.351   2.783  0.2017 -0.0884  0.0118
 9331W        W22745  15.516   1.642   2.735 -0.1592 -0.0176 -0.0107
 9332W        W22746   3.903   3.910  12.011  0.1008  0.0754 -0.0037
 9333W        W22747  17.620   9.593  13.782 -0.0455 -0.0563  0.0817
 9334W        W22748  14.572   8.130  15.393  0.1023  0.2407  0.0388
 9335W        W22749  16.571   1.208   5.298  0.2163 -0.0062 -0.0707
 9336W        W22750   2.252  16.761  15.990  0.1595 -0.3713 -0.0172
 9337W        W22751  15.074  15.029   3.244  0.4120  0.3282 -0.2488
 9338W        W22752  17.234  17.985   3.406 -0.1862 -0.1149  0.1747
 9339W        W22753  10.141  10.525  16.540  0.1604  0.3371 -0.0143
 9340W        W22754   1.304  15.291  11.036 -0.1396  0.2777 -0.0875
 9341W        W22755   1.331  14.957  11.535 -0.1154  0.0710  0.0080
 9342W        W22756  11.541  17.049  14.065  0.0498 -0.0235  0.3283
 9343W        W22757   2.215  13.945   0.677  0.1639  0.1022 -0.0859
 9344W        W22758   0.774  16.783   4.162 -0.1116  0.1868 -0.0352
 9345W        W22759   9.928   0.715  13.334 -0.0279  0.1593 -0.2978
 9346W        W22760  13.626   1.999   2.410 -0.2099  0.0312  0.0609
 9347W        W22761  17.083   2.378  10.733 -0.3400 -0.0868  0.5106
 9348W        W22762   2.463  17.793   5.258  0.2550  0.1653 -0.0834
 9349W        W22763  16.198  12.650  16.444  0.1399 -0.1537 -0.1944
 9350W        W22764   0.027  16.929  16.664 -0.1186 -0.3110 -0.1061
 9351W        W22765  16.663   4.945   1.921 -0.0119 -0.0449 -0.0332
 9352W        W22766   5.263  15.627  16.641 -0.1715  0.0115  0.0808
 9353W        W22767  17.621   1.276   2.800 -0.1393  0.0672 -0.0604
 9354W        W22768   6.973   3.523   4.987 -0.3298  0.0578  0.0488
 9355W        W22769   6.060   8.963  13.657  0.0262  0.2463  0.0179
 9356W        W22770  11.829   2.266  14.082  0.1769  0.0475 -0.2447
 9357W        W22771   6.330  11.230  12.706 -0.1566 -0.4125 -0.1553
 9358W        W22772   3.442   3.275  12.610 -0.0122 -0.0134  0.0435
 9359W        W22773   7.642  11.847   5.420 -0.1521 -0.0279 -0.0452
 9360W        W22774  11.344  16.940  14.588 -0.1262  0.0209 -0.1678
 9361W        W22775   2.198   0.739   3.987 -0.0804  0.1204  0.3667
 9362W        W22776  13.582  11.592  11.921  0.1839 -0.0591 -0.3088
 9363W        W22777  16.965   7.169   5.956  0.3258  0.0930  0.2476
 9364W        W22778  11.386   0.319  12.310 -0.1088 -0.1703 -0.1359
 9365W        W22779   2.544   3.956  14.690  0.1461 -0.0243 -0.1925
 9366W        W22780  16.283   1.303  13.715 -0.0458  0.1429  0.1101
 9367W        W22781   5.437  11.170  13.064 -0.0454 -0.0028  0.2816
 9368W        W22782  11.159  10.594  12.486  0.0672  0.0382  0.0433
 9369W        W22783   6.727   0.035   2.133  0.0757  0.0425 -0.0118
 9370W        W22784  13.763   4.266  11.871 -0.0703 -0.2739  0.1460
 9371W        W22785  11.375   5.908   4.876 -0.0042  0.1394 -0.0275
 9372W        W22786   1.980   1.389   2.231  0.0274 -0.2164  0.0478
 9373W        W22787  15.060  11.422   4.167  0.4107 -0.0069  0.2207
 9374W        W22788  10.099  12.258  15.683 -0.1714 -0.1517  0.0880
 9375W        W22789  16.052  14.521   1.056 -0.0639 -0.0814 -0.3427
 9376W        W22790   1.927  15.265   2.969  0.2043  0.2132 -0.0690
 9377W        W22791   0.673  13.601  12.022  0.1290 -0.0329  0.0372
 9378W        W22792  17.637  14.885   4.064 -0.0264  0.2990  0.3396
 9379W        W22793   7.021   6.571  12.269 -0.2628 -0.1524  0.1567
 9380W        W22794  12.743  12.970   3.269 -0.2944  0.2024 -0.0642
 9381W        W22795   9.686  10.307  10.659 -0.2300  0.1000  0.4034
 9382W        W22796   8.076  16.036   9.989 -0.3719  0.0054 -0.2830
 9383W        W22797   6.384  17.647   3.648 -0.4117 -0.1687 -0.0130
 9384W        W22798   7.899   0.790  10.884  0.1068 -0.1387  0.0288
 9385W        W22799  15.400  15.530  16.397  0.3963  0.2306  0.1151
 9386W        W22800   5.978   5.306  16.425  0.0852  0.4216 -0.1493
 9387W        W22801   9.866   6.794  11.166  0.0345 -0.0200  0.1645
 9388W        W22802  17.042  15.466   5.277 -0.0747 -0.2491  0.1409
 9389W        W22803  11.176   8.474   0.988 -0.0152  0.0629 -0.2437
 9390W        W22804   2.380   0.378  14.100 -0.2231  0.1934  0.0715
 9391W        W22805  13.799  10.860  14.498 -0.1585  0.2129 -0.0740
 9392W        W22806  11.264   5.777  15.412 -0.0114 -0.2148  0.1834
 9393W        W22807  12.816  18.019   2.291  0.2050 -0.0868  0.0704
 9394W        W22808   0.662  12.193   5.278  0.3566 -0.2089 -0.1764
 9395W        W22809   2.285   6.768  15.536 -0.1319 -0.0228  0.1497
 9396W        W22810  11.537  12.705   5.305 -0.0618  0.1430  0.0958
 9397W        W22811   0.964   6.962   2.229 -0.0544  0.1319  0.1786
 9398W        W22812  12.525  17.608  13.371  0.0439  0.0471  0.0371
 9399W        W22813   1.762   8.080   4.982  0.1210 -0.0731  0.0063
 9400W        W22814   1.186   9.106  15.872  0.4551  0.2010  0.1718
 9401W        W22815  17.675   9.721   4.191 -0.0391  0.0406 -0.1440
 9402W        W22816  14.750   8.392   2.454 -0.1896 -0.1190  0.1325
 9403W        W22817   9.715   9.342  13.433 -0.2807 -0.0648 -0.1989
 9404W        W22818   7.519   6.200  14.625  0.0738  0.0597  0.0781
 9405W        W22819   1.410   6.832   5.549 -0.2164 -0.3127  0.0399
 9406W        W22820  11.146   8.207   5.502  0.2201  0.0970 -0.2094
 9407W        W22821   4.424   6.669   5.760  0.1938 -0.1371  0.1580
 9408W        W22822   4.231  13.384  13.998 -0.0046 -0.0125  0.0099
 9409W        W22823   8.651   0.549   4.369 -0.2439  0.0504 -0.2255
 9410W        W22824   1.392  14.837  15.030 -0.0787  0.0533 -0.0369
 9411W        W22825  17.123   0.651   0.264  0.0984 -0.0980  0.2548
 9412W        W22826   8.957  17.488   2.762 -0.0109  0.5399  0.0953
 9413W        W22827   4.466  17.619  12.129 -0.1063 -0.1132  0.0272
 9414W        W22828   8.368  17.077   6.012  0.1063 -0.2174 -0.1311
 9415W        W22829   2.192  15.037  13.916 -0.0235  0.1471  0.0186
 9416W        W22830   5.158  12.414  13.621  0.1355 -0.0559  0.2023
 9417W        W22831  12.059   1.140   2.110  0.0859  0.3140  0.0284
 9418W        W22832   5.214  12.970   5.601 -0.3467 -0.0098  0.0450
 9419W        W22833   5.516   6.466   3.351 -0.2917 -0.1401 -0.2038
 9420W        W22834  16.211  12.736   0.219 -0.1077 -0.2142  0.1179
 9421W        W22835   2.372  14.205  13.250  0.0915  0.1660  0.3150
 9422W        W22836  17.915   5.982   0.433  0.3396  0.0661  0.3354
 9423W        W22837  11.626  15.622   6.433 -0.1679  0.3475 -0.3523
 9424W        W22838   3.444   4.129  14.928  0.0421  0.2836 -0.2342
 9425W        W22839  11.468  16.129   4.925  0.3030  0.0364 -0.1481
 9426W        W22840  12.150   0.650  16.401  0.0282  0.2894 -0.2034
 9427W        W22841  12.566   3.383   4.412 -0.0475 -0.1644 -0.1033
 9428W        W22842   9.329   1.869   3.413  0.1086 -0.0090  0.1972
 9429W        W22843   9.155   8.131   4.613  0.0631  0.1104  0.2188
 9430W        W22844   6.473  16.143   5.924  0.1406  0.1424  0.1314
 9431W        W22845   2.616  11.805  12.460  0.1640  0.3048  0.1389
 9432W        W22846   5.432   5.674   3.916  0.2301  0.0146 -0.1655
 9433W        W22847  14.347   9.846  10.327 -0.1982 -0.0770  0.2426
 9434W        W22848   9.078  15.429  12.840 -0.3527  0.0603  0.0035
 9435W        W22849  11.864  11.184   4.513  0.2781  0.1027  0.0532
 9436W        W22850   9.597   5.149  12.816 -0.0741 -0.0097 -0.2410
 9437W        W22851   5.678  14.803   2.329  0.0506  0.2468 -0.2295
 9438W        W22852  16.349  17.704  14.845  0.1345 -0.0765  0.5932
 9439W        W22853   8.110   2.721  11.886 -0.1187 -0.0920  0.1578
 9440W        W22854  14.694   7.279   5.274  0.0238  0.1681 -0.1470
 9441W        W22855   8.424  15.118  15.108 -0.0728 -0.0907 -0.4515
 9442W        W22856   7.434  14.841   5.552 -0.0665  0.3401 -0.0373
 9443W        W22857   5.645  15.981  15.406 -0.1505  0.2552  0.4420
 9444W        W22858   5.622  17.350   2.210  0.1332  0.2324 -0.0546
 9445W        W22859   3.318   3.740  10.604  0.3479 -0.0790  0.1423
 9446W        W22860  12.168  16.701   3.262  0.1605 -0.1433 -0.2171
 9447W        W22861  15.656  14.477   0.381 -0.0953 -0.2629 -0.1850
 9448W        W22862  17.473  13.676  13.413 -0.1201 -0.0771  0.2638
 9449W        W22863  17.738   5.371  14.911 -0.1273 -0.0335  0.0889
 9450W        W22864  16.755   8.494  12.645 -0.0849 -0.0842 -0.1812
 9451W        W22865   9.849   5.123  11.019 -0.0475 -0.0123  0.0434
 9452W        W22866  14.834   0.203   5.523  0.1886 -0.0834 -0.1058
 9453W        W22867   7.920   8.859   0.468  0.1674 -0.3162  0.1784
 9454W        W22868  13.302   7.336  15.503 -0.3625  0.0230  0.2068
 9455W        W22869   6.385  12.293   4.235 -0.1667  0.1324  0.3327
 9456W        W22870   8.801   0.673  15.030 -0.1937 -0.0896  0.0894
 9457W        W22871   2.289   4.856  13.602  0.1907 -0.1468 -0.0344
 9458W        W22872   6.945  13.341  14.396  0.0268  0.2813 -0.2064
 9459W        W22873   0.812   3.732   4.954 -0.0685  0.2241 -0.2027
 9460W        W22874   4.865   3.409   0.810  0.2975 -0.0194  0.2489
 9461W        W22875  15.856  11.780  16.682  0.1005 -0.1607 -0.1021
 9462W        W22876   2.562  15.125  16.464  0.0553  0.2191 -0.1352
 9463W        W22877   5.136  13.202  16.448 -0.3711  0.2627 -0.2729
 9464W        W22878  15.326   1.396   3.168 -0.0890  0.1059  0.0680
 9465W        W22879  11.428   2.636   0.871 -0.0125  0.1641 -0.2018
 9466W        W22880   8.740   6.848   4.441 -0.2707  0.0008  0.1534
 9467W        W22881   8.902   9.061   0.488  0.2501  0.0481 -0.3796
 9468W        W22882   7.698   2.545   0.811  0.1617 -0.1189 -0.3439
 9469W        W22883   7.124   7.432   3.981  0.2482  0.0181 -0.0992
 9470W        W22884   3.169   6.334   3.454 -0.1088 -0.0456 -0.0575
 9471W        W22885  13.218  14.632   3.054  0.0926  0.1471 -0.0798
 9472W        W22886   8.526  10.765  12.162  0.0034  0.0424  0.0876
 9473W        W22887   9.739  11.686  10.661  0.0061 -0.1204 -0.2252
 9474W        W22888  13.545  10.165   4.860  0.0767  0.2188 -0.0581
 9475W        W22889  15.115  16.249   5.910 -0.0971  0.1617  0.0088
 9476W        W22890  15.894   2.826   2.340  0.0301 -0.1773 -0.0778
 9477W        W22891  15.319   6.915   0.939  0.0041 -0.3213 -0.0464
 9478W        W22892  10.421   4.997   3.270 -0.0656  0.0957  0.0550
 9479W        W22893  16.358  14.549   3.587 -0.3903 -0.0905 -0.2695
 9480W        W22894  16.462   7.655   6.750  0.0553 -0.0959  0.2900
 9481W        W22895  10.014  12.236   4.893 -0.0341  0.0645  0.0671
 9482W        W22896   9.262  10.609   4.084 -0.1035 -0.2476  0.0991
 9483W        W22897   4.614   0.542  14.032  0.5618 -0.0162  0.1098
 9484W        W22898  11.507  12.183   3.270 -0.0523 -0.2655 -0.1721
 9485W        W22899   1.112   6.465   5.328  0.1970 -0.3194  0.2013
 9486W        W22900   9.337   1.845  11.937  0.2067 -0.1634 -0.1617
 9487W        W22901  13.557   3.257   5.945 -0.1817 -0.1047 -0.3196
 9488W        W22902   1.900   1.165   4.133  0.0745 -0.2607 -0.0718
 9489W        W22903   0.138  12.910  11.504 -0.4837 -0.0170 -0.0171
 9490W        W22904   1.530   5.005   1.530  0.2017  0.0629  0.0009
 9491W        W22905   4.181   9.628  16.549  0.2320  0.1621  0.2035
 9492W        W22906   6.791   5.993   5.642 -0.0722 -0.0592 -0.0170
 9493W        W22907   8.861   1.101  14.377  0.0337  0.2854 -0.0899
 9494W        W22908  16.918  11.716  15.710  0.2702  0.2132 -0.1986
 9495W        W22909  12.061  16.212  12.041  0.0640  0.0201 -0.1525
 9496W        W22910  11.328   5.329   2.927  0.0378 -0.0179 -0.0438
 9497W        W22911   5.743  14.495   4.343  0.3743 -0.0805  0.0272
 9498W        W22912  10.013  13.328  13.352  0.1277  0.0704 -0.1792
 9499W        W22913  16.020   3.233  13.142  0.4677  0.0990 -0.2361
 9500W        W22914  14.016  12.200   3.915 -0.2789 -0.1369 -0.0140
 9501W        W22915  14.346   8.614  12.475 -0.1185  0.0154  0.3372
 9502W        W22916   6.950   5.052   3.061  0.1703  0.2002 -0.0417
 9503W        W22917   7.315  13.737  12.534  0.2796 -0.2824 -0.0290
 9504W        W22918  12.010  14.497   1.141 -0.0640 -0.0452 -0.0305
 9505W        W22919  17.027   6.559  11.602 -0.1940  0.0227  0.0602
 9506W        W22920   0.864   5.098   1.528  0.1697  0.0042  0.0210
 9507W        W22921   8.981   1.490   1.259 -0.1258  0.2558  0.1546
 9508W        W22922   8.090  16.929  13.181  0.3777 -0.0616  0.0883
 9509W        W22923  12.541   5.051  16.452  0.0405  0.0308  0.0811
 9510W        W22924   6.401   8.388  13.067  0.1179 -0.2052  0.0163
 9511W        W22925   1.348  11.411  11.979 -0.2953 -0.1097  0.1267
 9512W        W22926  15.146  12.540  15.890  0.2672 -0.1765  0.0613
 9513W        W22927   4.744   6.999  15.416  0.3023  0.1059 -0.1906
 9514W        W22928   6.013  17.637   0.517  0.0095  0.2089  0.0667
 9515W        W22929  13.817  11.477  15.483  0.0631 -0.1246 -0.1540
 9516W        W22930   5.043  11.258  10.285 -0.1143  0.1545  0.0755
 9517W        W22931  16.681   3.789   5.360  0.3066 -0.0600 -0.1726
 9518W        W22932  16.725   0.765   4.261 -0.5318  0.2237  0.0262
 9519W        W22933   3.467   6.220  13.053  0.3547 -0.0017  0.3820
 9520W        W22934   7.925  16.056  13.094  0.1402 -0.2565 -0.1170
 9521W        W22935   0.935   8.678  15.860 -0.4330 -0.0078 -0.2858
 9522W        W22936   0.791   6.580  11.999 -0.1401  0.1368 -0.0537
 9523W        W22937  13.149  10.409  13.057  0.1466  0.4881  0.3734
 9524W        W22938   1.606  13.061   2.854  0.4094  0.1075 -0.0640
 9525W        W22939  13.910   6.401  14.543 -0.2675  0.0213  0.3312
 9526W        W22940  17.114   4.770   0.618  0.0850  0.2260 -0.2719
 9527W        W22941   8.540   5.360  10.908  0.0395 -0.0399 -0.1277
 9528W        W22942  14.447   9.399   5.891 -0.0594 -0.1986 -0.0386
 9529W        W22943   9.188   6.348  10.078 -0.0033  0.0339 -0.2647
 9530W        W22944  16.158  10.278   1.876 -0.1983 -0.1693 -0.3685
 9531W        W22945   8.798   1.420   1.727 -0.3964  0.0757 -0.1459
 9532W        W22946  15.407  15.650   4.214 -0.0606 -0.4009 -0.0359
 9533W        W22947  15.297  10.086   0.836  0.1513 -0.1129  0.0310
 9534W        W22948   1.798  13.669   0.647 -0.1610 -0.5546 -0.0615
 9535W        W22949   6.604  16.739   0.715  0.2202 -0.1680 -0.2880
 9536W        W22950  13.682   9.438   1.603  0.0130 -0.0130 -0.2184
 9537W        W22951  15.018   5.661  14.733  0.2015  0.1027 -0.0345
 9538W        W22952  11.693  13.395   2.780  0.0764  0.0330 -0.2749
 9539W        W22953   8.970  13.033   4.676 -0.1668  0.1814 -0.1277
 9540W        W22954   4.725  10.745   0.486 -0.2165  0.3588  0.1011
 9541W        W22955  17.899  13.293  12.558  0.1266  0.2262 -0.0004
 9542W        W22956   2.604   4.096  14.214 -0.0076 -0.2890 -0.1223
 9543W        W22957  10.834  16.929  10.541  0.3362 -0.1837 -0.0792
 9544W        W22958   4.051   8.402   6.183  0.0499  0.4156 -0.2986
 9545W        W22959  11.511   5.740   0.576  0.0135 -0.2091 -0.3134
 9546W        W22960   9.452  10.699   1.054  0.0950 -0.2473  0.1645
 9547W        W22961  13.474  10.738  10.813  0.0266  0.2952  0.3598
 9548W        W22962   2.599   3.259   1.995  0.0447  0.0917  0.0729
 9549W        W22963   5.152  14.838   4.899  0.1890 -0.1217  0.0204
 9550W        W22964  12.952   6.630   6.144  0.0394  0.0402  0.0330
 9551W        W22965  14.655  14.927   2.905  0.2337  0.0168 -0.2819
 9552W        W22966   6.702   3.316   4.606  0.0134  0.1576  0.0810
 9553W        W22967  12.743   3.420  15.596  0.0415  0.0548 -0.3491
 9554W        W22968   9.945   3.763  14.699  0.1149  0.0818  0.0050
 9555W        W22969   6.268  14.043   0.216 -0.2610  0.0460  0.2579
 9556W        W22970  10.786   2.918  11.541 -0.1381  0.1330  0.0145
 9557W        W22971   2.355   4.679  10.755  0.1183 -0.1252  0.2157
 9558W        W22972   9.660   8.396  15.033  0.3099  0.0219 -0.2706
 9559W        W22973   0.425  11.374   3.611  0.0227  0.0116 -0.0385
 9560W        W22974   1.943  17.466   3.638  0.1555  0.3256 -0.1045
 9561W        W22975   1.041   0.490  15.546  0.0135 -0.5960 -0.1246
 9562W        W22976   2.823  12.426  16.000  0.2006  0.1318  0.0728
 9563W        W22977   1.593  15.848   0.857 -0.0758  0.0317  0.1877
 9564W        W22978  12.250  16.029   2.770  0.0992  0.2560 -0.0510
 9565W        W22979   7.177   4.465  10.616 -0.2196  0.0545  0.0899
 9566W        W22980   5.904   2.391  10.933 -0.2987  0.1295  0.1167
 9567W        W22981  12.537  17.873   0.165  0.0001 -0.0379  0.0631
 9568W        W22982   4.863   9.615   4.418  0.2286  0.0415  0.0673
 9569W        W22983  11.496  11.821   1.884 -0.1225  0.0022 -0.1659
 9570W        W22984  10.859   9.332  16.211  0.2339  0.0060 -0.1420
 9571W        W22985   9.803  11.022  12.184  0.1664 -0.1801  0.2420
 9572W        W22986   7.364  16.750   2.230  0.3391 -0.2992 -0.0918
 9573W        W22987   9.528  12.957  14.659 -0.1445 -0.0846  0.1058
 9574W        W22988  16.349  17.557   3.779  0.0082  0.2279 -0.1982
 9575W        W22989  16.020   7.531  10.903  0.0751  0.0496 -0.2923
 9576W        W22990   2.813   1.776   3.406  0.0328  0.0821 -0.1200
 9577W        W22991   9.086  13.359  14.212  0.1091  0.0411  0.3138
 9578W        W22992  17.411  15.166  11.974 -0.0797 -0.1295  0.2994
 9579W        W22993   3.304   8.647  15.861  0.0365  0.2309 -0.0263
 9580W        W22994   6.879   9.849   4.813  0.0514  0.1723  0.3709
 9581W        W22995  11.908  10.258  12.287  0.0593  0.1366 -0.2101
 9582W        W22996   6.353  16.979   0.027  0.0247  0.0979  0.1544
 9583W        W22997   0.055  16.352  12.874 -0.0802 -0.0139  0.0668
 9584W        W22998  14.342   5.629   3.574 -0.2627 -0.1541  0.1815
 9585W        W22999   5.645  10.627  13.386 -0.1410 -0.0220 -0.1520
 9586W        W23000   5.947  10.033   0.327 -0.1536 -0.0386 -0.1367
 9587W        W23001   3.420  10.137  15.649  0.3186 -0.1492  0.0268
 9588W        W23002  11.161   3.778  12.987 -0.1695  0.0813 -0.0199
 9589W        W23003   3.003   3.481  15.277  0.0767  0.0765  0.0222
 9590W        W23004  14.186   6.465  16.429  0.0579 -0.0005 -0.0139
 9591W        W23005   2.985   5.462   1.218 -0.1505 -0.0799  0.0753
 9592W        W23006  15.397  17.656  14.465  0.0677 -0.1284 -0.1701
 9593W        W23007   5.034   9.831  16.498 -0.0510  0.0681  0.0114
 9594W        W23008  16.218  16.280  13.027 -0.1592 -0.1411 -0.1494
 9595W        W23009   1.789  12.793  15.145  0.0716 -0.1452 -0.1091
 9596W        W23010  15.973   9.727  11.931 -0.1845 -0.2436 -0.0407
 9597W        W23011  10.763   4.526   5.828  0.1701 -0.1109  0.0775
 9598W        W23012  13.771  16.637   0.473 -0.0078 -0.2264  0.3239
 9599W        W23013  10.827   1.084   0.523  0.0333 -0.1932 -0.0193
 9600W        W23014  12.520   1.842  14.665 -0.0938 -0.0533  0.1173
 9601W        W23015   4.949  17.820   6.538 -0.0315 -0.1108 -0.3145
 9602W        W23016  15.371  16.857  11.296  0.0250  0.2177 -0.0146
 9603W        W23017  17.699  14.296  16.532 -0.0249 -0.0911  0.2966
 9604W        W23018  16.721   3.964  15.849  0.0969 -0.1081  0.2008
 9605W        W23019  15.431  14.738  13.664  0.0469  0.3929 -0.1727
 9606W        W23020   6.907   7.586  12.294 -0.0915 -0.2847 -0.1064
 9607W        W23021   8.068   7.525  13.431  0.1044 -0.0386  0.2568
 9608W        W23022   3.708  14.631  12.181 -0.0920 -0.2534 -0.0214
 9609W        W23023  14.435  13.108   1.463 -0.1703 -0.1044  0.4252
 9610W        W23024  11.890  14.331  10.542 -0.1668 -0.0253  0.1429
 9611W        W23025  17.175  10.704  12.315  0.0334  0.0865 -0.1611
 9612W        W23026   7.316  13.940  11.699 -0.1586 -0.0255 -0.1405
 9613W        W23027   4.063   8.273   3.811  0.1753 -0.0306  0.1395
 9614W        W23028   0.959   4.360  11.605 -0.0507 -0.1308  0.0391
 9615W        W23029  11.966  12.448  12.514 -0.0162  0.0622 -0.0685
 9616W        W23030  15.104  11.109   6.021 -0.0257  0.0409 -0.2442
 9617W        W23031   6.873  13.542   2.602  0.0260  0.0295 -0.1698
 9618W        W23032  10.061  12.557   4.088  0.1341 -0.0962  0.1295
 9619W        W23033  13.947  11.963  13.018  0.0014  0.3179 -0.2706
 9620W        W23034  12.189   2.497  11.480 -0.4622 -0.0984  0.1758
 9621W        W23035  16.663  16.147  11.247  0.1439  0.3481  0.1378
 9622W        W23036  10.106   0.715   1.199  0.2788 -0.1643  0.1736
 9623W        W23037  13.960  14.223   3.934  0.1802 -0.1139  0.1069
 9624W        W23038   6.187  13.299   3.624  0.0604 -0.0761  0.0782
 9625W        W23039   6.852   5.565  12.137  0.3443 -0.3537 -0.1557
 9626W        W23040   7.573  12.138  14.144  0.1864 -0.2185 -0.4077
 9627W        W23041   4.712   8.035  13.110 -0.0046 -0.3098  0.0967
 9628W        W23042   6.382  12.729  12.954  0.0011 -0.1291 -0.0853
 9629W        W23043   9.604   7.203  16.418 -0.0603  0.0646  0.1645
 9630W        W23044   7.731   7.139   2.546  0.4081 -0.2396  0.3443
 9631W        W23045  12.834   9.248   4.320 -0.0270 -0.1989  0.0445
 9632W        W23046  11.971  13.910  15.051 -0.1280 -0.0339 -0.4164
 9633W        W23047  12.806  17.260  13.652  0.2485  0.0020  0.1999
 9634W        W23048   6.081   8.868   4.366  0.1093 -0.1511 -0.1032
 9635W        W23049   1.278   2.409  12.930  0.2137  0.2912 -0.0387
 9636W        W23050  11.113   3.069   3.845  0.0042  0.1417  0.2072
 9637W        W23051  11.153  12.581   0.785  0.0464  0.1914 -0.2098
 9638W        W23052   1.668  12.947  13.865 -0.3278 -0.0219 -0.0656
 9639W        W23053  17.915  11.128   5.992  0.0880 -0.1749  0.1260
 9640W        W23054   3.640  15.283   3.448  0.0037  0.0580  0.3429
 9641W        W23055  14.681   9.498  16.301 -0.0534  0.0636 -0.0262
 9642W        W23056   6.230  13.636  14.404 -0.0245  0.1774 -0.2426
 9643W        W23057   6.343   7.645  12.595 -0.3053  0.0432  0.0233
 9644W        W23058   2.961   2.946  15.988  0.1050  0.1059  0.1926
 9645W        W23059  10.840   9.436   4.850  0.0129  0.0959  0.1556
 9646W        W23060   0.249  16.819  12.697  0.0772 -0.1243  0.1715
 9647W        W23061  16.975   0.485  14.417  0.0234 -0.0818  0.0432
 9648W        W23062  15.048   6.775  12.254  0.2254  0.0606  0.3925
 9649W        W23063   1.065   2.132   3.545 -0.0678 -0.2811 -0.2094
 9650W        W23064  17.834  15.737   4.036  0.2394 -0.0236 -0.0077
 9651W        W23065   7.748   4.766   0.720 -0.0549  0.3594  0.0297
 9652W        W23066   6.229  11.652   1.754  0.0085 -0.0963 -0.1732
 9653W        W23067   5.754  13.657  14.628  0.0318  0.1047  0.2481
 9654W        W23068  11.397  15.550   1.243 -0.2290 -0.0520 -0.0647
 9655W        W23069  13.125  15.579   1.629  0.1929  0.0471  0.1184
 9656W        W23070   6.671   0.778  15.325 -0.0889 -0.3891 -0.3755
 9657W        W23071  17.937   4.281  15.889 -0.0457  0.3634  0.0769
 9658W        W23072   4.174   2.154   2.887  0.2859  0.2691 -0.2548
 9659W        W23073   2.449   5.887   2.878 -0.0822  0.2678  0.1787
 9660W        W23074  15.646   3.935   5.699  0.1751  0.0862 -0.2309
 9661W        W23075  10.324   8.731  13.341  0.1840  0.2413 -0.1761
 9662W        W23076  14.628  11.843  13.753 -0.1685 -0.3675  0.2515
 9663W        W23077   6.566   9.640   5.284  0.1522  0.1731  0.1258
 9664W        W23078   3.730   4.378  14.618 -0.2478 -0.2093 -0.2856
 9665W        W23079  14.787   9.865  15.419  0.2174 -0.1302  0.0606
 9666W        W23080   1.277  10.925  13.569  0.0755 -0.0635 -0.0712
 9667W        W23081  11.555   4.810  12.153 -0.2424  0.0505 -0.0946
 9668W        W23082   0.241   9.940   2.330  0.0598  0.2278 -0.4634
 9669W        W23083   6.956  13.129   5.917 -0.2033  0.1722  0.1268
 9670W        W23084  13.465   0.679  11.130 -0.1428  0.2098 -0.1061
 9671W        W23085   5.090   2.858  14.412  0.3088 -0.1096  0.1508
 9672W        W23086   8.166   1.962   2.350  0.1009  0.1188 -0.1405
 9673W        W23087  13.040  11.473  14.220 -0.0429  0.0116 -0.1462
 9674W        W23088  15.642  12.980  11.634 -0.0976 -0.1975  0.0685
 9675W        W23089  16.107   6.154   4.254 -0.1720 -0.0166 -0.2981
 9676W        W23090   9.657   8.381   3.831 -0.1199 -0.3333 -0.1750
 9677W        W23091   7.799   7.281  10.567 -0.3554  0.3263 -0.1686
 9678W        W23092   4.404  16.388  10.296  0.3905 -0.2350 -0.0390
 9679W        W23093  14.390  16.533  14.317 -0.2105  0.0372  0.0854
 9680W        W23094   7.188   4.444  12.771  0.3593  0.0362 -0.2801
 9681W        W23095   3.990  10.670  10.986  0.0357  0.0174 -0.1405
 9682W        W23096  10.067   2.030  11.671 -0.0827  0.1097  0.1013
 9683W        W23097  13.358   4.893   5.804 -0.1777 -0.1942  0.3599
 9684W        W23098   6.792  13.525  12.371  0.0867  0.0221 -0.0033
 9685W        W23099   9.803  10.977   3.202 -0.0174 -0.1495 -0.0011
 9686W        W23100   8.373  13.713  14.723 -0.0685 -0.2954 -0.1252
 9687W        W23101   0.149  13.423  13.999 -0.0128 -0.1577 -0.2071
 9688W        W23102  11.840   7.116   4.768  0.2256 -0.0102 -0.1746
 9689W        W23103  12.553   1.966  13.653  0.2165  0.1180  0.0754
 9690W        W23104  12.084   7.572  10.965 -0.0094  0.0863 -0.3365
 9691W        W23105  17.810  11.023  14.537  0.0383 -0.0458  0.0481
 9692W        W23106   0.011  12.209  10.329 -0.0342 -0.2329 -0.0227
 9693W        W23107   5.353   9.281  11.889 -0.0252  0.0012 -0.1986
 9694W        W23108   3.871  14.625   2.881  0.0788 -0.0340 -0.1320
 9695W        W23109   0.976   7.147   0.132  0.0653 -0.2431  0.3680
 9696W        W23110  11.534  12.876   0.905 -0.1261  0.0734 -0.0588
 9697W        W23111   1.283  11.179   4.312 -0.1426 -0.1293  0.2373
 9698W        W23112   5.091   8.856   1.588 -0.0458  0.2014  0.2933
 9699W        W23113  14.496  17.349   5.723 -0.2749 -0.0672 -0.0706
 9700W        W23114  14.063   4.838   6.623 -0.0093 -0.0823  0.0572
 9701W        W23115   6.299  15.576   4.783  0.2359 -0.0686 -0.0286
 9702W        W23116  13.376   0.167  15.474  0.3076  0.1986  0.2715
 9703W        W23117   7.246   9.552   6.379  0.2575 -0.0685 -0.1470
 9704W        W23118  15.964  17.154  15.375  0.0210  0.0208  0.2246
 9705W        W23119   0.710  11.650   0.643 -0.0051  0.1065 -0.2238
 9706W        W23120   0.176   7.811   4.218 -0.1731  0.0044  0.0467
 9707W        W23121  11.347   6.995   4.559  0.0984  0.3452  0.0570
 9708W        W23122   5.669  17.740  14.228 -0.0430 -0.2324 -0.2667
 9709W        W23123  17.557   1.620  12.383 -0.0245  0.1312  0.0378
 9710W        W23124  14.182  13.675  16.159 -0.3910 -0.0469  0.1500
 9711W        W23125  13.238  10.836  15.281 -0.4206 -0.0078  0.0679
 9712W        W23126   2.361  11.755  15.024 -0.1306  0.1024 -0.1272
 9713W        W23127   1.460  11.275   2.720  0.0911  0.3346 -0.1116
 9714W        W23128   3.666  17.964   5.802  0.2207  0.0656 -0.0838
 9715W        W23129  14.448   4.999  13.643  0.0954  0.0166  0.1683
 9716W        W23130  16.458   3.487  13.315 -0.1402  0.1265 -0.0113
 9717W        W23131  13.686   5.656  11.439  0.1531  0.3126  0.1978
 9718W        W23132  16.424  12.390   4.336 -0.0091  0.3127 -0.2426
 9719W        W23133   5.514   7.364   0.859  0.0319 -0.0419  0.2610
 9720W        W23134   6.901  17.800   3.684  0.1207  0.3316 -0.0070
 9721W        W23135   0.558  16.327  12.667  0.1169  0.2100 -0.0386
 9722W        W23136   1.784  12.860   4.071 -0.2041 -0.2847 -0.4843
 9723W        W23137  13.122  14.213   2.803 -0.3683 -0.3444 -0.1020
 9724W        W23138   5.871   7.105   2.371 -0.1534 -0.1621 -0.0336
 9725W        W23139  10.979   8.743   1.370  0.2497 -0.1931 -0.3027
 9726W        W23140  14.409   3.927   2.509 -0.0357 -0.4593 -0.1271
 9727W        W23141   8.044   4.350   0.770 -0.0057  0.0526  0.2522
 9728W        W23142   6.046   4.873   4.418  0.0835 -0.1821 -0.1330
 9729W        W23143   6.566   9.279   1.098 -0.0583 -0.0244 -0.3408
 9730W        W23144  16.497  16.946   4.617  0.0910 -0.1004 -0.1916
 9731W        W23145  15.933   3.961  16.703 -0.0435  0.0639  0.2700
 9732W        W23146   6.973  17.239  16.178  0.2076 -0.1777  0.2421
 9733W        W23147   0.386  15.939  14.994  0.1186 -0.3250  0.0197
 9734W        W23148  12.141   5.638  10.781 -0.1114 -0.0967 -0.0102
 9735W        W23149   2.672   6.268   5.358 -0.2292  0.4762  0.1074
 9736W        W23150  12.496  13.184  14.939 -0.0247  0.3144  0.0473
 9737W        W23151   6.728  15.575  12.906 -0.2256  0.0159  0.5355
 9738W        W23152  15.606  12.312  15.847 -0.1666  0.0946  0.2950
 9739W        W23153  13.677   3.418  13.660 -0.0317 -0.2153  0.0397
 9740W        W23154  11.724  17.301  12.944 -0.0137 -0.0213  0.0672
 9741W        W23155  16.368   8.160   1.812  0.0983  0.1320  0.1087
 9742W        W23156   6.810   1.885  13.676 -0.1687  0.1459  0.0290
 9743W        W23157   8.849   5.083   2.102  0.1689 -0.0077  0.3087
 9744W        W23158  16.119  13.813  14.294  0.1401 -0.0124 -0.0973
 9745W        W23159  12.126   4.092  12.979 -0.0066  0.3755 -0.1214
 9746W        W23160  12.203   5.518   3.227  0.2036 -0.2469  0.2278
 9747W        W23161   0.900  12.331  11.697  0.0361 -0.2197  0.0162
 9748W        W23162  16.513   2.446   3.199  0.1107 -0.1289 -0.0337
 9749W        W23163  13.229   4.853  12.172 -0.0982 -0.0523 -0.1842
 9750W        W23164   5.325   1.191   0.905 -0.0513 -0.3237 -0.1474
 9751W        W23165   2.629   2.348   3.111  0.1326 -0.3979  0.0421
 9752W        W23166   0.336   3.661  13.595 -0.1463  0.1635 -0.1844
 9753W        W23167  16.106  14.932  11.446  0.0436  0.0465  0.1058
 9754W        W23168   6.332  14.445  15.632  0.2174  0.0115 -0.2523
 9755W        W23169  15.823  10.620  11.252 -0.0956 -0.1176 -0.0475
 9756W        W23170  10.140   4.920  12.110 -0.1077 -0.2839 -0.0761
 9757W        W23171   1.504   2.814  14.241  0.0158 -0.1135 -0.1372
 9758W        W23172   9.943  11.900   3.314  0.1515 -0.1630 -0.1141
 9759W        W23173  16.894  15.396   0.050  0.0864  0.1596 -0.1403
 9760W        W23174   1.325  17.815   4.014 -0.0793  0.3015 -0.2066
 9761W        W23175  12.259  12.050   2.691 -0.1233  0.1419 -0.0298
 9762W        W23176   7.527  16.980   1.153 -0.2082  0.2205  0.0715
 9763W        W23177  12.733  12.441  12.913  0.0822 -0.0249 -0.0080
 9764W        W23178   6.137   9.501  15.423 -0.0913  0.0246  0.2343
 9765W        W23179   8.935   1.997  10.936 -0.0916  0.0670 -0.1393
 9766W        W23180   3.082   7.370   3.047  0.2574  0.0013  0.2176
 9767W        W23181  16.961   2.632   2.392  0.0743 -0.0130  0.0588
 9768W        W23182   9.751  15.596   1.459  0.1316  0.1374  0.2202
 9769W        W23183  12.982   8.912   4.711  0.0156 -0.1907  0.0597
 9770W        W23184  14.773   6.760   0.185 -0.2274  0.1099  0.2149
 9771W        W23185   0.338   9.621   3.852 -0.1182 -0.1422 -0.0879
 9772W        W23186  12.357  15.292  16.473 -0.1066  0.0037 -0.2233
 9773W        W23187  12.092   4.607  10.283 -0.0114  0.0949  0.3219
 9774W        W23188   7.264   5.894  12.747 -0.3412 -0.1359  0.1584
 9775W        W23189  15.431   1.887  15.233  0.3726  0.0056 -0.0532
 9776W        W23190   0.452   9.708   1.511  0.1437 -0.2052  0.4210
 9777W        W23191  10.416   0.124  15.338 -0.1410 -0.1355  0.3026
 9778W        W23192  10.642  11.763   4.309  0.1324  0.2510  0.0662
 9779W        W23193   1.292   2.551  16.592  0.1683  0.1492 -0.1594
 9780W        W23194  15.751  14.384  11.272  0.0343 -0.1139  0.1599
 9781W        W23195  17.355   2.186   4.953  0.0170 -0.1358  0.0822
 9782W        W23196  14.881   5.273  14.368  0.0234 -0.2477 -0.0271
 9783W        W23197   7.361  14.135   2.969 -0.0214  0.1895 -0.3475
 9784W        W23198   8.353  10.012   3.157  0.3018  0.1965 -0.1836
 9785W        W23199  16.105   3.821   0.432 -0.4897  0.2334  0.0089
 9786W        W23200  11.194  15.193  13.316  0.3323 -0.0118  0.0615
 9787W        W23201  10.547   2.132  11.322 -0.0757 -0.1752 -0.2759
 9788W        W23202   6.172  10.007   5.553 -0.2972  0.2387  0.0354
 9789W        W23203   7.787  16.117  14.876 -0.1393  0.2686 -0.2818
 9790W        W23204  17.794   7.125  13.511 -0.2851 -0.1425  0.1659
 9791W        W23205  10.998   1.987  14.296 -0.0154  0.1377  0.1732
 9792W        W23206   2.601  13.174   0.999 -0.2885 -0.2759 -0.3269
 9793W        W23207  11.233   4.381   3.291 -0.0334  0.0130  0.0343
 9794W        W23208   3.179  16.646  13.306 -0.1190  0.4757  0.0970
 9795W        W23209  11.487   6.683   4.157  0.0884  0.2087 -0.2571
 9796W        W23210   6.107   5.166  12.499  0.3290  0.0930  0.2843
 9797W        W23211   4.385   8.264   4.210  0.1140 -0.0990  0.0761
 9798W        W23212   6.939  12.213   4.366 -0.1144 -0.0257  0.1170
 9799W        W23213  17.525   6.819   5.296  0.1097  0.2677  0.2162
 9800W        W23214   9.663   4.897   1.610  0.3485  0.1604 -0.1828
 9801W        W23215  11.105   7.242  13.184  0.1696  0.0449 -0.3723
 9802W        W23216   8.211   8.713  13.043 -0.0915  0.1612  0.0997
 9803W        W23217   6.489   5.291  13.021 -0.1620  0.1430 -0.0197
 9804W        W23218   6.716   1.809   0.178  0.1959 -0.0184 -0.0293
 9805W        W23219   4.129  17.367   6.340  0.0403  0.1175 -0.0829
 9806W        W23220   0.864   7.347  11.805 -0.0431  0.0948  0.1008
 9807W        W23221   7.354   7.429   5.737 -0.0924  0.1121 -0.2137
 9808W        W23222   9.990  14.657   3.347  0.1809  0.0650 -0.0369
 9809W        W23223   0.299  13.908  12.441  0.3420  0.0167 -0.0044
 9810W        W23224   4.076  14.102   1.123 -0.1536 -0.1920  0.0323
 9811W        W23225  15.129   5.888   6.619 -0.0666  0.1891 -0.0553
 9812W        W23226   5.528  17.166   1.539  0.0858 -0.0364  0.0609
 9813W        W23227  16.233  10.649   1.348  0.3827  0.0058 -0.2692
 9814W        W23228  17.820   3.325   1.649 -0.1358 -0.0653  0.2917
 9815W        W23229   7.339   6.958   3.846  0.3094 -0.1397 -0.1748
 9816W        W23230   1.463   4.618  12.056  0.0476 -0.0709  0.1444
 9817W        W23231  11.583  14.146  12.881 -0.3186  0.1427 -0.0003
 9818W        W23232  10.123   7.037   0.616 -0.2770  0.0468 -0.1303
 9819W        W23233  16.074  15.384   0.258  0.0505  0.1857  0.2384
 9820W        W23234  17.371  16.591   6.027 -0.0487 -0.3949  0.0638
 9821W        W23235  12.582   1.395  16.487 -0.0057 -0.0776 -0.0387
 9822W        W23236   2.195   6.314  16.444 -0.2270 -0.2764  0.0504
 9823W        W23237  15.179   8.421   6.546 -0.3715 -0.1480 -0.0706
 9824W        W23238   3.744  12.199   2.542 -0.0131 -0.2091  0.0920
 9825W        W23239   2.539  16.239  13.351  0.0477  0.0701  0.0573
 9826W        W23240   2.169  16.064  11.868  0.1752  0.2006 -0.1543
 9827W        W23241  16.944  11.919   5.617 -0.0623 -0.2478 -0.0589
 9828W        W23242  15.122  15.954  14.946 -0.2162  0.1803 -0.1758
 9829W        W23243   2.607   0.775   6.293  0.1288  0.0133 -0.1970
 9830W        W23244   6.897  12.254   3.757 -0.1202  0.0989 -0.1113
 9831W        W23245   9.594  15.603  14.509  0.3717  0.3975  0.3155
 9832W        W23246  17.970  11.558  11.077 -0.1668  0.2877  0.0112
 9833W        W23247  15.882   9.316   1.669  0.0720  0.1667  0.0014
 9834W        W23248   4.802  11.677   2.549  0.0990  0.1015 -0.2761
 9835W        W23249   8.753   8.235   2.680 -0.0930  0.0297  0.1286
 9836W        W23250   5.385   2.434  14.428 -0.0949  0.0171  0.3781
 9837W        W23251  11.260  10.299  14.736 -0.1560  0.1295 -0.0347
 9838W        W23252   8.968  11.749   4.113 -0.2420  0.0502 -0.3071
 9839W        W23253  13.558   7.412   6.040 -0.0110  0.1044  0.3072
 9840W        W23254  14.565  15.591  14.349  0.2480 -0.0421 -0.0307
 9841W        W23255  17.279  11.642  11.550 -0.1939 -0.0243  0.1221
 9842W        W23256  10.677  10.973   0.860 -0.0817  0.0556 -0.1430
 9843W        W23257   8.763  16.249  11.158 -0.0483  0.0545 -0.2158
 9844W        W23258  13.597   0.174   1.832 -0.1217 -0.1075  0.0404
 9845W        W23259   3.527   8.515  16.302  0.0754  0.0146  0.0308
 9846W        W23260  15.773  17.934   5.765 -0.0581 -0.0050 -0.0791
 9847W        W23261  13.169   0.485   2.456 -0.0232  0.1363 -0.2093
 9848W        W23262   1.955   0.841   1.856  0.0527  0.4235  0.2081
 9849W        W23263   9.255  11.123   4.103 -0.0718  0.1362  0.1104
 9850W        W23264  10.201   6.734  15.348 -0.0846 -0.2718 -0.0870
 9851W        W23265   9.406   9.314  13.010 -0.1604 -0.0648 -0.1452
 9852W        W23266   2.793   1.605   5.707  0.0626 -0.2440 -0.0187
 9853W        W23267   5.055  15.940   4.794  0.1841  0.1993  0.0821
 9854W        W23268  17.691  17.638  12.926 -0.3212 -0.0546 -0.2207
 9855W        W23269  17.648   2.278   3.707  0.1903 -0.0408 -0.0714
 9856W        W23270  14.294   9.327   2.516  0.3271 -0.0771 -0.2593
 9857W        W23271   9.746   8.407   6.100 -0.0028 -0.0161 -0.1807
 9858W        W23272  15.803   9.755   2.094  0.0270  0.2413  0.0072
 9859W        W23273   0.178   5.674  15.850 -0.1561  0.1824 -0.0340
 9860W        W23274  15.610   6.839   0.213  0.0341 -0.0814  0.2521
 9861W        W23275   6.544  15.742   5.454  0.4231 -0.4082  0.1830
 9862W        W23276  11.052  14.017  14.293  0.0222 -0.2136  0.0301
 9863W        W23277   0.986  11.577  11.049 -0.1259 -0.3157  0.1368
 9864W        W23278  15.730   1.140   4.776  0.0165  0.0866  0.3229
 9865W        W23279   2.880  17.277  11.955  0.0054 -0.0861 -0.2025
 9866W        W23280   3.096  16.485   3.880  0.1923 -0.0523  0.0806
 9867W        W23281   5.824   3.194  14.515 -0.0306 -0.0397 -0.1125
 9868W        W23282  17.599   5.649   6.560  0.1588 -0.0003  0.2581
 9869W        W23283   1.127  15.870   1.017 -0.0721 -0.1365 -0.0810
 9870W        W23284  14.841   6.879   6.282 -0.1075  0.1148 -0.2521
 9871W        W23285   0.452   8.159  11.255 -0.0754  0.3066 -0.0235
 9872W        W23286   6.587  12.542  14.993 -0.1951  0.1463  0.0826
 9873W        W23287   4.758  12.371  16.559 -0.1520 -0.2346 -0.1587
 9874W        W23288   1.986   5.459   2.608 -0.1276  0.1103  0.1303
 9875W        W23289  16.901  11.775  15.215 -0.1331  0.0669 -0.3880
 9876W        W23290   9.092   5.030  12.805 -0.0618 -0.2207 -0.0452
 9877W        W23291  17.051   1.089   5.524  0.0760  0.1702  0.1951
 9878W        W23292  14.151   2.379  15.801 -0.1265 -0.1906  0.1135
 9879W        W23293   2.446   4.971   0.596  0.1713  0.3286  0.0997
 9880W        W23294  15.980  15.830  12.848 -0.2196 -0.2754 -0.0964
 9881W        W23295  13.905   5.388   6.180 -0.1098  0.3462  0.1248
 9882W        W23296   1.735   2.844  15.302 -0.2948 -0.2689 -0.0511
 9883W        W23297   3.409  11.267  12.691  0.0165  0.2081  0.1643
 9884W        W23298  14.109  12.239   1.966  0.1528  0.2316 -0.0711
 9885W        W23299   3.682   0.470   4.538  0.1724  0.0598  0.0627
 9886W        W23300   6.765   8.133  12.153  0.0639 -0.3178 -0.0852
 9887W        W23301  10.761   4.811  10.691  0.1200  0.2031  0.1601
 9888W        W23302   2.523  13.282   4.702  0.5956  0.0747 -0.0741
 9889W        W23303   6.199  17.948   4.477  0.0073  0.2803  0.0524
 9890W        W23304   5.119  16.757  14.238 -0.1274 -0.0849 -0.3122
 9891W        W23305  17.588  14.410   1.765  0.2148  0.0686  0.0459
 9892W        W23306  10.563   1.709   2.512 -0.2016 -0.6020  0.3145
 9893W        W23307   8.524   7.002   0.626 -0.1937 -0.1519 -0.0044
 9894W        W23308  17.954  13.917  13.160 -0.2524  0.0620 -0.3806
 9895W        W23309   2.184  16.414   0.194  0.0400 -0.0205  0.2299
 9896W        W23310  13.554  10.561   2.656 -0.0550 -0.0413  0.1329
 9897W        W23311  15.602  14.033  10.874  0.0928 -0.0194  0.2414
 9898W        W23312   9.342  12.534  14.949  0.1174  0.0256 -0.2910
 9899W        W23313  17.635  15.608  13.608 -0.2209  0.3640  0.3221
 9900W        W23314  12.510  14.402   2.058  0.0678  0.1136 -0.1679
 9901W        W23315  16.278   6.367  15.701 -0.1536  0.1403  0.0146
 9902W        W23316   9.649  11.836  12.597 -0.0282 -0.1312 -0.1647
 9903W        W23317   3.296   0.447   2.015 -0.0592  0.1144 -0.0245
 9904W        W23318   8.529  10.963   0.620  0.1417  0.4717 -0.4524
 9905W        W23319   9.938   1.019  12.001 -0.0417 -0.1058  0.1064
 9906W        W23320  11.002   1.838  11.235  0.0167 -0.0025 -0.2122
 9907W        W23321  14.410  10.370  10.477 -0.2235 -0.0259 -0.0723
 9908W        W23322   2.088   1.027  15.440 -0.1803  0.0818 -0.0392
 9909W        W23323   5.902   1.478  14.579 -0.4781  0.1035  0.0028
 9910W        W23324  16.101  18.021  11.255 -0.0602 -0.0116 -0.0696
 9911W        W23325   3.907  11.309  11.461 -0.2013  0.1356 -0.2612
 9912W        W23326  15.988  11.177   3.101 -0.1190 -0.1262  0.1206
 9913W        W23327   4.477  12.606   0.141 -0.1329 -0.0765  0.0024
 9914W        W23328   7.715  14.274   0.859 -0.1343 -0.4190 -0.1500
 9915W        W23329  13.513  11.235  10.664 -0.1045 -0.0212 -0.2030
 9916W        W23330   1.855  14.188   1.353  0.0284  0.1007  0.0909
 9917W        W23331   2.505   6.051   0.048 -0.1142 -0.0914  0.0655
 9918W        W23332   6.821   0.405   1.489  0.0809  0.0293  0.2916
 9919W        W23333   1.530   2.070   5.327  0.0080 -0.2601 -0.0408
 9920W        W23334   9.413  10.798  11.508  0.1450 -0.2644 -0.2522
 9921W        W23335  15.412  10.937  16.697 -0.1786  0.0380 -0.2859
 9922W        W23336   0.650   8.307  14.577  0.0252 -0.0735  0.0550
 9923W        W23337   5.676   2.582   6.453  0.0644  0.0443  0.2669
 9924W        W23338  16.087   2.890   0.520 -0.1774 -0.0528 -0.1274
 9925W        W23339  15.751   0.383  12.293  0.0133  0.3568 -0.0852
 9926W        W23340  16.559  16.137  13.393  0.0124 -0.2849  0.0256
 9927W        W23341  12.117   5.706   5.448 -0.2624  0.0253  0.0870
 9928W        W23342   4.130  10.373  12.695 -0.0834 -0.4886 -0.2474
 9929W        W23343   7.267  12.855   2.362 -0.0045 -0.2201 -0.0478
 9930W        W23344   1.491  10.020   4.021  0.2828 -0.0050 -0.4174
 9931W        W23345   0.561  12.794   1.997 -0.0105 -0.0052  0.1017
 9932W        W23346  16.696   4.180   1.592  0.0509  0.0188 -0.1227
 9933W        W23347   7.654  15.288  16.070  0.2783 -0.1555 -0.0485
 9934W        W23348   6.876   5.764  16.482 -0.0449  0.1302  0.1736
 9935W        W23349  12.844   0.306   3.798  0.2322 -0.2124 -0.1000
 9936W        W23350   3.217   1.722   4.231 -0.0812  0.0735  0.0576
 9937W        W23351  14.977  17.678  10.772 -0.0465 -0.1314 -0.3674
 9938W        W23352  15.637  10.768   2.558  0.2774 -0.3178 -0.0060
 9939W        W23353  17.945  11.517   3.724 -0.0030 -0.0462 -0.1416
 9940W        W23354   5.214   5.778  12.361  0.2236 -0.1500 -0.1239
 9941W        W23355   1.395   4.722   6.620  0.0330  0.0242 -0.0288
 9942W        W23356  13.888   7.312   1.567 -0.1708  0.0494 -0.0561
 9943W        W23357  15.075  12.935   0.696  0.2309 -0.0433  0.0818
 9944W        W23358   4.164   1.677   2.234 -0.0129  0.1076 -0.1239
 9945W        W23359  11.778   3.701   3.215 -0.1761 -0.2896  0.1726
 9946W        W23360  17.583  12.353   1.493  0.2170 -0.0174  0.0570
 9947W        W23361  16.705   3.879   5.812 -0.1447  0.2785 -0.2572
 9948W        W23362  13.457   0.760   4.683  0.1212 -0.1128  0.1708
 9949W        W23363  13.434   3.323  14.092 -0.2898 -0.0516 -0.2284
 9950W        W23364  13.380   3.531  11.829  0.1894  0.1187 -0.1073
 9951W        W23365   6.392  16.465   5.568 -0.2111 -0.0053 -0.3527
 9952W        W23366   4.830   6.007   6.124  0.0142 -0.0680 -0.1803
 9953W        W23367   3.462  14.537   4.671 -0.2778  0.1783 -0.3202
 9954W        W23368  12.940  12.695   2.470 -0.2545  0.1414 -0.0291
 9955W        W23369   2.555   6.446  11.949 -0.0879  0.1219  0.1769
 9956W        W23370  15.257  17.567   5.975  0.1418 -0.0662 -0.0880
 9957W        W23371  16.376   2.393   3.923 -0.0730  0.0860  0.1314
 9958W        W23372   3.415   8.718   1.226 -0.0557 -0.2494 -0.1069
 9959W        W23373   2.296  16.471   3.139 -0.1880  0.1950  0.1489
 9960W        W23374  10.507   2.262   0.632  0.2748 -0.2359 -0.0491
 9961W        W23375   9.816  13.386  15.109  0.3743  0.0664 -0.1325
 9962W        W23376  11.266   0.609   2.944  0.0663 -0.1500  0.1292
 9963W        W23377   3.768   7.015  16.051  0.1981 -0.0157  0.2902
 9964W        W23378   7.181  14.349  15.465 -0.1575 -0.1744  0.1953
 9965W        W23379   8.231   6.436  16.374 -0.0919 -0.0161 -0.1730
 9966W        W23380  10.370   9.647   2.639  0.1009  0.1781 -0.3970
 9967W        W23381   4.815  11.654  15.583 -0.0881 -0.1675 -0.1320
 9968W        W23382   9.144   2.111  14.734 -0.1314  0.1258 -0.0280
 9969W        W23383   2.003   0.853   2.417  0.2785 -0.1669 -0.2942
 9970W        W23384  14.154  16.810   4.519  0.1448 -0.0731 -0.4857
 9971W        W23385  12.145  12.484   2.911 -0.0754 -0.0409 -0.0284
 9972W        W23386   3.942  11.246   6.182  0.0469 -0.0350 -0.2318
 9973W        W23387   6.913  11.377   5.131  0.2358  0.0793  0.2025
 9974W        W23388  18.005   7.574  13.375 -0.0760  0.1071 -0.1343
 9975W        W23389  13.358   6.167  13.081  0.0783  0.2841 -0.1327
 9976W        W23390   6.527  13.847  11.156 -0.0340  0.0408  0.1332
 9977W        W23391   7.705  13.895   3.867  0.1801  0.1796  0.2348
 9978W        W23392  10.587   5.203   0.915  0.1955 -0.1510 -0.4110
 9979W        W23393  15.668  14.694  12.207 -0.1232  0.0560  0.0396
 9980W        W23394  12.316  15.833  13.260  0.1529  0.3865  0.3276
 9981W        W23395   8.692  11.610   4.813  0.0679 -0.1375 -0.0595
 9982W        W23396  15.856   7.621  11.762  0.2738  0.0096 -0.2061
 9983W        W23397   0.449   0.670  11.181  0.2245  0.0396  0.1614
 9984W        W23398   8.047   2.370  13.455  0.1200  0.1590  0.3565
 9985W        W23399   3.165   8.310  11.439  0.2053 -0.1856  0.1293
 9986W        W23400  12.859  16.038   2.312  0.0187  0.1938 -0.0756
 9987W        W23401   9.371  16.056  15.190 -0.0041  0.4306  0.1500
 9988W        W23402   5.838   5.201   2.239  0.0870  0.1023 -0.1128
 9989W        W23403  10.839   2.687   0.615  0.1518 -0.3615  0.2488
 9990W        W23404   0.301   7.664  15.280 -0.1601 -0.0133 -0.2836
 9991W        W23405   9.752  14.739  16.521 -0.2352  0.1559 -0.2114
 9992W        W23406  12.786  10.345  10.653  0.4741 -0.0644 -0.1702
 9993W        W23407  10.724   5.065  11.111 -0.1370  0.0588 -0.2046
 9994W        W23408   1.519  15.339   2.209 -0.1297  0.0965  0.0201
 9995W        W23409  10.467   1.157  15.102  0.3038 -0.0817  0.1703
 9996W        W23410  15.270   7.874   3.216 -0.0252 -0.1999  0.2129
 9997W        W23411  14.771   4.220  14.824 -0.1628  0.0096  0.3164
 9998W        W23412  13.225   4.686   6.239  0.1833  0.0323 -0.2918
 9999W        W23413  12.384  14.751   2.965 -0.0871  0.4322 -0.1677
10000W        W23414   5.447  16.791  15.733  0.0336  0.0129 -0.0105
10001W        W23415   4.131   0.950  10.203  0.2182 -0.0934  0.1140
10002W        W23416   9.312  16.637   4.673  0.0876  0.1024  0.1623
10003W        W23417   3.398   5.583   4.011 -0.1911 -0.0454 -0.2159
10004W        W23418   3.485  16.711  11.468  0.0713 -0.2825 -0.1958
10005W        W23419   2.231  17.259  16.058 -0.2458 -0.0826  0.0932
10006W        W23420  10.169  17.212  11.343  0.0535  0.1570 -0.0842
10007W        W23421   3.024   2.236  12.992 -0.1242 -0.1526 -0.1874
10008W        W23422   0.296   3.742  13.157  0.0774 -0.0938  0.0848
10009W        W23423   1.355   3.769   1.441  0.0374  0.3359  0.1320
10010W        W23424   3.956  15.608   4.670 -0.1170 -0.0845 -0.2469
10011W        W23425   4.901   7.061   4.514  0.0216 -0.0354 -0.3005
10012W        W23426   1.443  10.278  12.918  0.1658  0.1033 -0.1631
10013W        W23427  13.099  17.765   2.600 -0.1294  0.1126 -0.3092
10014W        W23428  15.988  17.175  12.725 -0.1321  0.2272  0.1719
10015W        W23429  11.054   8.448  12.613 -0.1463 -0.2328 -0.1147
10016W        W23430  16.024   4.483   1.142  0.2965  0.0773  0.0341
10017W        W23431   1.301   5.384   5.650 -0.3706 -0.1868  0.0790
10018W        W23432  15.754   3.668  16.299 -0.1818 -0.1263 -0.3873
10019W        W23433   3.961  16.270   5.542 -0.1334 -0.1213 -0.1117
10020W        W23434  11.862   5.198  15.425 -0.0309  0.2692  0.0509
10021W        W23435   9.267  15.894  15.665 -0.0678 -0.1463 -0.2955
10022W        W23436  17.542  10.955   4.679 -0.3432  0.0175 -0.3186
10023W        W23437   0.850   5.064  15.549 -0.3610 -0.0299 -0.1878
10024W        W23438   0.828  17.969  15.955  0.0500  0.1598 -0.0161
10025W        W23439  17.878  10.946  11.371 -0.1808  0.1492 -0.2094
10026W        W23440  14.974  15.858   0.139 -0.1273 -0.0206  0.0392
10027W        W23441  11.253  15.398   5.610  0.0757 -0.0821 -0.0920
10028W        W23442  16.683  17.877  11.358 -0.0832  0.0632  0.3403
10029W        W23443   3.031   3.571   3.676 -0.1304  0.0053  0.0188
10030W        W23444   5.326   5.179   4.019  0.1853 -0.0672  0.0315
10031W        W23445  12.895  12.696   1.479 -0.0787  0.3799 -0.1545
10032W        W23446  17.894  16.558  16.346 -0.2217 -0.1389 -0.0263
10033W        W23447   8.196  12.248   0.988 -0.0363 -0.4702 -0.0064
10034W        W23448  10.467  11.824   0.569 -0.0180  0.0158 -0.2339
10035W        W23449  11.516   8.927   4.646 -0.0868  0.1583 -0.1504
10036W        W23450  16.512   3.270  15.033  0.4171 -0.0575  0.0607
10037W        W23451   1.561  11.070   4.742  0.2770  0.1578  0.1474
10038W        W23452   7.167  12.522  14.738  0.0429 -0.0877 -0.2959
10039W        W23453  14.498   4.142  12.912 -0.0812 -0.2020  0.2629
10040W        W23454  10.275   6.505   1.959  0.0950  0.1346 -0.3457
10041W        W23455  17.710  16.591  11.499 -0.1438  0.0079  0.0474
10042W        W23456  17.875   5.333  11.544 -0.1398  0.1192  0.1750
10043W        W23457   6.969  16.740   4.567  0.0448 -0.0300  0.3013
10044W        W23458   7.219  13.129  13.881  0.1241 -0.0116  0.0039
10045W        W23459  12.516   9.886   2.177 -0.3191  0.3478  0.2587
10046W        W23460  11.897   2.386   9.961 -0.0073 -0.2131  0.1746
10047W        W23461   2.153  12.363   5.518 -0.1089  0.3180  0.0023
10048W        W23462  15.583  11.108   4.574 -0.1281  0.2198  0.1372
10049W        W23463  15.443   6.410   1.848  0.3785 -0.0913 -0.2075
10050W        W23464   4.450   5.663   6.345 -0.1003 -0.2563 -0.3343
10051W        W23465  13.989   2.816   3.991  0.2408 -0.1329 -0.0211
10052W        W23466   5.708   9.060  14.101 -0.2183  0.2249 -0.1616
10053W        W23467  12.171  16.977  12.844  0.2044 -0.1326 -0.0708
10054W        W23468  17.201  16.085  11.275  0.0051  0.1874 -0.0872
10055W        W23469  10.685   8.530  16.423 -0.2477  0.3113 -0.4269
10056W        W23470   8.836  13.035  12.740 -0.2139  0.3297  0.2405
10057W        W23471   6.700   7.408  16.357 -0.1474  0.1932  0.1429
10058W        W23472   5.865  16.162  12.659 -0.1879  0.1487 -0.0147
10059W        W23473  12.913   0.330  15.739  0.0663 -0.0489 -0.0205
10060W        W23474   1.654   7.061  13.137 -0.1392  0.1046  0.3619
10061W        W23475  12.861   7.421   4.498 -0.1868  0.1409  0.0510
10062W        W23476  10.732  14.787  16.209  0.0876  0.0763 -0.0002
10063W        W23477   7.931  13.887   1.146 -0.0130 -0.1235 -0.0841
10064W        W23478   6.404   1.807   3.953 -0.2525 -0.1254 -0.1826
10065W        W23479  14.951   3.422   1.288 -0.3075  0.0857  0.0685
10066W        W23480  17.866  17.978   3.935  0.1526 -0.3244 -0.1819
10067W        W23481   9.292   0.377  10.785  0.1463 -0.0191  0.0661
10068W        W23482  14.386  10.631  16.586 -0.1323 -0.1206  0.1369
10069W        W23483  14.699   4.745  10.582 -0.1609  0.0128 -0.1874
10070W        W23484   2.136   6.157   5.209  0.0252 -0.0505  0.0739
10071W        W23485   8.976   5.056  15.663  0.0071  0.1295  0.1760
10072W        W23486   7.580   8.093   2.692  0.0398  0.0407 -0.1791
10073W        W23487   8.484   1.823  13.205  0.2468 -0.0216  0.0800
10074W        W23488   6.477   1.169  11.012  0.1124  0.0917 -0.0872
10075W        W23489   9.394   0.913  10.020  0.1308 -0.1769  0.0201
10076W        W23490  17.996   5.250  13.028  0.0367 -0.0128  0.1110
10077W        W23491  16.029   5.752   3.015  0.1850 -0.0523 -0.0589
10078W        W23492   9.709  11.745   2.541  0.1504  0.1979 -0.1157
10079W        W23493   0.566   5.690  12.151  0.2237  0.0912 -0.2998
10080W        W23494  12.504   0.455  14.450 -0.2526  0.0886  0.3492
10081W        W23495   5.533  12.391  11.077 -0.1676 -0.1488 -0.0674
10082W        W23496  13.365   6.897   2.903 -0.0913  0.0097 -0.0840
10083W        W23497  10.974   5.974   4.512  0.1751  0.0669 -0.0440
10084W        W23498  14.772  10.984  16.699  0.1101  0.1991  0.1107
10085W        W23499   0.411  16.902   1.590 -0.1538 -0.2847 -0.1282
10086W        W23500   0.345   1.103  11.376  0.1673  0.0132  0.2203
10087W        W23501  17.323   7.307   1.552  0.0065  0.2854 -0.0963
10088W        W23502  15.808  13.012   6.284  0.2275  0.4597 -0.0647
10089W        W23503  17.518  12.988   9.912  0.1171  0.3404  0.1264
10090W        W23504   6.051   6.054  10.192 -0.4649  0.0032  0.1553
10091W        W23505   1.202  16.154   5.512  0.3376 -0.1671 -0.1132
10092W        W23506   8.770   1.555  10.337 -0.0076 -0.1900  0.1451
10093W        W23507   7.505  15.670   1.207  0.2141 -0.2826 -0.3138
10094W        W23508   9.620   7.267   3.090 -0.1476  0.1514  0.2101
10095W        W23509   5.838  11.050  11.922  0.2528  0.2958  0.0443
10096W        W23510  16.864  11.829  13.353  0.0557  0.1792  0.1975
10097W        W23511  16.854   1.991  16.010  0.2252 -0.2767 -0.1604
10098W        W23512  14.486   7.367   1.543 -0.1224 -0.1157 -0.2158
10099W        W23513   6.069   5.038   6.210  0.2259 -0.1973 -0.0090
10100W        W23514   0.054   4.638  15.156  0.1609  0.1198 -0.1643
10101W        W23515  15.976   1.036  11.477 -0.1216  0.0734 -0.1405
10102W        W23516   1.963  14.930  14.327 -0.1464 -0.2122 -0.2363
10103W        W23517   7.141  11.723   1.729  0.2246 -0.0238 -0.4094
10104W        W23518   0.310  15.123   1.245 -0.0962 -0.1504  0.0861
10105W        W23519  16.659   1.147  13.297  0.3059  0.1809 -0.2264
10106W        W23520   2.860  16.409  12.471 -0.2032  0.2251  0.1415
10107W        W23521   6.671   2.351   3.203  0.0421  0.2073 -0.2736
10108W        W23522   2.211   2.979   5.669  0.0485 -0.3885 -0.0309
10109W        W23523   8.416   4.913  15.387 -0.3197  0.1892 -0.2011
10110W        W23524  14.695  15.310  12.884 -0.1174  0.2202 -0.1143
10111W        W23525  10.024  12.191  12.674  0.0150 -0.1336 -0.1867
10112W        W23526  16.704   0.353  15.707  0.0044  0.0110  0.0493
10113W        W23527  12.546  11.784   1.857 -0.2595 -0.1349 -0.0058
10114W        W23528  15.666   2.576  12.353  0.1424 -0.2135  0.0011
10115W        W23529   7.023   3.075  16.586  0.1341 -0.0419  0.1134
10116W        W23530   2.736   4.913   2.741 -0.0573  0.1879 -0.1573
10117W        W23531   7.281   2.410  12.349  0.1980 -0.0328  0.3802
10118W        W23532   4.724  16.310   2.177 -0.1754 -0.1057 -0.1915
10119W        W23533   1.065   6.681   0.217 -0.1324 -0.0871 -0.1029
10120W        W23534   7.397  16.827  11.567  0.0835  0.0165  0.0158
10121W        W23535   2.413   7.160  15.262  0.1490  0.0612  0.0128
10122W        W23536   6.371  12.941  15.456  0.1209 -0.0573 -0.2061
10123W        W23537   4.299  13.312   2.543  0.0079  0.0044 -0.0290
10124W        W23538   6.641   3.560  12.976  0.0543  0.1357  0.0884
10125W        W23539   1.419  12.841  10.500 -0.0957 -0.0187  0.0737
10126W        W23540  14.984  14.935   5.210  0.1075 -0.0473  0.3450
10127W        W23541   5.276  11.593  15.790  0.0610  0.3065  0.1425
10128W        W23542   9.266  17.333  13.019  0.0531 -0.0481  0.2387
10129W        W23543   7.422   1.413  13.899  0.0104 -0.2572  0.1573
10130W        W23544   6.552  17.869  11.546  0.0619 -0.3489  0.2553
10131W        W23545  11.403  15.053  10.207 -0.5440  0.3232 -0.0329
10132W        W23546   1.297   5.193  16.484 -0.0206 -0.0015 -0.1444
10133W        W23547   0.731  11.079  12.070 -0.2356 -0.0267 -0.1818
10134W        W23548  13.183  14.364  11.334  0.2179 -0.1837 -0.2568
10135W        W23549  17.861   7.314   1.407  0.1713  0.3086  0.1195
10136W        W23550   7.626   8.180  11.732 -0.0820 -0.1035 -0.2327
10137W        W23551   7.551  15.556  14.831  0.2589 -0.3439  0.0963
10138W        W23552   6.169   3.234   3.753 -0.1859  0.2661  0.0073
10139W        W23553  13.570  11.192   2.851 -0.1095  0.0310  0.3415
10140W        W23554   1.030   7.397  16.294  0.0053  0.0505 -0.2049
10141W        W23555   2.308  14.847   4.995 -0.1668  0.1529 -0.0447
10142W        W23556  13.966  13.626  10.488 -0.3080  0.1630  0.0397
10143W        W23557   1.074  10.641  12.697  0.0197  0.1291 -0.1258
10144W        W23558   6.311   8.390  12.038 -0.0575  0.1540  0.2859
10145W        W23559   3.961   5.355   0.904 -0.1716  0.1078 -0.0336
10146W        W23560  13.984   5.340   3.806 -0.3503  0.0545  0.1070
10147W        W23561   1.095   5.667   6.560  0.2486 -0.1621  0.2572
10148W        W23562   5.966   0.415   1.089  0.0103  0.0429 -0.0280
10149W        W23563   7.237  16.380   1.879  0.0558 -0.2204  0.0967
10150W        W23564   4.773   5.800   2.546  0.1050  0.0836  0.0402
10151W        W23565   9.882   5.149   2.018  0.1693 -0.0550 -0.0462
10152W        W23566   6.831  13.557  15.785  0.0400 -0.0015 -0.2659
10153W        W23567  14.312  17.346  13.576  0.0601 -0.1099 -0.0799
10154W        W23568  12.548   4.018  15.003  0.1351  0.0178 -0.0065
10155W        W23569   1.491  14.281   5.346  0.1705  0.0782  0.3170
10156W        W23570   9.423   6.429  12.349 -0.0062  0.0896  0.1853
10157W        W23571   9.031  13.623   1.944  0.0814 -0.0537  0.0073
10158W        W23572   8.767   7.792  13.741  0.3006 -0.1226  0.4025
10159W        W23573  13.634   0.475  12.623 -0.0048  0.0302  0.2106
10160W        W23574   9.012   4.463   4.880  0.1021  0.0471 -0.0197
10161W        W23575   6.258   9.436  12.782 -0.1648  0.0919 -0.1477
10162W        W23576   4.370   5.897  14.929 -0.1198  0.1774 -0.1028
10163W        W23577  15.477   3.704   0.132  0.0910 -0.1985 -0.1402
10164W        W23578  16.836   3.470   0.985  0.1971  0.2214 -0.0278
10165W        W23579  16.713   2.579  15.997 -0.0881  0.1243  0.2936
10166W        W23580  11.714   6.643  11.313 -0.1098  0.0917 -0.0859
10167W        W23581   0.150   4.859  12.152  0.1943  0.3399 -0.2185
10168W        W23582   5.791  10.104   3.822 -0.0803 -0.1114 -0.4272
10169W        W23583  17.211   3.880  14.830 -0.3475 -0.0035  0.1936
10170W        W23584   0.072   1.523   2.028 -0.2330 -0.1627 -0.5201
10171W        W23585  15.309   9.257  16.388  0.0089 -0.4752  0.1736
10172W        W23586   0.873  13.947   3.270 -0.1454 -0.0056 -0.2390
10173W        W23587   4.856  16.264  11.776  0.0177 -0.1823  0.2182
10174W        W23588  15.460  14.020   5.363 -0.0350  0.2053  0.0437
10175W        W23589  17.308  13.044  15.862  0.0696 -0.3628  0.1983
10176W        W23590  12.364  14.966  12.356 -0.2104 -0.0134 -0.1416
10177W        W23591   1.083   4.729  16.454 -0.1924 -0.2625 -0.1953
10178W        W23592  12.043   3.524   2.815  0.2247 -0.2175 -0.1726
10179W        W23593  10.438  12.049  15.245  0.0449 -0.1117  0.1069
10180W        W23594  15.156  16.944   2.564  0.3124  0.1110 -0.1781
10181W        W23595   3.947  14.183  10.686 -0.1643  0.2189 -0.0189
10182W        W23596   0.948  16.875   2.090  0.2072  0.0143 -0.0843
10183W        W23597   2.177  17.889  12.188  0.1253  0.0053  0.3817
10184W        W23598   9.368   5.444   5.346 -0.2162  0.1719 -0.2735
10185W        W23599   4.990   7.527   2.609 -0.2770 -0.1627  0.0854
10186W        W23600  17.851  12.162   5.001 -0.2699  0.2347 -0.0792
10187W        W23601   1.428   2.418  15.911 -0.2010  0.0590 -0.0373
10188W        W23602   3.609  15.980  13.605  0.0579  0.2196  0.1874
10189W        W23603  16.200  10.030  13.614  0.1068 -0.1985 -0.0779
10190W        W23604   8.745   1.930  11.770  0.0637 -0.1673  0.0279
10191W        W23605   2.023   3.412  13.587  0.2396 -0.1839 -0.4121
10192W        W23606  14.893  15.250  16.145 -0.4091 -0.0345 -0.1212
10193W        W23607   9.526   9.811  15.960  0.1185 -0.1512  0.0945
10194W        W23608  11.902  10.154  11.759 -0.1003 -0.1559  0.2506
10195W        W23609   2.910   5.368   3.193  0.4791  0.1525  0.1449
10196W        W23610   4.731  13.818   3.330 -0.0281  0.0824 -0.0290
10197W        W23611   0.879   9.894   5.130  0.1034 -0.2308  0.2852
10198W        W23612  14.223   6.821   2.222 -0.0398 -0.2731  0.0663
10199W        W23613  11.432  16.806  13.178 -0.2050  0.2460  0.2742
10200W        W23614   4.893   5.491   6.061  0.1802 -0.0508  0.0166
10201W        W23615  17.349   2.082   4.101 -0.0638  0.1395  0.0980
10202W        W23616  13.167  16.296  13.847  0.2841 -0.1862 -0.2878
10203W        W23617  10.967   7.359   4.079  0.0721 -0.3231  0.1833
10204W        W23618  10.790  10.695  10.688  0.1728  0.2569  0.0680
10205W        W23619   5.993  17.250  12.630 -0.0723 -0.0127  0.1801
10206W        W23620  15.867  10.669  12.429 -0.1014 -0.1513  0.0464
10207W        W23621  10.076  17.393   4.074 -0.1561 -0.1864  0.2701
10208W        W23622  15.487   4.111  14.284 -0.3535  0.0883 -0.1887
10209W        W23623   3.064   8.346  15.115  0.2325 -0.1189 -0.2485
10210W        W23624  16.814   8.300   3.229 -0.0520  0.0131 -0.2032
10211W        W23625  13.499  16.896   2.197 -0.1043  0.0248 -0.0798
10212W        W23626   7.666   1.987   2.143 -0.1088  0.5682 -0.2164
10213W        W23627   7.560   0.889   3.201  0.1086  0.0095 -0.0315
10214W        W23628  15.460   1.713   5.059  0.0626 -0.1675 -0.0976
10215W        W23629   1.169  13.247   5.232 -0.2542  0.3676  0.0895
10216W        W23630   5.876   6.305   2.118 -0.2156 -0.1267  0.0700
10217W        W23631   1.402  12.996  12.573 -0.2169 -0.2654 -0.0151
10218W        W23632  12.318  12.012  16.301 -0.3058 -0.0115  0.1826
10219W        W23633  15.531  11.639   4.395  0.1481 -0.2250 -0.3653
10220W        W23634   5.870  11.091   2.969 -0.1972 -0.0610 -0.0001
10221W        W23635   5.889   9.097   4.844 -0.3515 -0.0726  0.0576
10222W        W23636   8.115   8.637   0.888  0.2612  0.0863  0.3394
10223W        W23637   4.878   6.283   3.931 -0.3006  0.0212 -0.1887
10224W        W23638   8.926   6.950  11.937 -0.1749 -0.4293 -0.0014
10225W        W23639   0.318   2.769   5.868 -0.1019  0.4284  0.2357
10226W        W23640   0.072  13.297  16.537 -0.3220  0.1383 -0.0334
10227W        W23641  14.014   1.287   5.584  0.0756  0.1984 -0.4060
10228W        W23642   1.982  13.452  12.101  0.0017 -0.0239  0.1523
10229W        W23643  17.850  13.884  12.662  0.2282 -0.0176 -0.3277
10230W        W23644   3.013  15.586  14.119 -0.0586  0.1801 -0.0749
10231W        W23645  14.313  10.870  14.222 -0.0479  0.1335  0.0112
10232W        W23646  17.817   1.321   5.231  0.0003 -0.0837  0.0028
10233W        W23647  11.674   2.192  13.492 -0.0438 -0.0385  0.2172
10234W        W23648   6.876  13.360  14.896  0.0898  0.1333  0.0358
10235W        W23649  17.447   6.283   4.466  0.1754 -0.0623  0.3271
10236W        W23650  15.035  15.754  14.435 -0.0538 -0.0309 -0.0569
10237W        W23651  17.155   2.817   0.492 -0.0384  0.2288 -0.0016
10238W        W23652  17.242   9.353  12.639 -0.0858  0.1201 -0.1793
10239W        W23653  12.769   0.371  15.203 -0.2551 -0.1941 -0.0520
10240W        W23654  10.031  12.608   4.598  0.0859 -0.0941 -0.0200
10241W        W23655   9.853   6.731  14.705 -0.0798  0.1683 -0.1341
10242W        W23656   0.870   3.048  15.393 -0.0606  0.1342  0.0531
10243W        W23657   7.445   8.510  16.405  0.0098 -0.0317  0.0779
10244W        W23658   1.822  15.916  11.381  0.1011  0.0526 -0.1389
10245W        W23659  15.233  14.148   2.059 -0.2085 -0.0359  0.1010
10246W        W23660   6.778  17.255  10.759 -0.2180 -0.2934  0.1435
10247W        W23661   2.558  15.429   5.619 -0.1877 -0.1501 -0.0176
10248W        W23662   5.649   4.946   0.961  0.0597  0.1336 -0.0287
10249W        W23663  16.257   6.881  11.352 -0.0710 -0.1012 -0.2178
10250W        W23664  12.980  15.595   2.108 -0.0100 -0.5621 -0.0065
10251W        W23665   2.989   9.616  13.532  0.2859 -0.1910 -0.0575
10252W        W23666   6.243   7.768  11.267  0.0193  0.0313 -0.0521
10253W        W23667  10.483   7.361   2.171 -0.2295  0.2309 -0.4071
10254W        W23668  11.767  16.531   4.685  0.0713 -0.2435  0.2575
10255W        W23669   6.086   3.002   5.297 -0.3317  0.2385  0.1789
10256W        W23670  15.805   9.566   3.910 -0.0643  0.0154 -0.1234
10257W        W23671   1.663   3.164  15.782 -0.4263  0.0145  0.0506
10258W        W23672   2.310  13.102   3.314  0.2357 -0.0873  0.4425
10259W        W23673  15.909   7.246   5.005 -0.2001  0.2398 -0.3660
10260W        W23674   5.642  13.667   5.308 -0.1873 -0.0500 -0.0834
10261W        W23675   4.782   1.651   2.860 -0.0823  0.2560  0.2755
10262W        W23676   3.620  14.244   0.906  0.0318 -0.2239  0.1116
10263W        W23677   7.131  10.932   3.008  0.2385  0.0136 -0.0437
10264W        W23678  13.224  16.660   1.715 -0.1155  0.0338  0.0031
10265W        W23679   3.649  18.054   2.896  0.0353 -0.0161  0.0768
10266W        W23680   9.738   4.871   2.990  0.0921 -0.0269 -0.0333
10267W        W23681   5.526  16.641   1.634  0.1015  0.1342  0.2308
10268W        W23682   6.948   8.494  14.505  0.1212 -0.1745 -0.1977
10269W        W23683  15.237   5.676  12.133 -0.0202  0.0525 -0.0562
10270W        W23684  13.297   9.016   2.803  0.1218 -0.2711 -0.1697
10271W        W23685   7.360   1.936  12.603  0.1321 -0.1936  0.0129
10272W        W23686  12.859   9.547   3.892  0.0853 -0.0146 -0.0575
10273W        W23687   3.627  12.984   3.688  0.0339 -0.0080 -0.0606
10274W        W23688   0.204   9.121   3.684  0.0209  0.1609 -0.0946
10275W        W23689  12.235  14.585   5.690  0.2221  0.1720  0.0412
10276W        W23690   4.563  17.186  15.621  0.0111  0.2390  0.1613
10277W        W23691  16.407   7.438  14.455  0.3893  0.0308 -0.0195
10278W        W23692   1.773   2.832   0.758 -0.3211  0.0445 -0.1907
10279W        W23693   4.548  13.458   5.109  0.0030  0.1698  0.0440
10280W        W23694  15.394   4.181  12.180  0.3743 -0.1656  0.1133
10281W        W23695  15.843  14.977  13.518  0.0232  0.0075 -0.1418
10282W        W23696   8.509  11.280  14.014 -0.2691 -0.0373 -0.0521
10283W        W23697  11.421   7.202   4.086 -0.3042 -0.1192  0.1733
10284W        W23698   9.249  12.145   1.640 -0.0717  0.3178 -0.0305
10285W        W23699  17.271  15.939   5.248  0.2628 -0.0262 -0.2908
10286W        W23700   7.861   3.877  11.222 -0.2841  0.1045  0.0394
10287W        W23701   4.380   2.146  15.721 -0.1080  0.0110  0.0983
10288W        W23702  13.666   5.562  13.366 -0.0886  0.1386 -0.1453
10289W        W23703   5.903   4.862   1.806 -0.1335 -0.1714  0.0681
10290W        W23704  17.827   5.650   2.938  0.0622  0.0963  0.1478
10291W        W23705   8.275  10.890   5.576  0.0646 -0.2102 -0.1352
10292W        W23706   5.968   4.714  13.294  0.1504 -0.0900 -0.1488
10293W        W23707  17.293  10.351   3.770  0.1518  0.2386 -0.0946
10294W        W23708   9.610   0.610   2.453 -0.0349  0.2532  0.0059
10295W        W23709   5.555   8.326  13.203 -0.2734 -0.1624 -0.1825
10296W        W23710   2.918  14.222  11.385 -0.4249  0.0627 -0.0455
10297W        W23711   5.768   9.599   0.661 -0.0743  0.2501  0.1241
10298W        W23712   8.884   5.882  13.545  0.1611  0.1996  0.1288
10299W        W23713   9.708   2.370  12.510  0.1145 -0.1214 -0.0181
10300W        W23714   7.036  14.392  11.763 -0.1295 -0.0437  0.1552
10301W        W23715  10.496   7.446  14.845  0.0013 -0.0080 -0.2153
10302W        W23716   9.589   8.936  11.228  0.1235 -0.4403 -0.1405
10303W        W23717   9.854   3.330  12.300 -0.3068 -0.1734  0.0280
10304W        W23718   6.930   1.239  14.373  0.4272  0.2318 -0.2233
10305W        W23719   1.109   7.074   6.036  0.1022 -0.0712  0.4712
10306W        W23720   0.699   4.850   1.895  0.3143 -0.1938 -0.0403
10307W        W23721   1.227   3.408  15.657 -0.0092  0.0568 -0.1873
10308W        W23722   5.139  17.136   4.400 -0.0075  0.1755  0.4647
10309W        W23723   8.981  11.142   2.571  0.1159 -0.2594  0.1655
10310W        W23724   0.492  15.776  12.743  0.0770  0.1210 -0.2228
10311W        W23725  14.460   1.414   5.412 -0.2229 -0.0244  0.2938
10312W        W23726   9.835  15.360   4.398 -0.3489  0.0080  0.1837
10313W        W23727   2.861   8.477   5.598 -0.0557  0.0556  0.0059
10314W        W23728   9.078   0.852  11.701 -0.0396 -0.0723 -0.2407
10315W        W23729  14.964   3.557   1.844  0.2179  0.2115  0.1113
10316W        W23730  10.440   4.118  13.239  0.0235  0.2757 -0.0030
10317W        W23731  17.891   6.644  12.591  0.0755  0.1692  0.1968
10318W        W23732   5.702  17.267   3.084  0.0085 -0.0940 -0.2225
10319W        W23733  15.945   0.242   3.219 -0.1569 -0.0711  0.2695
10320W        W23734  15.225  15.224  15.774  0.1676 -0.1502  0.1398
10321W        W23735  15.617   5.253  13.190  0.0200 -0.3364 -0.0096
10322W        W23736   3.818   2.721   5.927  0.0118 -0.2420  0.2156
10323W        W23737   5.353   9.139  12.649  0.0237  0.0936 -0.0027
10324W        W23738   9.157  10.095  16.232  0.1960  0.2791  0.1256
10325W        W23739  18.008  17.916  11.479  0.3346 -0.1831  0.1787
10326W        W23740   5.813  13.325  13.738 -0.0459 -0.2098 -0.1203
10327W        W23741   7.059  13.231   2.971 -0.3068  0.2131 -0.1723
10328W        W23742   4.390   4.088  15.303 -0.2794 -0.1097  0.1925
10329W        W23743  11.301   5.580   2.300 -0.0550 -0.0938  0.0142
10330W        W23744   5.359  13.302   1.953  0.1659  0.0898 -0.2415
10331W        W23745   7.177   0.669   4.943  0.3030  0.1037  0.2583
10332W        W23746   4.845   6.995   5.404  0.1665 -0.2727 -0.0661
10333W        W23747   8.593  13.040   2.755 -0.0560  0.0057 -0.2893
10334W        W23748   0.779   2.706  14.203 -0.0253 -0.0247  0.0271
10335W        W23749  15.725  16.464   1.141  0.1789 -0.2950  0.0749
10336W        W23750  12.542   9.636  10.622  0.0063 -0.2482  0.3127
10337W        W23751  13.768   9.866   1.296 -0.1528 -0.3059  0.2037
10338W        W23752   4.152   2.345  15.045 -0.0600  0.1191  0.4439
10339W        W23753  16.771   0.119  15.205 -0.3248  0.0816  0.0990
10340W        W23754   3.963   8.344  12.672 -0.1411  0.2032  0.1658
10341W        W23755   7.222   0.039  15.502  0.1203 -0.1240  0.1368
10342W        W23756   3.641  15.041   6.309 -0.1071  0.2640 -0.2201
10343W        W23757   6.028   1.204  16.311  0.0213 -0.1959 -0.1549
10344W        W23758   2.589  14.995   5.860  0.0061 -0.0323 -0.3140
10345W        W23759   0.625   7.898   1.370 -0.0184 -0.1196 -0.0495
10346W        W23760  17.924   4.439   3.765  0.0250 -0.1405  0.2438
10347W        W23761  13.028   1.227  15.567 -0.0620 -0.0217 -0.1041
10348W        W23762  14.085  15.049   5.444  0.0273  0.1787  0.1515
10349W        W23763  16.160   6.281  15.145 -0.0777  0.1798  0.1332
10350W        W23764  14.326  10.446   4.709  0.2699  0.1607 -0.1194
10351W        W23765   1.911  12.212  13.475 -0.1832 -0.0207 -0.1120
10352W        W23766   4.372  16.362   3.643 -0.2277 -0.0733 -0.2209
10353W        W23767  10.489  13.920   4.565 -0.1538 -0.0928  0.2553
10354W        W23768  10.513   2.215   1.697  0.1240 -0.1250  0.1492
10355W        W23769  14.844   5.813  13.145 -0.0227 -0.0878 -0.1411
10356W        W23770   0.256  15.786  10.677  0.1768 -0.0080  0.0263
10357W        W23771  12.585  17.559   1.198 -0.1241 -0.0509 -0.0082
10358W        W23772   8.306   0.384  14.270  0.1026 -0.0033 -0.0158
10359W        W23773  13.239   9.816  15.933  0.0422 -0.1221 -0.0426
10360W        W23774   2.580   1.075   4.674 -0.1222 -0.1824  0.1837
10361W        W23775   8.574  11.967  15.998  0.0761  0.1368 -0.1272
10362W        W23776  16.071  14.775   4.914  0.0555  0.0936 -0.1066
10363W        W23777   8.733   8.197  15.307 -0.0998 -0.1476 -0.0012
10364W        W23778   5.894  10.827   2.365 -0.0364 -0.1192  0.2129
10365W        W23779   2.800   7.064   6.071  0.1644  0.0479  0.0245
10366W        W23780  14.106  14.858  15.747 -0.2404  0.5863 -0.2592
10367W        W23781  17.386   1.815   1.597 -0.1334  0.1594 -0.0255
10368W        W23782   9.142   9.540   1.899  0.1852  0.1276  0.1155
10369W        W23783   7.314   9.617  12.427  0.0084  0.3228 -0.4199
10370W        W23784  13.129   1.966  16.082 -0.0882  0.0118 -0.0692
10371W        W23785   3.240   6.230  13.530 -0.0811  0.2461 -0.0944
10372W        W23786  17.411   0.514  12.258 -0.2380  0.1835 -0.5381
10373W        W23787  13.835  17.572  11.313  0.0299 -0.0106 -0.1411
10374W        W23788   8.909   4.302   3.863 -0.1526  0.1552  0.2275
10375W        W23789   8.204   2.771   2.466  0.1995  0.1043  0.1246
10376W        W23790  14.057   0.602  13.332 -0.2133 -0.1529 -0.1170
10377W        W23791   3.183   4.468   5.023 -0.1077 -0.1610  0.1396
10378W        W23792  10.990   7.608   0.859  0.0184  0.0055  0.0784
10379W        W23793   0.833  10.363   3.774  0.1086 -0.0846 -0.3027
10380W        W23794  14.365   8.507   4.231  0.3302  0.2126  0.1073
10381W        W23795   3.064   8.121  13.385 -0.1094  0.0141  0.1073
10382W        W23796  15.769  13.607   1.573 -0.0752  0.0937  0.1748
10383W        W23797   3.300   5.460  10.160  0.2247 -0.0001  0.2511
10384W        W23798   7.763  17.421   3.324 -0.0590  0.0619 -0.2396
10385W        W23799  16.048  17.203   0.665  0.1247 -0.2430 -0.2087
10386W        W23800   5.134   5.026   0.078  0.2321 -0.2120  0.1958
10387W        W23801  16.282   7.032  11.802  0.0551  0.1933  0.1014
10388W        W23802  17.649   2.955   4.503 -0.5107  0.0150 -0.0537
10389W        W23803  17.831   6.520   6.519 -0.1323 -0.2168 -0.0950
10390W        W23804   8.374   7.298  13.044  0.0743  0.0045  0.1811
10391W        W23805   0.526  12.303   1.543 -0.0701 -0.3198  0.2719
10392W        W23806  10.339   6.579   0.524 -0.2041 -0.0128  0.1534
10393W        W23807   9.509   4.288   4.805  0.0341  0.0482  0.3810
10394W        W23808   5.077   9.174   5.405  0.1426  0.0541 -0.1927
10395W        W23809   4.088   4.674   0.373  0.1786 -0.1700 -0.1353
10396W        W23810  12.087  11.948  14.159 -0.0789 -0.1131  0.2422
10397W        W23811   4.092   2.581   0.352 -0.0388  0.0407 -0.0835
10398W        W23812  17.590   9.489  16.605 -0.1999 -0.0258 -0.1037
10399W        W23813   9.626   3.363   2.587  0.1853 -0.2190  0.2876
10400W        W23814  14.605  10.927  13.829 -0.0792  0.0678  0.2160
10401W        W23815  15.292  14.470  16.337 -0.2058  0.0743  0.2101
10402W        W23816  11.426   7.015   2.496  0.1130  0.1267  0.4382
10403W        W23817   8.491  11.484   0.283  0.2628 -0.0446  0.0246
10404W        W23818   7.975   6.561  14.549  0.1158  0.0501 -0.2708
10405W        W23819   9.163  12.046  14.458  0.3715  0.3811 -0.0455
10406W        W23820   3.066   5.714   2.310  0.1037 -0.3319 -0.1929
10407W        W23821  15.892   0.074  15.078 -0.1788 -0.2713 -0.1386
10408W        W23822  16.877  17.205   4.771  0.0693  0.0526 -0.0724
10409W        W23823  13.119  11.393  12.022 -0.0590  0.0416 -0.0860
10410W        W23824  14.911  14.766  16.537  0.1515  0.1632  0.2811
10411W        W23825  14.452   4.756  16.129 -0.0599  0.1497 -0.0098
10412W        W23826   6.687  10.795  12.109  0.0584 -0.1562  0.0154
10413W        W23827   3.537   6.476   6.704  0.2694 -0.0480  0.0010
10414W        W23828   2.780   7.614  16.534  0.3081 -0.1329 -0.3264
10415W        W23829   9.604  15.961   2.730  0.0563  0.3130 -0.0492
10416W        W23830  10.136  15.166   3.750 -0.1484  0.1411  0.0273
10417W        W23831   4.945   3.456  14.510  0.0647 -0.1685 -0.1076
10418W        W23832   0.119   9.528   5.019  0.0756 -0.3298  0.0679
10419W        W23833   6.244  14.707  11.991  0.1771 -0.1101  0.2999
10420W        W23834   1.649  10.903  11.961 -0.1650  0.3862  0.0937
10421W        W23835  12.799  17.958  16.001  0.0446 -0.1841  0.0894
10422W        W23836   9.056   3.552  12.879 -0.1032  0.1580 -0.1136
10423W        W23837   7.364   7.683  11.678 -0.1394 -0.0508 -0.0678
10424W        W23838   3.518  12.719   5.623  0.0400  0.0630 -0.0081
10425W        W23839   5.772   9.979  14.063 -0.0853 -0.1511  0.0191
10426W        W23840   7.779   3.858   2.767  0.2033 -0.0480 -0.0995
10427W        W23841  16.764   4.470   1.954  0.0054  0.1418  0.2662
10428W        W23842  12.866   0.576   4.617 -0.2550  0.1950  0.1105
10429W        W23843  12.985  10.015  12.842 -0.0045 -0.1022 -0.1262
10430W        W23844   4.934  15.997  13.569 -0.0651 -0.1202  0.1910
10431W        W23845   8.580   5.382   3.932 -0.2286  0.0814 -0.0125
10432W        W23846  17.676  11.951  13.978 -0.4580 -0.1284 -0.1657
10433W        W23847   7.746   0.167   3.513 -0.0774  0.1238 -0.0439
10434W        W23848   7.167  12.000   3.446  0.1148  0.1108  0.1484
10435W        W23849  12.023   8.046   2.806  0.1712  0.0440 -0.0339
10436W        W23850  14.531  14.370  11.243  0.0184 -0.3180  0.0586
10437W        W23851   7.620   9.207  15.645 -0.0583 -0.1534 -0.2924
10438W        W23852  16.785   3.802   3.028  0.1319 -0.1206 -0.2852
10439W        W23853   5.082   5.486   2.834 -0.1121 -0.1184  0.2965
10440W        W23854  12.325   7.307  12.189 -0.2163 -0.3040  0.1305
10441W        W23855   1.602   0.973  14.047  0.0885 -0.1637  0.1316
10442W        W23856  12.212  17.481  11.952  0.0761 -0.1364  0.1157
10443W        W23857   9.029   7.845  13.280 -0.1772 -0.1102  0.2931
10444W        W23858  15.656   0.054   2.424  0.2508  0.0901  0.1071
10445W        W23859   5.780   5.749   2.235  0.1308  0.2492 -0.0248
10446W        W23860  17.655   7.160  14.703 -0.0213 -0.2804  0.3081
10447W        W23861  16.783   7.377   4.816  0.0239  0.1345  0.1996
10448W        W23862   1.720   2.141  15.078 -0.0660 -0.0347  0.2045
10449W        W23863  15.228   1.987  11.904 -0.0368  0.0918  0.1378
10450W        W23864   2.050   5.601  14.769 -0.1761 -0.2597 -0.0502
10451W        W23865  11.510  12.972   1.930 -0.0846  0.1082 -0.3079
10452W        W23866  10.290   8.805  13.828 -0.0326 -0.1148  0.0937
10453W        W23867  10.156  13.219  11.620 -0.2099 -0.1212 -0.0842
10454W        W23868   7.849  15.752   1.542 -0.3282  0.0683 -0.2071
10455W        W23869   8.817  10.075  11.562 -0.1202 -0.2148 -0.1793
10456W        W23870  17.246  17.967  12.770  0.2263 -0.0632 -0.1782
10457W        W23871   3.866   5.764   4.285  0.2090 -0.1874  0.0545
10458W        W23872   7.089   7.876  13.581 -0.0532 -0.3168 -0.0351
10459W        W23873   0.188  12.045   5.269  0.0448 -0.0594 -0.1063
10460W        W23874   6.943   8.495  11.100  0.3838  0.1940  0.2341
10461W        W23875   0.805   1.083  16.503 -0.2097 -0.2267  0.0587
10462W        W23876  10.956   9.360  13.719 -0.1211 -0.0175  0.2886
10463W        W23877   5.522   1.675   3.801  0.0063  0.0899 -0.2317
10464W        W23878  10.156  16.532  16.018 -0.2730  0.3035  0.1794
10465W        W23879  14.980  12.371  11.684 -0.3437 -0.0845 -0.1108
10466W        W23880  11.040   0.393   1.624 -0.1512 -0.1873 -0.0597
10467W        W23881   9.361   1.067   2.662 -0.2360  0.1418 -0.1022
10468W        W23882   6.389  12.800   3.495 -0.0154  0.1196 -0.0240
10469W        W23883  15.970   9.510   0.842 -0.0520 -0.1361 -0.3071
10470W        W23884  13.712   0.026  11.202 -0.0678 -0.1729  0.0057
10471W        W23885  14.144  15.262  10.251 -0.2274  0.2164  0.3364
10472W        W23886  12.080  17.848  12.350  0.1537  0.0418  0.0889
10473W        W23887   0.396   2.406  16.208  0.1265  0.0189 -0.1104
10474W        W23888  17.404   6.246  11.369 -0.0802  0.2792 -0.0298
10475W        W23889  17.831   3.721   0.809 -0.1480  0.1076 -0.2143
10476W        W23890   5.652  11.773  12.462  0.1065 -0.1282  0.0809
10477W        W23891   1.276   5.591   3.174 -0.0587  0.0885  0.0587
10478W        W23892  11.794   3.172  13.249  0.0837 -0.2001  0.0459
10479W        W23893  12.595  17.070   0.371 -0.1443 -0.1558  0.1992
10480W        W23894  10.440  16.395  13.521  0.0643 -0.1029 -0.0050
10481W        W23895   3.943   0.532  12.743  0.3640  0.0718  0.1778
10482W        W23896  12.522   5.178   5.960 -0.0713  0.2454 -0.5644
10483W        W23897   9.598   3.426  16.279  0.1100 -0.0121 -0.2932
10484W        W23898  15.184   9.343  11.412 -0.1056  0.2001 -0.0151
10485W        W23899   2.053  13.422   4.035 -0.0497 -0.2220  0.2816
10486W        W23900   3.353   4.403   4.238  0.1854 -0.0193  0.1472
10487W        W23901   9.048  14.831   4.654 -0.0234 -0.0170  0.2794
10488W        W23902   1.510   0.127  13.894 -0.0730  0.1608  0.0713
10489W        W23903   6.034  10.736  10.403 -0.0198 -0.0288 -0.2620
10490W        W23904  16.454   1.700   6.463  0.0325 -0.1172  0.2073
10491W        W23905   3.870  17.172   5.355  0.2206 -0.2055 -0.1152
10492W        W23906   3.507  13.440  12.989 -0.0652 -0.0853 -0.0020
10493W        W23907   0.513   0.812   2.720 -0.2613  0.0027 -0.2176
10494W        W23908  12.549   5.445  15.135  0.3171 -0.1034  0.5217
10495W        W23909  11.850  17.280  11.377 -0.0492  0.1201 -0.2223
10496W        W23910   4.200   8.402   3.271 -0.1037 -0.0261  0.0593
10497W        W23911  12.399  12.554  12.236 -0.0156  0.0709 -0.3555
10498W        W23912  10.378   2.941  13.665  0.2016 -0.2055 -0.1123
10499W        W23913   9.793   7.261   5.348  0.0896  0.1385  0.2167
10500W        W23914  15.540   8.344  16.666  0.1313  0.0724  0.0811
10501W        W23915   1.683  15.990   5.585  0.1437  0.1587  0.2371
10502W        W23916  17.352  12.376   1.960 -0.2962 -0.3602  0.0027
10503W        W23917   6.851   2.714   9.889  0.0948 -0.0686  0.0738
10504W        W23918  11.333  10.061   0.063 -0.0454 -0.1950  0.0822
10505W        W23919  12.098  11.544  13.767 -0.2964 -0.0789 -0.0173
10506W        W23920   7.963  12.168   0.496  0.0578 -0.1647  0.2502
10507W        W23921   0.625   2.253  13.404  0.0373  0.1509 -0.0013
10508W        W23922   7.337  14.843   5.069 -0.3045 -0.2227 -0.1520
10509W        W23923   9.986  15.529   5.103 -0.3485  0.2455 -0.1037
10510W        W23924   8.292   0.101  16.131  0.0005  0.0180 -0.0215
10511W        W23925  12.260   1.462   5.462 -0.3810 -0.1454 -0.2621
10512W        W23926  11.783   1.474  16.429 -0.0814 -0.1456  0.0172
10513W        W23927  10.461   8.976   3.056  0.2825  0.0374  0.0707
10514W        W23928   1.177  15.330   4.316  0.0408  0.1633  0.0264
10515W        W23929  10.693  10.297   4.255 -0.3083  0.0520  0.1349
10516W        W23930   3.935   5.589   4.769  0.2077  0.0534 -0.0241
10517W        W23931  15.940  13.467   3.576 -0.0596  0.0403 -0.0411
10518W        W23932  14.075   1.559  13.463  0.1735  0.0696 -0.0937
10519W        W23933  15.697  14.168  16.527  0.0333  0.1186 -0.2354
10520W        W23934  10.267  14.496  11.143 -0.2585 -0.2869 -0.1495
10521W        W23935  12.994   7.472  16.356  0.0373 -0.1295  0.3399
10522W        W23936  12.909  12.088  14.407  0.0242 -0.2426 -0.1035
10523W        W23937   0.233   0.214  11.237 -0.0630 -0.1022 -0.1819
10524W        W23938   5.244   7.844  14.002  0.1779 -0.1473  0.0684
10525W        W23939  10.830  12.220   4.426 -0.2594 -0.0299 -0.2237
10526W        W23940   7.254  10.832  14.192  0.2028 -0.0115  0.3632
10527W        W23941   3.280  11.124   2.865  0.2914 -0.1448 -0.0099
10528W        W23942   8.721  12.355  15.491 -0.0688 -0.3637  0.0350
10529W        W23943   4.249  13.913   4.414 -0.3466 -0.1863 -0.1994
10530W        W23944  11.481   6.476   2.295 -0.2174  0.2016  0.2030
10531W        W23945   8.916  15.998   0.531 -0.0122 -0.1158  0.1719
10532W        W23946   8.042  11.299   3.708 -0.1259 -0.1121  0.1571
10533W        W23947   7.066  13.069   4.001 -0.1080 -0.1269 -0.1936
10534W        W23948  11.588  14.210  14.110  0.2642  0.0441  0.2760
10535W        W23949   7.502  10.169  13.729  0.1607  0.0334 -0.2539
10536W        W23950  10.552  10.647  16.265 -0.0496  0.0924 -0.2348
10537W        W23951  10.318   5.793  14.965 -0.1989 -0.0020 -0.1719
10538W        W23952  14.631  17.932   5.213  0.0191 -0.1114  0.1647
10539W        W23953   4.198  12.115  10.192 -0.1763 -0.1623  0.1433
10540W        W23954  14.228   6.956   1.712 -0.0717 -0.0316  0.5657
10541W        W23955  10.748  12.451  10.981  0.0908  0.0641  0.0817
10542W        W23956   8.639   7.931  16.511  0.1983  0.2285  0.0596
10543W        W23957   7.933  11.376  14.164 -0.0777  0.0623 -0.0637
10544W        W23958   8.626   9.306   0.129  0.0411 -0.0681  0.1867
10545W        W23959  10.865   4.560   4.505 -0.0361  0.0835  0.1941
10546W        W23960   0.326  17.800   4.027 -0.2856  0.1912 -0.0992
10547W        W23961   8.769  15.230  13.159 -0.0957 -0.0671  0.0067
10548W        W23962  12.445   6.380   3.936 -0.0178 -0.1842 -0.0914
10549W        W23963  11.527   2.023   2.410  0.0478 -0.0675 -0.0276
10550W        W23964  17.290  12.846   5.738  0.1891  0.2212  0.0282
10551W        W23965  12.967  11.799   4.899 -0.0938  0.0960  0.0315
10552W        W23966   3.446  17.604  11.847 -0.0473  0.0610  0.0040
10553W        W23967   0.982   0.886   6.265  0.0275 -0.0958 -0.2072
10554W        W23968   2.824   6.538  14.863 -0.1163 -0.2439  0.3457
10555W        W23969  17.817   1.067   6.187 -0.1838 -0.3641  0.0807
10556W        W23970   4.502   9.695   1.430 -0.0178 -0.1894  0.1067
10557W        W23971   4.790   8.559   0.129  0.1590 -0.0729 -0.0963
10558W        W23972   3.204   1.542   3.751 -0.0915 -0.4154 -0.0098
10559W        W23973   7.894  17.990   4.585 -0.0882 -0.2071 -0.0269
10560W        W23974  17.350  15.019   0.086 -0.3842 -0.0253  0.0057
10561W        W23975   4.170  14.265  15.916 -0.1878  0.2686 -0.1117
10562W        W23976  11.677  12.030  11.793  0.0736 -0.2135  0.1097
10563W        W23977  12.444   7.125   4.419  0.2156  0.2270 -0.1737
10564W        W23978  14.481  15.058  13.572 -0.2351  0.0237  0.4304
10565W        W23979   9.750   1.484   1.612  0.1461  0.1069  0.0171
10566W        W23980   4.160  14.772   4.202  0.2266 -0.0585  0.1031
10567W        W23981   2.778  12.838   1.775  0.0977  0.3467 -0.0096
10568W        W23982  15.615   6.460  13.950 -0.0106 -0.1965 -0.1419
10569W        W23983  10.995   6.135   3.326  0.0412 -0.1826  0.2958
10570W        W23984  14.052  13.831  14.178  0.0130  0.0132 -0.1503
10571W        W23985  14.063  16.964   3.212  0.2610 -0.0278 -0.1539
10572W        W23986   5.471  10.178  12.230  0.1252  0.0520 -0.1055
10573W        W23987  15.079   6.199  14.013 -0.0354 -0.1036  0.0575
10574W        W23988   9.839   2.162  15.483 -0.2321  0.0105 -0.1395
10575W        W23989   8.191  10.028   0.048 -0.3345  0.0359  0.2294
10576W        W23990   5.410   4.109  11.201 -0.2858  0.3682 -0.0728
10577W        W23991  18.045  12.440   3.573 -0.1032 -0.2093  0.0013
10578W        W23992  11.672  12.814  15.893  0.2165  0.0534  0.1442
10579W        W23993   3.669  15.831  14.367 -0.1790  0.3255 -0.0779
10580W        W23994  17.866   0.654  14.655 -0.1506 -0.3046  0.2340
10581W        W23995   5.931  10.589   5.600  0.1762 -0.1737  0.0347
10582W        W23996   0.912   5.757   2.298 -0.0748 -0.2126 -0.0706
10583W        W23997   3.251   5.294  13.462  0.1022  0.0157  0.2564
10584W        W23998  15.702  12.708  10.876  0.1924 -0.0791 -0.0953
10585W        W23999   7.643   7.265   0.621  0.1051 -0.4510 -0.5810
10586W        W24000   0.527   0.594   5.428 -0.2575 -0.1253  0.3402
10587W        W24001   3.983  10.190   6.562 -0.2272  0.3904 -0.2103
10588W        W24002   9.471   5.470  11.062 -0.0479 -0.0257  0.3390
10589W        W24003  14.560   3.389  11.244 -0.0833 -0.0271  0.3912
10590W        W24004  15.024  14.041   1.464  0.2866 -0.1075  0.1613
10591W        W24005  13.020  17.012   0.041  0.0066  0.0243  0.2220
10592W        W24006  11.566   9.351  15.527 -0.1767  0.3486 -0.0696
10593W        W24007  14.669  10.791   4.322  0.1332 -0.0057 -0.0312
10594W        W24008   3.152   2.470   2.221 -0.0392 -0.1212  0.2308
10595W        W24009  18.011  15.225   0.177  0.0747 -0.0983  0.1491
10596W        W24010  16.751   4.077  12.861 -0.3039 -0.1478 -0.1013
10597W        W24011   7.810   9.705  15.436 -0.0701 -0.2227  0.0727
10598W        W24012  16.409  11.522  14.540  0.2179 -0.1166 -0.5039
10599W        W24013   2.076   0.920   4.505 -0.0548 -0.0672 -0.1171
10600W        W24014  13.030   8.591   5.115  0.1448  0.4090 -0.1900
10601W        W24015   8.777  14.063   5.091  0.0555  0.0152 -0.2618
10602W        W24016   9.516   2.492  16.684  0.1069 -0.2498 -0.2106
10603W        W24017   4.119   1.076  14.717 -0.4875 -0.1120 -0.2314
10604W        W24018   1.141   1.009  11.881 -0.0660 -0.1468 -0.1454
10605W        W24019  16.517  10.434   4.177 -0.2059  0.2289 -0.3385
10606W        W24020   1.667   9.160  13.872 -0.1940 -0.2485  0.2034
10607W        W24021  10.003  13.190  14.680  0.0342 -0.1759  0.0284
10608W        W24022  10.779  10.302  14.868 -0.0955 -0.4314 -0.0860
10609W        W24023   1.604   5.193  16.063  0.0222  0.0235  0.1217
10610W        W24024   2.285  13.350   1.862 -0.1939 -0.1283  0.0606
10611W        W24025   7.508  15.113  13.962  0.1622 -0.1061 -0.1117
10612W        W24026   3.984  12.598  10.783  0.0009 -0.1344  0.0789
10613W        W24027   3.438  12.414  14.658  0.0413  0.2563  0.0905
10614W        W24028  11.061   1.119   3.022  0.0663 -0.0286 -0.0780
10615W        W24029  16.641   7.460   5.785  0.2261 -0.2897  0.0129
10616W        W24030   8.338  13.633   0.392  0.1141 -0.1761  0.1712
10617W        W24031   6.441   1.347  16.497 -0.0157 -0.1318  0.1543
10618W        W24032   1.666  12.093   2.973 -0.5358  0.0642  0.2987
10619W        W24033  11.872   3.240  12.611 -0.3490 -0.2113  0.0685
10620W        W24034   9.645  13.435  11.696 -0.0969 -0.1865  0.0536
10621W        W24035   6.890  17.160  12.830 -0.1995 -0.0137  0.0605
10622W        W24036   6.315   7.600  16.113 -0.1433 -0.0856  0.1804
10623W        W24037   7.415  16.449   4.393 -0.1164  0.0496  0.1376
10624W        W24038  16.505  10.277   5.367 -0.4479  0.0940 -0.1757
10625W        W24039   8.250  13.070   0.432  0.3070 -0.2656 -0.0388
10626W        W24040  16.621   3.707  12.021  0.1977  0.2067  0.1066
10627W        W24041  11.726   7.392  15.842  0.3386 -0.0091  0.0856
10628W        W24042   2.307  16.941   1.501  0.1368  0.0655  0.0810
10629W        W24043  10.694   0.368  15.700  0.2113 -0.1319  0.1262
10630W        W24044   1.606  13.844   5.862 -0.0190 -0.0530 -0.3210
10631W        W24045  12.667   6.822  15.073 -0.2609  0.1187 -0.0762
10632W        W24046   6.701   0.649  15.862 -0.1648 -0.0842 -0.3037
10633W        W24047   9.262   9.529   4.107 -0.0364  0.0874 -0.5424
10634W        W24048  16.205  11.104  12.270  0.2611  0.1252  0.3870
10635W        W24049   5.976  12.640  16.099 -0.0456  0.0927 -0.0888
10636W        W24050   1.723  17.319  14.729  0.0268  0.2284 -0.1185
10637W        W24051   9.930  10.954  11.129  0.1490  0.2410 -0.1264
10638W        W24052   3.290  17.473  16.216 -0.1422  0.0475 -0.0679
10639W        W24053  14.899   6.960  11.303  0.2305 -0.0567  0.1249
10640W        W24054   0.325   5.111   0.940  0.0488  0.2826 -0.0094
10641W        W24055   5.169   9.787   1.908 -0.1542 -0.0533 -0.3092
10642W        W24056   2.820  14.894   3.494  0.2934 -0.0285  0.2377
10643W        W24057   6.583   1.622  10.868 -0.0608  0.1059 -0.1749
10644W        W24058  14.621   6.205  15.292  0.2003 -0.2075 -0.0150
10645W        W24059  15.650  14.140   2.355 -0.1960  0.0927 -0.3516
10646W        W24060  12.610   4.691   4.042 -0.2483  0.0201 -0.1786
10647W        W24061  16.539   4.134   0.074 -0.1538  0.3364  0.1907
10648W        W24062   1.627  10.510   3.001 -0.4479  0.2015 -0.0767
10649W        W24063  11.666   0.917   4.532 -0.1239  0.0379  0.0848
10650W        W24064  10.076   8.069  14.426 -0.0278  0.2816 -0.0528
10651W        W24065   8.038   9.065  12.349 -0.2764 -0.2459 -0.2540
10652W        W24066   4.416   2.060   2.080  0.3314 -0.0293  0.0380
10653W        W24067   6.182   4.446   4.152 -0.0417  0.0424  0.2389
10654W        W24068   6.321   9.470  13.266  0.0283  0.0368 -0.0567
10655W        W24069   3.305  14.246   6.001 -0.3253  0.0982  0.4424
10656W        W24070  10.254   7.076   5.360 -0.4747  0.0100 -0.1021
10657W        W24071   6.825   2.497  16.036 -0.4700  0.3131 -0.0307
10658W        W24072  16.671  15.019  14.539 -0.0750 -0.0318 -0.0529
10659W        W24073  13.037  15.428  13.811 -0.0916  0.2136  0.0346
10660W        W24074   1.537   7.780   3.757 -0.0706  0.0031  0.1634
10661W        W24075  10.944  17.266   1.346  0.1379 -0.2345  0.2739
10662W        W24076   2.543  12.792  16.177 -0.1175  0.0440  0.2009
10663W        W24077   6.188   0.242  13.689 -0.1870  0.0490  0.4671
10664W        W24078  10.101   7.653  14.668 -0.0605 -0.1164 -0.0461
10665W        W24079  16.365  11.505   2.803 -0.3103  0.0333 -0.0565
10666W        W24080   2.069  17.948  16.344 -0.0858 -0.0924 -0.0453
10667W        W24081  11.742   5.923  13.276  0.0693 -0.4535  0.0394
10668W        W24082   6.491  12.251   2.401 -0.1902  0.3404 -0.0581
10669W        W24083  16.906   8.220  13.296  0.2730  0.1528 -0.1187
10670W        W24084  12.942  14.645  12.988  0.0651 -0.2344 -0.1118
10671W        W24085   3.914  16.218  14.229 -0.2358  0.0854  0.1707
10672W        W24086  15.215  15.761  12.685 -0.1598  0.0453 -0.0925
10673W        W24087  10.932  15.436   2.034  0.2558 -0.1253 -0.1922
10674W        W24088  17.320  15.852   0.988 -0.1458 -0.0691  0.0332
10675W        W24089   5.641   9.836   3.316  0.3385  0.1248 -0.2791
10676W        W24090   0.179  14.870   2.869  0.2757 -0.2047  0.1838
10677W        W24091   8.871   2.802  13.722  0.1147  0.0005 -0.2085
10678W        W24092  13.733   1.626   0.640 -0.1580  0.1700 -0.0815
10679W        W24093   1.808  15.509   4.422 -0.1046 -0.1363  0.2385
10680W        W24094   7.586  16.956  13.283  0.0472  0.4089  0.1362
10681W        W24095   5.350  13.537  11.731  0.1055 -0.1528 -0.0542
10682W        W24096   4.032   7.563  12.057  0.1046  0.1375  0.1587
10683W        W24097   6.131   8.266  15.508  0.0323  0.1317 -0.0338
10684W        W24098   1.128  15.911   0.438 -0.1332 -0.1022  0.0788
10685W        W24099  17.545  12.835   4.820  0.2864 -0.1411  0.0953
10686W        W24100  14.101   2.503  13.228  0.1226 -0.1973  0.1324
10687W        W24101   8.208  16.082  15.167  0.0685 -0.3823  0.0674
10688W        W24102   3.382  18.009  15.917 -0.1191  0.0953  0.0471
10689W        W24103   5.009  13.183  13.346  0.2785  0.1218  0.1230
10690W        W24104  12.622   0.470  10.003  0.1826  0.2164  0.4149
10691W        W24105  11.593  14.031  16.284  0.1578 -0.4120 -0.2754
10692W        W24106  14.436   1.845  14.944 -0.2044  0.0182 -0.4045
10693W        W24107   4.820  16.102  15.320  0.2152  0.1624 -0.1342
10694W        W24108   3.680  10.121   2.073 -0.0908  0.2073  0.0036
10695W        W24109   1.036  11.898  11.838 -0.1424 -0.0274 -0.0381
10696W        W24110  16.512   8.914   3.771  0.4349 -0.0335 -0.0607
10697W        W24111  13.640   2.746   2.912  0.0758  0.4234 -0.0781
10698W        W24112   7.847  15.203   5.456 -0.0555 -0.0144 -0.0026
10699W        W24113  11.170   9.992   1.884  0.0498 -0.0535 -0.0369
10700W        W24114  16.687   1.527  15.797  0.0564 -0.2306  0.1379
10701W        W24115   1.428  10.747   2.612 -0.1612  0.0341 -0.5286
10702W        W24116  15.696   8.314  13.750  0.1150  0.1245  0.0268
10703W        W24117  14.173   5.700  14.021 -0.1146  0.2987  0.1836
10704W        W24118   9.498  12.279  13.598 -0.0707  0.2025  0.0526
10705W        W24119  14.310  11.836   4.332 -0.1637 -0.0399  0.3439
10706W        W24120  12.867   8.681   0.933  0.0846  0.0134  0.0930
10707W        W24121   7.577   0.697   5.762 -0.4553  0.0288 -0.0431
10708W        W24122   6.537   9.154   0.308 -0.2442 -0.1003  0.2670
10709W        W24123  11.895  11.402  10.278 -0.4637 -0.2505  0.1546
10710W        W24124  17.320  14.833  15.752 -0.0006  0.4112 -0.0597
10711W        W24125   5.056   3.903  12.587  0.1539  0.3158 -0.3042
10712W        W24126  14.165   1.471   0.551 -0.1446  0.0306 -0.1258
10713W        W24127  12.822  13.497   4.243  0.1653 -0.0348 -0.1416
10714W        W24128   2.283   1.721   5.292 -0.2260  0.3599  0.0987
10715W        W24129   3.150  17.780  14.166  0.0956  0.3283 -0.1399
10716W        W24130   8.682   1.675   4.912 -0.1632  0.0978  0.0689
10717W        W24131  10.635   6.906   3.232  0.0216 -0.1590 -0.1432
10718W        W24132   5.164  17.722  14.292 -0.1118  0.1326  0.2420
10719W        W24133  13.049   3.293   5.977 -0.0746  0.0714 -0.0290
10720W        W24134   6.140   3.110  13.644 -0.0008 -0.0321  0.3259
10721W        W24135   1.165  13.630  15.831  0.2790  0.1472  0.0665
10722W        W24136   9.997   3.914   0.965  0.3187 -0.1591 -0.1118
10723W        W24137   6.247   4.250   5.532 -0.2567  0.0551  0.1556
10724W        W24138  11.289   6.665   5.522  0.1648  0.2399 -0.1276
10725W        W24139   5.609  16.357  14.151  0.0731 -0.2937  0.1340
10726W        W24140   7.040   0.831   6.403 -0.0747 -0.1799  0.0145
10727W        W24141   5.626  10.281  16.125  0.0961 -0.1530 -0.1844
10728W        W24142  10.763   5.833  13.786 -0.1830 -0.1866 -0.0447
10729W        W24143   9.345  12.917   1.025 -0.0301  0.1818  0.0357
10730W        W24144   8.763  15.010  13.668 -0.4431  0.2722 -0.0321
10731W        W24145   0.394   8.332   0.455 -0.0760 -0.1485 -0.4707
10732W        W24146   9.722   3.597   5.435 -0.3028  0.2104 -0.5138
10733W        W24147  16.967  14.696  16.147  0.1134 -0.0277  0.3061
10734W        W24148  17.822  16.039  13.803 -0.2877 -0.3082  0.1754
10735W        W24149   7.273   2.525   1.239 -0.0584  0.1719  0.0149
10736W        W24150  16.144  14.668  10.468  0.6028 -0.0545  0.1663
10737W        W24151   2.687   5.800   0.982  0.0620 -0.1351  0.1252
10738W        W24152  10.727   4.832  11.568  0.0809  0.2600  0.0244
10739W        W24153  13.188   0.209  11.305  0.3515  0.0221 -0.0493
10740W        W24154  11.809  13.914   3.225  0.1047  0.2272  0.1558
10741W        W24155  11.377   3.313  14.417 -0.0436  0.2154 -0.0607
10742W        W24156   1.546   1.226   0.178 -0.2853  0.3813 -0.0179
10743W        W24157  14.580   3.016   1.963 -0.0890 -0.3998 -0.0866
10744W        W24158  13.134   1.346   2.551 -0.0421  0.0799  0.1085
10745W        W24159   5.503  11.794   5.647 -0.0633  0.0548  0.1393
10746W        W24160   3.424   1.180   2.410 -0.5304  0.0610  0.2100
10747W        W24161  14.392   2.209  14.581 -0.0373 -0.1127 -0.1957
10748W        W24162  14.184   1.236   2.326 -0.2165 -0.0108  0.1934
10749W        W24163   7.001   3.266  15.579  0.1349 -0.2698  0.3221
10750W        W24164   1.737  12.729  11.824 -0.2827 -0.3363 -0.2963
10751W        W24165  10.705   2.216  12.646  0.0271  0.1106  0.0404
10752W        W24166  15.038  17.330   3.017  0.2146 -0.2835  0.1405
10753W        W24167   1.354   9.457   4.017 -0.1401 -0.2509  0.1110
10754W        W24168   6.303   6.801   0.749  0.1281  0.1350  0.1308
10755W        W24169  15.480   4.795  13.940  0.0954  0.0215 -0.2003
10756W        W24170  16.748   2.195  14.542  0.0226 -0.1384 -0.0866
10757W        W24171   7.637  16.438  16.258 -0.1342  0.3161  0.1187
10758W        W24172  11.356  13.866   1.274 -0.0896  0.0879  0.2903
10759W        W24173  15.595  14.447   2.747  0.2402  0.0111 -0.0212
10760W        W24174  16.717  13.053   1.586 -0.1241  0.2059 -0.1730
10761W        W24175   4.063   9.037  13.395  0.0083 -0.2921  0.2900
10762W        W24176   4.351  17.523   4.738 -0.1449 -0.3629 -0.1936
10763W        W24177   0.570   0.862   2.222 -0.2030  0.1090  0.0025
10764W        W24178  10.000  11.120   4.546 -0.1787 -0.0446 -0.3596
10765W        W24179   5.112   7.915   0.321 -0.0248  0.0794 -0.1257
10766W        W24180   9.609  15.659  12.927 -0.3452  0.0926 -0.1449
10767W        W24181   0.621   0.160   4.240 -0.0984  0.1989  0.2351
10768W        W24182   1.798   5.150  14.252  0.2032  0.0839  0.0390
10769W        W24183   6.059   5.685   4.566 -0.1260  0.0586  0.2018
10770W        W24184   4.352   4.117   4.509 -0.3400  0.0404  0.0751
10771W        W24185  13.795  12.736  10.332 -0.0386  0.1246 -0.2721
10772W        W24186   3.386  13.690  10.280  0.0253  0.1901  0.3032
10773W        W24187   4.173  10.357   2.275 -0.2326 -0.3426  0.2100
10774W        W24188   6.972   6.539   3.661  0.0882  0.2631  0.1571
10775W        W24189   0.739  16.889  15.997 -0.2361  0.0761 -0.3133
10776W        W24190  11.690   0.211   3.895 -0.1985 -0.1888  0.1939
10777W        W24191   4.942   1.526   5.802  0.1831 -0.2011 -0.1468
10778W        W24192   5.216   4.400  15.181 -0.0594 -0.2191 -0.0126
10779W        W24193   0.533   3.819   2.633 -0.0248  0.0544 -0.1481
10780W        W24194  13.717  16.796   1.682  0.2863 -0.2078  0.2557
10781W        W24195  16.696   0.678   3.079  0.2531 -0.0550  0.0339
10782W        W24196  10.225  15.727  15.551  0.2095 -0.2599 -0.0602
10783W        W24197   6.995  11.915   2.988 -0.0401 -0.0202 -0.2354
10784W        W24198  14.523   5.334   5.288 -0.0135  0.0485 -0.1682
10785W        W24199  17.612  13.479   0.459  0.0536 -0.1006  0.1722
10786W        W24200  15.406  10.788   2.128  0.1274  0.0613  0.1967
10787W        W24201   5.615  16.937  12.829 -0.1877  0.3473  0.4225
10788W        W24202   6.995   2.957   1.305  0.0680  0.0060  0.2253
10789W        W24203   4.423  12.972  12.654 -0.1244  0.0579  0.0888
10790W        W24204  14.960   0.735  14.904 -0.0031  0.4358 -0.2978
10791W        W24205   4.727   4.605  16.056 -0.0626  0.0347 -0.0471
10792W        W24206  12.610   1.337  13.016  0.2296 -0.1692  0.1271
10793W        W24207   0.573   4.081   3.639  0.0173  0.0051 -0.0013
10794W        W24208  15.945  12.796  13.383 -0.1468 -0.1545 -0.0136
10795W        W24209   2.900  13.247   4.404 -0.0007  0.0579  0.1401
10796W        W24210  12.618   3.294  11.753  0.2905 -0.1799 -0.1056
10797W        W24211  10.657  11.889  10.699 -0.2356  0.1528  0.4194
10798W        W24212   8.131   7.021   3.117 -0.1979 -0.2293 -0.0466
10799W        W24213  11.917   7.462  12.531 -0.2655 -0.2409 -0.1642
10800W        W24214   3.447   3.256   3.563 -0.1372 -0.0168 -0.0945
10801W        W24215   9.628   3.370  14.928 -0.1150  0.1167  0.1759
10802W        W24216   2.525   9.219  11.982  0.2484  0.2119 -0.2786
10803W        W24217   4.466  15.245   1.283  0.0947 -0.0937 -0.5738
10804W        W24218   9.178  11.944  12.517 -0.0900  0.0169 -0.0573
10805W        W24219   9.389   4.672  15.670  0.1142  0.0303  0.0828
10806W        W24220   4.183  12.184  13.626  0.0262  0.1524  0.4273
10807W        W24221   1.856   8.970  12.983  0.0834 -0.3746  0.0346
10808W        W24222   5.591   1.494   0.661 -0.0698 -0.0130  0.0210
10809W        W24223  11.247  14.246   3.880  0.2190 -0.3037 -0.1238
10810W        W24224   1.135   0.315  16.015 -0.1771 -0.0229 -0.4241
10811W        W24225  11.617   7.404   5.278  0.1387  0.3032  0.1222
10812W        W24226  14.508  12.344   3.958  0.0767  0.2375  0.0242
10813W        W24227  16.651  17.527  14.002  0.1603  0.0369 -0.0036
10814W        W24228   9.100  11.132  11.047  0.2725  0.0657  0.3146
10815W        W24229  12.317   6.332  12.054 -0.2928 -0.1072  0.0670
10816W        W24230   3.412   5.657  14.759 -0.2793 -0.0541  0.1240
10817W        W24231  10.298   8.216  13.168  0.2287 -0.1673 -0.0244
10818W        W24232   0.361   7.882   5.101 -0.0756 -0.3712  0.1950
10819W        W24233   7.263   5.765   6.251  0.1027  0.0972 -0.0722
10820W        W24234   1.133   4.537  15.827  0.1762 -0.1594 -0.3361
10821W        W24235  11.668   3.929  11.440  0.0015 -0.2682  0.0049
10822W        W24236  13.860   3.399  15.735 -0.3131  0.1396  0.0376
10823W        W24237   0.192   2.599   1.107  0.2421  0.2440 -0.0400
10824W        W24238  13.335   7.498   5.293 -0.2754  0.1330 -0.1118
10825W        W24239  16.827  12.782   4.613 -0.0688 -0.0337  0.0278
10826W        W24240  16.248   2.831   1.478  0.0167  0.1600 -0.3449
10827W        W24241   9.002  10.494  11.797 -0.0343 -0.0958 -0.0226
10828W        W24242   9.103   3.487   4.574 -0.0498 -0.1000  0.2221
10829W        W24243   4.508   2.488   0.064  0.0520 -0.3571  0.1438
10830W        W24244   9.818  13.308  10.461  0.0695  0.1319  0.1925
10831W        W24245   9.868   0.990   3.384 -0.1885 -0.3108 -0.2114
10832W        W24246   9.125  13.799  11.027 -0.0075  0.0456  0.2244
10833W        W24247  12.738   0.455  16.694  0.1315  0.0002 -0.0592
10834W        W24248   0.083   2.160   6.751  0.4137 -0.6151 -0.0778
10835W        W24249   5.759  13.117   2.826 -0.0630  0.0107  0.1055
10836W        W24250  13.135  13.705  15.500 -0.0465 -0.0220  0.0626
10837W        W24251  11.704   5.672   6.223 -0.1072  0.1749 -0.2287
10838W        W24252  12.766  14.997  12.032 -0.0624 -0.0136  0.3275
10839W        W24253  16.152  15.804   2.903  0.0950 -0.0091 -0.0611
10840W        W24254  13.796  11.667   0.630 -0.3367 -0.0011  0.0618
10841W        W24255  10.150  15.285   1.242 -0.1544  0.0595  0.2240
10842W        W24256  17.926   4.190  12.977 -0.0011 -0.0597  0.0856
10843W        W24257  14.414  12.328  10.598 -0.0953  0.1329  0.3765
10844W        W24258  10.906   5.599  15.737 -0.1415 -0.1466 -0.1170
10845W        W24259   2.285  11.353   5.120 -0.3168 -0.0427  0.1430
10846W        W24260  16.425  17.321  15.200 -0.0051  0.1768  0.3586
10847W        W24261   2.694   0.550  16.260 -0.0310 -0.0137 -0.1260
10848W        W24262  15.848  14.041   3.522 -0.0761  0.0367 -0.0235
10849W        W24263   9.659  15.527   1.963  0.0808 -0.2506  0.2890
10850W        W24264  13.074   3.712  14.157  0.2289 -0.0749 -0.2799
10851W        W24265   5.893  13.732  14.029  0.1861  0.1533 -0.2192
10852W        W24266  13.317   3.191   1.514  0.1171 -0.0453  0.1530
10853W        W24267   3.606   5.420   1.772 -0.3181  0.0451 -0.0115
10854W        W24268  11.541   0.749   0.527  0.1816 -0.1014  0.0410
10855W        W24269   7.052   5.889  14.394  0.0192  0.4111 -0.1284
10856W        W24270  15.269   7.921  16.515 -0.3109  0.1342  0.0947
10857W        W24271   1.181   2.157   4.411  0.0697  0.1878  0.3062
10858W        W24272   2.344  14.507   4.339 -0.0088 -0.3029 -0.1008
10859W        W24273  11.825  15.880   1.611 -0.1951 -0.1334 -0.1483
10860W        W24274  11.234  10.998   5.709  0.2816 -0.0517  0.1054
10861W        W24275  11.903  14.975  10.040 -0.1014  0.0618  0.0872
10862W        W24276   2.518   3.122   2.446 -0.0602  0.0967  0.2398
10863W        W24277   5.298   6.135   4.209 -0.2485 -0.0493  0.1914
10864W        W24278   7.772   6.574  13.376  0.1820  0.0325 -0.0981
10865W        W24279   4.974  13.543  11.174  0.0734  0.4465 -0.1493
10866W        W24280  16.531   6.327  12.330 -0.1057 -0.0415  0.0340
10867W        W24281   8.380   0.514  13.679  0.0649  0.3798  0.2335
10868W        W24282   3.599   9.956   0.539  0.1209  0.2333 -0.0657
10869W        W24283  16.404  13.846   3.631 -0.0877  0.1683  0.1127
10870W        W24284  11.725   3.470   3.710 -0.0448 -0.0035  0.1159
10871W        W24285   0.049   4.111   1.066 -0.2385 -0.1368  0.2824
10872W        W24286   8.368  15.082  13.382  0.2119  0.0823  0.0592
10873W        W24287   3.075  15.966   5.191  0.1253  0.3362 -0.1905
10874W        W24288   1.290  12.874  15.119  0.0199  0.1562 -0.2153
10875W        W24289   1.238   0.152  12.352 -0.1551  0.0126 -0.0956
10876W        W24290   3.446   4.180   2.974  0.1333 -0.0558 -0.0384
10877W        W24291  12.252   6.837   3.980  0.0078 -0.2243 -0.1741
10878W        W24292   4.272   2.108   3.479  0.1239 -0.2283  0.2012
10879W        W24293   8.970  16.983  10.080  0.0893 -0.1106 -0.0698
10880W        W24294  12.022   0.959   5.092 -0.0979  0.2167  0.1555
10881W        W24295   6.545  12.250   2.935 -0.0612  0.2415  0.1624
10882W        W24296   5.318  12.403   4.892  0.2605  0.0180 -0.2977
10883W        W24297  12.470   4.593  14.880 -0.0769  0.2350 -0.0534
10884W        W24298  13.677   4.483  16.639  0.0647 -0.1246  0.1448
10885W        W24299   6.218   6.826   2.090 -0.3017  0.1350  0.1284
10886W        W24300   9.260  12.405   0.818  0.0675  0.0026 -0.0190
10887W        W24301  17.947   6.835  11.643 -0.1796 -0.0880 -0.0702
10888W        W24302   0.814   5.741   0.513 -0.2465  0.1988 -0.1322
10889W        W24303  14.269   4.953   4.885 -0.0557 -0.0065  0.0977
10890W        W24304   2.373  10.841  12.687 -0.1633 -0.1362 -0.0214
10891W        W24305   9.340   6.936   0.179 -0.3143  0.1022  0.1498
10892W        W24306   5.063   1.938   3.662  0.0246 -0.0330  0.1013
10893W        W24307  12.574  14.915   1.985 -0.0917 -0.0633  0.1011
10894W        W24308  15.472  15.326   0.182  0.0086 -0.2014 -0.2204
10895W        W24309   0.968   8.648   3.281 -0.1305 -0.0299 -0.1424
10896W        W24310   0.193  13.804   4.327 -0.0082  0.1856  0.1301
10897W        W24311  10.643   9.875  12.484 -0.0543  0.1890 -0.1643
10898W        W24312  10.943  14.977   0.808  0.1434 -0.1390 -0.1892
10899W        W24313  12.611  13.008   1.677 -0.0278  0.1201  0.0916
10900W        W24314  15.256   2.900   4.044 -0.2304 -0.2866 -0.1765
10901W        W24315   3.557   8.617   4.473 -0.0990 -0.1234  0.3297
10902W        W24316  12.874   3.930   5.529  0.2051  0.1595 -0.0326
10903W        W24317   2.103   1.879  11.439  0.1252  0.1970  0.0568
10904W        W24318   4.197  14.033  12.576 -0.5241  0.4041 -0.0901
10905W        W24319   0.179  13.609  10.249 -0.0897 -0.0532  0.0377
10906W        W24320  15.798  17.401  15.776  0.1087 -0.0835 -0.0637
10907W        W24321   3.026  15.691   6.516 -0.1917  0.1625 -0.1144
10908W        W24322   6.109   2.597  13.850 -0.0256  0.0638  0.0796
10909W        W24323  10.515   7.926  14.682  0.3830 -0.0438 -0.3265
10910W        W24324   6.610  16.419   3.772  0.0728 -0.1337  0.3903
10911W        W24325   2.348  17.828   6.569  0.1287 -0.0715  0.0570
10912W        W24326  14.528   2.233   3.583 -0.1718 -0.3651 -0.3213
10913W        W24327   6.674   1.750   4.454  0.0709 -0.1339 -0.2192
10914W        W24328  14.013   8.238   2.746 -0.3646  0.2375 -0.0357
10915W        W24329   4.511   5.988   2.004 -0.0477  0.1256  0.1293
10916W        W24330   9.703   2.391   5.009  0.0233 -0.1220  0.0863
10917W        W24331   8.431   5.255   0.517 -0.0788 -0.0204 -0.1886
10918W        W24332  15.740  15.753   0.225 -0.2069  0.1906 -0.2894
10919W        W24333   2.473   1.521  13.194  0.1389  0.0334  0.1308
10920W        W24334   4.411   7.197  11.630  0.1312 -0.1901 -0.3959
10921W        W24335   5.308  12.084  14.413  0.0616 -0.0155  0.0860
10922W        W24336   4.536   4.254   1.197  0.2561 -0.0816 -0.2951
10923W        W24337  14.610  13.323   0.575  0.0565 -0.0186  0.0711
10924W        W24338   3.997   6.520  15.555  0.1492 -0.2565  0.0739
10925W        W24339   0.404   2.690   4.601 -0.2277 -0.1308  0.1210
10926W        W24340   6.887  12.963  12.123 -0.2786 -0.2090  0.1612
10927W        W24341   5.685   1.003   5.721 -0.3512 -0.0416 -0.0738
10928W        W24342   2.449   1.720  14.586  0.2528  0.1996 -0.1269
10929W        W24343  13.307  15.290   2.369  0.0336  0.1274  0.0826
10930W        W24344   8.942   7.351  11.278  0.1700  0.0109 -0.1762
10931W        W24345   0.036   5.442   1.184  0.1188 -0.2030 -0.1558
10932W        W24346   7.471  16.592   2.770 -0.0716 -0.1562 -0.2028
10933W        W24347   4.494   9.586  12.885  0.1281 -0.0312  0.2210
10934W        W24348   4.778   4.528  16.598  0.0366 -0.2567  0.0140
10935W        W24349   7.719   8.925  13.198 -0.1673  0.1683  0.1369
10936W        W24350   5.725   3.335   3.444 -0.0853  0.0191 -0.0354
10937W        W24351  17.660   3.419  13.620 -0.0283 -0.1616 -0.3517
10938W        W24352   2.766  16.036   4.740  0.2193 -0.2564  0.0790
10939W        W24353   8.666  12.286   5.139  0.2251  0.2567  0.2884
10940W        W24354  11.231  14.392  10.094 -0.0979  0.1696 -0.0725
10941W        W24355  11.284  16.215  13.305 -0.1676  0.2430 -0.0987
10942W        W24356  14.984  11.828  12.002  0.2274  0.1193  0.0966
10943W        W24357  11.500   4.285   2.099 -0.1946 -0.1108 -0.1228
10944W        W24358   0.323   4.463   0.905 -0.3439 -0.0442 -0.2675
10945W        W24359   5.085  11.937  13.441 -0.0192  0.0011 -0.5018
10946W        W24360   2.362   5.516  11.557 -0.3596  0.2195 -0.2458
10947W        W24361   1.704   1.646  14.974 -0.0439  0.0260 -0.2010
10948W        W24362   9.339   2.273  10.866 -0.0110  0.0777  0.0879
10949W        W24363  16.025   1.418   6.354  0.4453 -0.0146  0.0831
10950W        W24364  10.061  13.731  10.747  0.1616 -0.4308 -0.3012
10951W        W24365  13.009   8.697   1.588  0.4782  0.1279  0.0162
10952W        W24366  13.816  11.496  14.706  0.2459 -0.1062  0.1366
10953W        W24367   1.269   0.833  15.975  0.3659 -0.1126  0.0781
10954W        W24368   8.246  15.541  14.279  0.3024  0.1376  0.1642
10955W        W24369  15.657   4.720   5.119  0.0719 -0.2057 -0.0733
10956W        W24370   0.977   6.076   6.215 -0.1433 -0.0132  0.1594
10957W        W24371   9.808   3.964  13.179 -0.0171 -0.2842  0.0499
10958W        W24372  11.593   7.391   0.880  0.1268  0.1245  0.3508
10959W        W24373  16.367   5.221   2.296  0.1815 -0.0266  0.0472
10960W        W24374  17.460   9.451  10.948 -0.0523  0.2519 -0.1916
10961W        W24375  17.801   6.145  14.529  0.0511 -0.3158  0.1807
10962W        W24376   0.862  16.559   4.660  0.2064 -0.0819 -0.0607
10963W        W24377  14.381   3.947   6.005 -0.0164 -0.1247 -0.0484
10964W        W24378   1.106  17.635   1.518  0.1624  0.2985  0.1348
10965W        W24379   1.008  12.159  14.722  0.0167  0.0552  0.0224
10966W        W24380   7.447   3.317  12.603 -0.1617  0.0769  0.0241
10967W        W24381   6.054   7.624  11.799 -0.0387 -0.0719  0.3007
10968W        W24382  10.922  10.941   0.211 -0.1654 -0.1253  0.2465
10969W        W24383   6.929   4.730  13.615  0.1036  0.1119  0.0187
10970W        W24384   3.268  16.543  12.310 -0.1015 -0.2920  0.3198
10971W        W24385   9.583   7.819   4.546 -0.0952 -0.2123  0.0720
10972W        W24386  16.113   7.136   1.175  0.3768 -0.1902 -0.0780
10973W        W24387  11.501   3.545  16.174  0.0985 -0.2516  0.0783
10974W        W24388   9.017   7.749  12.388 -0.1094 -0.2682  0.2137
10975W        W24389   9.053   7.158   5.066  0.1600  0.1579 -0.1761
10976W        W24390   9.173  12.497  10.495  0.1910  0.1041  0.2944
10977W        W24391  14.120  11.749  14.102  0.3819 -0.1749  0.1586
10978W        W24392  10.107  11.768   3.853 -0.0621  0.0043 -0.0199
10979W        W24393   3.139   2.792   0.096 -0.0935  0.0357  0.0909
10980W        W24394  10.199   9.763   2.129 -0.0769  0.0451 -0.2301
10981W        W24395   7.555   6.934  12.033 -0.0634  0.5356  0.3258
10982W        W24396   9.820   8.612   0.697 -0.2171  0.0228  0.0636
10983W        W24397  17.872   2.090   4.198  0.0790 -0.3827  0.1837
10984W        W24398  14.098   4.079  15.647 -0.2473  0.0172  0.3768
10985W        W24399  16.695   2.060  15.068  0.2043  0.0138  0.0111
10986W        W24400   5.203  13.810   3.242 -0.1574  0.0136  0.3037
10987W        W24401  15.922   8.696  14.033  0.2345  0.2702 -0.0855
10988W        W24402  14.913   1.518   0.684  0.2259 -0.0449  0.0295
10989W        W24403  11.317  14.814  16.348 -0.4717  0.0314 -0.4293
10990W        W24404  15.575  16.887  15.118  0.0775 -0.1435 -0.2087
10991W        W24405   8.123   7.585   0.652  0.0033  0.1057 -0.4490
10992W        W24406   5.151   2.574   9.887 -0.0626 -0.3935  0.0246
10993W        W24407  15.115  11.699   9.897 -0.1097 -0.1237  0.0560
10994W        W24408   9.453  14.654  10.522 -0.1962 -0.1116 -0.3135
10995W        W24409   6.120  12.108  16.015 -0.2510 -0.0984 -0.2577
10996W        W24410  12.137  14.288   3.221  0.0461 -0.0809 -0.1758
10997W        W24411   0.917  10.659   1.322  0.4686  0.0883  0.1066
10998W        W24412   4.572   0.134  13.732  0.1261 -0.1813 -0.0214
10999W        W24413   3.692  16.853  13.611  0.1627 -0.1410  0.0316
11000W        W24414  16.127  10.201  12.067  0.0195  0.1264 -0.0535
11001W        W24415   9.117  12.886  16.190  0.4252  0.1138  0.0423
11002W        W24416  17.881  10.334   2.221  0.0336  0.0386  0.1874
11003W        W24417   5.316   4.100   5.273 -0.3949  0.0038 -0.2400
11004W        W24418  16.510   7.116   5.142 -0.0658  0.0294 -0.1036
11005W        W24419   7.483   9.904  11.164 -0.1105  0.0295  0.1920
11006W        W24420   6.820   6.445  16.176  0.1464 -0.1073  0.0734
11007W        W24421   4.106   8.982   1.917  0.2301  0.0139 -0.0883
11008W        W24422   0.748   7.873  11.555  0.0220  0.2362 -0.1771
11009W        W24423   3.408  12.426  15.290  0.2127  0.2443  0.1538
11010W        W24424   9.362  13.397  14.699  0.1695  0.0746 -0.1265
11011W        W24425  13.980   6.366  10.969  0.0681 -0.3066  0.1960
11012W        W24426  10.189   3.418  12.689 -0.0642  0.3479  0.1068
11013W        W24427  10.160   5.715  13.987  0.0876 -0.0175  0.3120
11014W        W24428   3.207   1.783  13.052 -0.3210 -0.0324 -0.0927
11015W        W24429  17.118   0.408   3.166  0.0517 -0.1537 -0.1359
11016W        W24430   2.462  12.584  10.777 -0.0439 -0.0015  0.0690
11017W        W24431   4.733   2.934  16.626 -0.0605  0.0849  0.0422
11018W        W24432   9.835   6.546   1.764  0.2054 -0.1626 -0.1341
11019W        W24433   3.080  14.855  15.297  0.0893 -0.0206 -0.1126
11020W        W24434  16.784  17.384   3.917  0.1341  0.1896  0.0992
11021W        W24435   9.139  13.819   5.490  0.3352 -0.1044 -0.0075
11022W        W24436   5.437   5.566  15.941  0.3511  0.1590 -0.0424
11023W        W24437  10.947  16.401   1.451 -0.1271  0.0865  0.0458
11024W        W24438   9.705   0.140   0.111  0.0445 -0.0804  0.0788
11025W        W24439   8.015  15.136   2.238  0.0613  0.1739 -0.0731
11026W        W24440  12.716  13.917  12.863 -0.2557  0.0668  0.3949
11027W        W24441  13.064   0.241  14.439 -0.2324 -0.1505 -0.0611
11028W        W24442  15.348   9.795   6.206  0.0894 -0.0956 -0.1004
11029W        W24443   0.594  11.839  15.939  0.1190  0.4098 -0.2285
11030W        W24444  17.034   2.419   3.187  0.1774  0.0974  0.0360
11031W        W24445   4.200  17.021  12.599  0.0485  0.3767 -0.0838
11032W        W24446  17.153  12.518   2.827 -0.0845 -0.2001  0.0222
11033W        W24447   9.995   6.009   5.999  0.4221  0.0070  0.0284
11034W        W24448  16.120  14.777  12.077 -0.2008  0.2874 -0.1823
11035W        W24449   2.908  10.137   3.734 -0.0641  0.1220 -0.1117
11036W        W24450   6.464   7.295  12.243 -0.0302  0.0727  0.2200
11037W        W24451   9.945   7.725   0.121  0.2083  0.2097  0.0250
11038W        W24452  13.670  13.861   5.058  0.2617  0.2395 -0.2770
11039W        W24453   0.540  10.243  11.552  0.0084 -0.0263 -0.0464
11040W        W24454  11.555   1.258   2.185  0.1978  0.2078 -0.1427
11041W        W24455   9.216  15.621   0.797 -0.0400  0.0834 -0.1817
11042W        W24456  12.491   1.903  12.053 -0.0836  0.0975 -0.0786
11043W        W24457   2.973   4.494   2.636 -0.0944  0.0719  0.0488
11044W        W24458  10.830  13.565  16.607 -0.1724 -0.1932 -0.0332
11045W        W24459   6.053  14.477  10.900  0.1094 -0.2274 -0.4023
11046W        W24460  12.690  11.820   4.014 -0.0059  0.0290  0.0016
11047W        W24461   4.717  12.756  11.359  0.0477  0.2188  0.2228
11048W        W24462  15.920   4.016   2.771 -0.1675  0.1605 -0.0481
11049W        W24463  11.245  11.811   4.390 -0.1586  0.0765 -0.1352
11050W        W24464   5.579   8.968   1.304  0.0165 -0.0308  0.1213
11051W        W24465   1.344  17.909   3.064 -0.2203  0.1720 -0.0081
11052W        W24466   8.389   1.109  15.315  0.0295  0.1166 -0.0398
11053W        W24467   5.656   4.139   2.434  0.2928 -0.0651  0.2452
11054W        W24468   2.472  13.354  13.443  0.0569  0.1545  0.1208
11055W        W24469  11.642   9.708   5.847 -0.0473  0.0410 -0.0066
11056W        W24470  17.349  13.966  12.009  0.1902 -0.0618  0.3012
11057W        W24471   9.407  13.016  15.801  0.1119  0.4729 -0.0570
11058W        W24472  16.158  16.155   0.962 -0.0297 -0.3522  0.0521
11059W        W24473  10.349   3.427   3.593  0.5394  0.1809 -0.2418
11060W        W24474   4.594   1.372  11.614  0.1262 -0.0027 -0.0901
11061W        W24475   9.899   0.887  10.988 -0.1753 -0.0844 -0.1627
11062W        W24476  10.694   4.522  14.960  0.0892 -0.0132 -0.0640
11063W        W24477   9.499   7.067   1.206  0.3421 -0.0159  0.0988
11064W        W24478  10.320  11.070   2.792 -0.0242  0.3056 -0.2178
11065W        W24479   7.121   9.536   3.958 -0.0099 -0.0157 -0.1832
11066W        W24480   1.354   2.976  11.213 -0.1878 -0.1306 -0.1915
11067W        W24481   0.780  10.194   4.636 -0.1338  0.1894 -0.2475
11068W        W24482  10.001  14.059   4.363 -0.1245  0.3078  0.0274
11069W        W24483   4.630  11.971  12.792 -0.0243 -0.2225 -0.0116
11070W        W24484  10.855   2.654  12.530 -0.0190  0.0247 -0.0629
11071W        W24485  12.297  17.622   3.754 -0.1793  0.2157  0.1189
11072W        W24486   1.649   6.719   1.402  0.1733  0.0664 -0.1507
11073W        W24487  13.009   2.969  16.641  0.3690 -0.2057  0.3245
11074W        W24488   5.056   3.240   1.782  0.0843  0.0062  0.1862
11075W        W24489  11.293  15.779   5.273 -0.0152 -0.1727 -0.1906
11076W        W24490   4.155   6.068   3.466 -0.0207 -0.0408 -0.0051
11077W        W24491   5.858  14.020   2.900 -0.2328  0.3031 -0.2520
11078W        W24492   7.586   5.712  14.744  0.2367 -0.2818 -0.3037
11079W        W24493  15.983   0.383   2.269  0.2110 -0.3779  0.2447
11080W        W24494  11.060   1.154   2.545  0.1053  0.1879  0.2776
11081W        W24495   6.980   9.813  10.220 -0.1553 -0.1710  0.0009
11082W        W24496  13.373   1.017   3.763  0.0015  0.0252  0.0826
11083W        W24497   6.776   6.733  13.152  0.2544  0.1794  0.0455
11084W        W24498   3.309  15.942   3.943  0.1782  0.0582 -0.0270
11085W        W24499  14.409  16.021   3.921 -0.2911 -0.0950  0.0919
11086W        W24500  12.055   9.139   2.580  0.1757  0.2542  0.0410
11087W        W24501   3.025   5.721   4.428  0.2628  0.0297 -0.0495
11088W        W24502   8.348   2.240   1.370 -0.0059 -0.4367 -0.0392
11089W        W24503   8.540   8.329   3.121  0.0846 -0.5516 -0.2626
11090W        W24504  14.567   6.542  11.402 -0.0171  0.1243 -0.0860
11091W        W24505  13.476  10.064   5.467  0.0430 -0.1693  0.2362
11092W        W24506  11.344  13.640   2.358  0.0157  0.0703 -0.3034
11093W        W24507  17.329  14.481   0.122  0.0425  0.0471 -0.0991
11094W        W24508   3.616  11.971   1.137 -0.0785 -0.0781 -0.0454
11095W        W24509   8.188   9.333  12.897 -0.1541 -0.0610  0.0197
11096W        W24510   3.377   5.812  16.620  0.0105 -0.1165 -0.2744
11097W        W24511   7.780   7.254  11.771 -0.0240  0.2149 -0.1668
11098W        W24512  10.609  14.113  11.886 -0.0640  0.0257 -0.3041
11099W        W24513   4.872   8.106   4.497  0.1110  0.0317  0.0332
11100W        W24514   3.313   6.193  12.235 -0.0121  0.0405 -0.2375
11101W        W24515   7.988   4.719  15.242 -0.0950  0.0197  0.4272
11102W        W24516   2.245  12.820  10.321  0.1227 -0.0344  0.0023
11103W        W24517  12.691   3.869   4.608 -0.0346 -0.2785  0.0870
11104W        W24518   8.691   6.798   5.684  0.0311 -0.0046 -0.0200
11105W        W24519   1.930  13.885  11.915  0.1018 -0.0914  0.4879
11106W        W24520   0.097   0.367  16.449  0.2175  0.1042  0.0783
11107W        W24521   9.325  11.443  16.585 -0.0864  0.2498 -0.0520
11108W        W24522   0.515  11.419  11.416  0.0045 -0.2147  0.0649
11109W        W24523   8.115  12.324  13.338 -0.0473  0.2386  0.0706
11110W        W24524  13.145   9.278   2.406 -0.0730  0.4936 -0.2155
11111W        W24525  16.220   4.536  11.736  0.0638  0.0191 -0.1402
11112W        W24526   2.271   1.826   0.077  0.0161  0.3196  0.1955
11113W        W24527   1.775  14.979  11.358 -0.3771 -0.0942 -0.2058
11114W        W24528  11.515  13.652  14.293 -0.0464 -0.0196  0.4070
11115W        W24529  15.304  10.404   2.458  0.0086 -0.1862 -0.0289
11116W        W24530  13.721   9.573  14.119 -0.1034 -0.3092  0.0326
11117W        W24531  13.076  12.098   3.988  0.2198 -0.1783  0.0596
11118W        W24532   7.360   5.914   0.225 -0.1960  0.0564  0.0822
11119W        W24533  12.712  15.763   2.927  0.3534 -0.1840 -0.1947
11120W        W24534   4.047  15.011   1.577 -0.1041  0.1703  0.1718
11121W        W24535   1.887  14.705  12.686  0.0171 -0.0317 -0.1421
11122W        W24536   4.225   1.087  15.786 -0.0056 -0.0296  0.0610
11123W        W24537   2.466  16.839   0.297 -0.2190 -0.0654 -0.0881
11124W        W24538   2.178  16.627  13.675 -0.0146 -0.1456 -0.4280
11125W        W24539   3.222   8.103  16.493 -0.0057  0.0330  0.3420
11126W        W24540   9.486  10.661   5.143 -0.0361  0.1786 -0.0918
11127W        W24541   2.392   3.060  13.533 -0.0085 -0.2221 -0.1136
11128W        W24542   1.917   4.602   1.706 -0.1825  0.4203 -0.0526
11129W        W24543  10.030   2.799  14.589 -0.2134  0.1202  0.0175
11130W        W24544  13.538   6.847  11.627 -0.1420  0.1444  0.2274
11131W        W24545   0.673   0.741  12.993 -0.0313  0.0583  0.0514
11132W        W24546  11.149   1.869   5.286  0.1192  0.2354  0.2400
11133W        W24547   1.876   4.899  12.077 -0.1904  0.0941 -0.0432
11134W        W24548   5.568  11.045   1.516  0.0605  0.0495  0.1047
11135W        W24549   0.902   0.155   2.814  0.0986  0.0463 -0.2002
11136W        W24550  12.801  10.398  11.618  0.3174  0.0358 -0.2179
11137W        W24551  14.472   5.490  16.429 -0.1842  0.0668  0.0134
11138W        W24552  15.190  12.367  13.482  0.1952  0.1012 -0.1534
11139W        W24553   8.356   5.729  11.841 -0.1190 -0.1054 -0.0256
11140W        W24554  14.187   2.023   0.024 -0.0578  0.0045 -0.2668
11141W        W24555   0.662   0.980  13.568  0.2390  0.0600 -0.0022
11142W        W24556  11.381   8.058  15.008  0.1183  0.3140 -0.0220
11143W        W24557  16.076   5.127   6.467 -0.1793 -0.0913  0.2069
11144W        W24558  15.593   7.987   2.503  0.1417 -0.2739 -0.1413
11145W        W24559  11.625  15.486   5.977 -0.1543 -0.0645  0.0745
11146W        W24560   8.062   5.646   1.635 -0.3279 -0.1631 -0.1608
11147W        W24561   3.230  13.631  10.796  0.0795 -0.0687 -0.0065
11148W        W24562   0.262   2.093   1.101 -0.1193  0.0406 -0.2134
11149W        W24563  15.280   3.825   1.517  0.0983  0.1958 -0.3437
11150W        W24564  13.676   8.624   3.540 -0.1976  0.3027 -0.0160
11151W        W24565   7.656   9.747   3.231 -0.1312 -0.1102 -0.0159
11152W        W24566   4.529   9.018  16.556 -0.0933 -0.1440  0.0911
11153W        W24567   0.093   9.099   0.768  0.1174  0.4174  0.0040
11154W        W24568  15.047   6.518   5.824 -0.1040 -0.1158 -0.1717
11155W        W24569   1.782   5.402   1.510 -0.1703 -0.0634  0.2546
11156W        W24570   3.004  17.011  13.615  0.1555  0.0106  0.0180
11157W        W24571   9.899  10.006   5.738  0.2683  0.1282  0.0281
11158W        W24572  12.019  13.515   3.714  0.0840  0.1964  0.0048
11159W        W24573   7.022  10.050  13.522 -0.3280 -0.0187 -0.1721
11160W        W24574  15.368  17.901  15.082  0.1002  0.1526 -0.0760
11161W        W24575   2.646  10.192   5.880  0.0206  0.2734 -0.1797
11162W        W24576  11.121  14.223   1.574 -0.1000 -0.0845 -0.0793
11163W        W24577  14.256   8.705  15.882 -0.1211 -0.2367  0.2252
11164W        W24578   9.756   4.030  15.641  0.0669 -0.0879  0.1436
11165W        W24579  14.199  15.641   0.864 -0.2543 -0.1967  0.2825
11166W        W24580   2.171   7.728  12.527  0.0887  0.1286  0.2806
11167W        W24581  11.371   2.131   3.932  0.0212 -0.0862 -0.1460
11168W        W24582   2.745  13.658  11.523 -0.1048  0.3325  0.0034
11169W        W24583  11.404  16.700   6.413  0.4256  0.0505 -0.1775
11170W        W24584   7.825   6.032   1.389  0.1078  0.0471  0.1119
11171W        W24585   0.902   5.428  12.920  0.0913  0.2162 -0.0083
11172W        W24586  14.897  15.521   2.119 -0.0268 -0.0366 -0.3722
11173W        W24587   9.655   7.768  14.850 -0.1656  0.1142  0.0347
11174W        W24588  13.146  10.106  11.808 -0.2185 -0.1140  0.4423
11175W        W24589   5.385   4.106   4.456  0.0727  0.1907  0.0838
11176W        W24590   8.480   1.754   2.748 -0.0631 -0.3891 -0.2020
11177W        W24591   9.255   7.179   5.525 -0.3589 -0.0422  0.0356
11178W        W24592   5.916   4.054   5.975  0.0020  0.0575  0.0802
11179W        W24593   4.821   3.845   0.511  0.0670  0.0707 -0.4364
11180W        W24594  14.112   5.909  16.508 -0.2853 -0.0170  0.0344
11181W        W24595   5.279  15.886   6.214  0.0193 -0.1088 -0.1998
11182W        W24596  11.275  11.842  13.829 -0.0988  0.1743  0.2770
11183W        W24597   2.861   8.813  15.815 -0.3133 -0.0825 -0.3031
11184W        W24598   7.477  15.376   2.170 -0.1563  0.0920 -0.2136
11185W        W24599  12.157   3.083   4.471 -0.0417 -0.0911  0.2938
11186W        W24600  11.270   4.114  15.499  0.0661  0.1672  0.1743
11187W        W24601  13.953  13.565   1.808 -0.2862 -0.4056  0.0213
11188W        W24602   7.071   3.202  16.071 -0.1107 -0.2411  0.1296
11189W        W24603   3.811   5.593  11.595 -0.4845 -0.0954 -0.0096
11190W        W24604   2.378   7.726   5.427 -0.0389 -0.0275 -0.1551
11191W        W24605   1.026  14.470  16.575  0.2495  0.0874  0.0137
11192W        W24606   5.090  12.667  10.964 -0.1659 -0.0866 -0.1001
11193W        W24607   6.178   6.003   2.417  0.1278 -0.1008  0.1225
11194W        W24608   2.474   4.399   2.593  0.0151 -0.2789  0.0391
11195W        W24609   0.498  11.116   0.118 -0.1332  0.2339 -0.0739
11196W        W24610   7.975   2.705  10.811 -0.0670 -0.1814  0.0486
11197W        W24611   1.828  10.408  13.304 -0.1781  0.1699  0.1836
11198W        W24612   1.407   4.010  13.785 -0.2624  0.5020  0.0058
11199W        W24613  17.175   6.762  15.653  0.0385  0.0721 -0.0676
11200W        W24614   9.788   6.217  14.403  0.1842  0.0311  0.1297
11201W        W24615  13.248  12.294  10.722  0.0378 -0.1702 -0.0455
11202W        W24616   1.993  16.921  14.939  0.1277 -0.0307 -0.4238
11203W        W24617  16.262   6.737   4.899 -0.0576 -0.3502 -0.0236
11204W        W24618   0.655  14.272   3.688 -0.0095  0.1860 -0.2211
11205W        W24619   4.025  13.005  10.476 -0.2124  0.0401 -0.2763
11206W        W24620   5.859   8.055  11.747 -0.0485  0.1591 -0.1784
11207W        W24621   4.634  13.067  11.783 -0.0264  0.0834 -0.1447
11208W        W24622   8.614   8.340  12.222 -0.0541 -0.0692  0.0523
11209W        W24623   0.513   4.129  12.979  0.1039  0.0757 -0.1229
11210W        W24624  14.549   0.272   2.140  0.1897 -0.1928 -0.2281
11211W        W24625   4.454  12.845  12.183 -0.0853 -0.0720 -0.0838
11212W        W24626  14.900  13.247  14.286 -0.1559 -0.0846 -0.1359
11213W        W24627   8.895  16.134  15.407  0.2456  0.0819  0.0536
11214W        W24628  15.095   2.571  15.815  0.1924  0.1311 -0.1938
11215W        W24629   5.056   5.463  14.950 -0.0637 -0.0109  0.1388
11216W        W24630   4.963  10.403   5.013 -0.2513  0.2941 -0.0151
11217W        W24631  16.815   9.350  14.311  0.1070 -0.1072 -0.1042
11218W        W24632  11.213  15.086   6.065 -0.1687 -0.1959 -0.1048
11219W        W24633  12.953   1.945  11.762 -0.1574  0.1676 -0.1634
11220W        W24634   7.359   6.296  16.161 -0.0575 -0.1808 -0.1721
11221W        W24635   5.515   5.402  14.763  0.0260  0.3985  0.3037
11222W        W24636   4.294  11.044   2.908 -0.1710 -0.0331 -0.0602
11223W        W24637   4.759   3.453   6.422  0.2304 -0.2734 -0.1341
11224W        W24638   2.510   1.435  13.705 -0.2401 -0.1243  0.1396
11225W        W24639  11.789  10.088   3.198 -0.1760 -0.3942 -0.3546
11226W        W24640  12.958   5.154   4.130 -0.2575 -0.1322  0.2194
11227W        W24641   6.450  10.236  16.331 -0.0135 -0.3226 -0.0817
11228W        W24642   3.143  11.559   4.721  0.1109 -0.2414  0.0621
11229W        W24643   2.604  13.434  11.961 -0.0804 -0.0071  0.2998
11230W        W24644   1.615  13.485  12.484  0.0915 -0.2630  0.0438
11231W        W24645  14.205  15.780   1.523  0.0348 -0.1758 -0.2471
11232W        W24646   5.884  13.665  16.170  0.0601 -0.0553  0.3378
11233W        W24647   9.871   2.227   3.144 -0.3634  0.1470  0.1905
11234W        W24648  13.278   0.278  13.318 -0.0630 -0.1300  0.1194
11235W        W24649  16.485  12.596   2.261 -0.0511  0.1003 -0.1925
11236W        W24650  12.066   1.213  12.304 -0.0305 -0.1647  0.0914
11237W        W24651   8.859   9.998  13.182 -0.0144  0.1418  0.0056
11238W        W24652   5.969  16.296   4.870 -0.0793 -0.1700 -0.2697
11239W        W24653   9.760   7.481  13.804  0.0599 -0.0313  0.0926
11240W        W24654   6.998   3.353   0.714  0.0094  0.3215 -0.0816
11241W        W24655  16.939  12.301   4.433  0.3436 -0.0068 -0.0300
11242W        W24656  13.510   9.466  16.677 -0.2861  0.2021  0.2178
11243W        W24657   2.364  17.015   6.016  0.0803 -0.2131  0.0879
11244W        W24658   2.565  11.051   0.121  0.1629 -0.3255  0.0544
11245W        W24659  16.721  11.869  16.553  0.0265 -0.2490 -0.0195
11246W        W24660   5.324   5.981   0.413  0.0202 -0.1750  0.0712
11247W        W24661  17.283   2.206  14.687  0.0701  0.0426  0.3884
11248W        W24662  16.172  12.631   3.293 -0.2875 -0.0531 -0.0387
11249W        W24663   7.755   2.026   0.895  0.1374  0.0457  0.1411
11250W        W24664   9.620   5.951  11.449  0.2818 -0.1060  0.0373
11251W        W24665  17.819   2.515   4.987  0.4209  0.0038  0.1655
11252W        W24666  17.817   7.264  11.964 -0.1303  0.1751 -0.3808
11253W        W24667   1.049   4.912  12.773  0.1792  0.0773 -0.1316
11254W        W24668  12.928   4.432   2.272 -0.1811  0.0365 -0.0214
11255W        W24669  11.673   3.304   5.605 -0.0944 -0.0030 -0.1935
11256W        W24670   6.477  14.450   0.421 -0.1490  0.2168  0.0249
11257W        W24671  17.505  12.526  13.066  0.1015  0.2195 -0.1010
11258W        W24672   3.401  13.907  13.055 -0.0176  0.1762 -0.2990
11259W        W24673   8.442  13.784   3.077  0.1460  0.0803  0.0471
11260W        W24674   5.275  16.076   0.206 -0.1190 -0.0357  0.0195
11261W        W24675   0.627  15.862   0.726 -0.2300  0.2810 -0.2173
11262W        W24676  16.196  17.494   6.422  0.1066  0.0356  0.2851
11263W        W24677  10.079  16.458  11.694 -0.2539 -0.1704 -0.1631
11264W        W24678  11.823   2.266  16.412 -0.0061  0.0647  0.0497
11265W        W24679   0.906   5.602   5.753  0.2730  0.2244  0.0343
11266W        W24680   0.015   3.048  15.793  0.1451  0.2482 -0.0389
11267W        W24681   8.836  15.784  16.202 -0.0420  0.1085  0.0851
11268W        W24682   0.383   8.858   4.679  0.1861  0.2052 -0.0308
11269W        W24683  17.119  10.308  12.606 -0.1786  0.0667 -0.0178
11270W        W24684  15.561  10.066  16.565 -0.2448  0.1843  0.0495
11271W        W24685   8.964  15.168   0.273  0.1494  0.1919  0.1010
11272W        W24686   8.717  16.025   3.025 -0.0596 -0.2484 -0.3452
11273W        W24687  14.234  18.038  10.448  0.0341  0.1078  0.2019
11274W        W24688   2.975  13.867   2.997  0.0999  0.1953 -0.2813
11275W        W24689  17.432  10.959   0.790 -0.4092 -0.1881  0.3387
11276W        W24690  15.928  16.352  16.028 -0.0417  0.0756 -0.1037
11277W        W24691   0.281   2.938  14.792  0.3014  0.1945 -0.0095
11278W        W24692  15.320  13.761  16.672 -0.1314  0.2181  0.1654
11279W        W24693   6.375   7.775  14.444  0.3124 -0.2090 -0.3252
11280W        W24694   5.937  11.705  16.407  0.0851 -0.2056  0.0915
11281W        W24695  13.793  17.428  10.164 -0.2676 -0.1670  0.0183
11282W        W24696  17.640  12.181   2.306 -0.0127  0.0951  0.1904
11283W        W24697  11.458   2.635   4.944  0.3550 -0.0075  0.0767
11284W        W24698   4.301   2.377  10.835 -0.0488  0.0328 -0.1501
11285W        W24699   7.003  12.589   2.756 -0.2532 -0.0468  0.1443
11286W        W24700  17.129   2.195   1.232  0.0292  0.0842 -0.0094
11287W        W24701   6.937  10.017   0.443  0.0080  0.1116 -0.0517
11288W        W24702   0.566   5.841   3.908 -0.0397  0.2021 -0.2391
11289W        W24703  10.978   7.636   1.558 -0.3752  0.0039  0.1627
11290W        W24704   4.753   7.006  11.330  0.0259 -0.0229  0.1731
11291W        W24705  11.371   7.465  14.170 -0.3140 -0.2552 -0.1221
11292W        W24706   6.668   5.519   3.144 -0.1599 -0.1769  0.2051
11293W        W24707   4.180   4.545   1.481  0.1294 -0.3660  0.0426
11294W        W24708   0.772   5.114  16.387 -0.0552  0.0392 -0.0365
11295W        W24709   9.529   8.375  12.004  0.0078  0.2554  0.0915
11296W        W24710   9.616   6.201  13.400 -0.0261 -0.0721 -0.0973
11297W        W24711  12.398   4.413   0.097  0.1963  0.3034  0.1292
11298W        W24712   6.940  15.513   1.086 -0.0504  0.0922  0.2599
11299W        W24713   8.606  12.841  12.013 -0.0765  0.0414 -0.0468
11300W        W24714  10.016   6.157   0.653 -0.0466  0.4433  0.1367
11301W        W24715  16.013   8.538   5.637 -0.2030  0.1106 -0.3456
11302W        W24716   0.068   9.788   5.477 -0.3642  0.0579 -0.0419
11303W        W24717   7.909  15.079   2.922  0.1825  0.0193 -0.2431
11304W        W24718  17.843   6.319   5.789  0.0762  0.0925  0.1654
11305W        W24719  10.764  15.886  15.696  0.2937 -0.2240 -0.0095
11306W        W24720   1.738   6.165  13.102  0.1398  0.2842  0.0861
11307W        W24721   8.447  12.723  11.258  0.0889 -0.0419 -0.0552
11308W        W24722  16.808  11.089   0.467  0.1974 -0.3690  0.1629
11309W        W24723  17.371   5.223  11.633  0.1557 -0.0443 -0.2016
11310W        W24724  13.454  13.129  14.101 -0.4381 -0.0610 -0.2586
11311W        W24725  12.512  13.520   1.094  0.5538 -0.1926  0.1579
11312W        W24726  16.737   4.818   3.595  0.0293  0.1503  0.0349
11313W        W24727  12.791  13.434  12.895  0.0194  0.2305  0.0770
11314W        W24728   5.087   5.279   2.207  0.0651 -0.1469  0.2081
11315W        W24729   5.415   3.540  14.261 -0.2678 -0.1308  0.0677
11316W        W24730  11.613  11.013   0.460  0.1107 -0.0771 -0.1353
11317W        W24731   7.102   8.345   2.720  0.0198 -0.2188 -0.2914
11318W        W24732  12.988  15.194  12.434 -0.0319  0.2267  0.0728
11319W        W24733   1.585  10.032  12.496 -0.2787 -0.1708  0.2719
11320W        W24734   5.365   3.380  13.741 -0.1027 -0.1460 -0.0663
11321W        W24735  15.154  14.596   1.215  0.1608 -0.2135  0.0886
11322W        W24736   6.540  17.999   5.070 -0.0672 -0.4358  0.0901
11323W        W24737  11.446  16.372  15.283 -0.0834 -0.0412 -0.4103
11324W        W24738  14.301  17.810   0.217  0.0229 -0.1298 -0.2806
11325W        W24739   2.507  15.009   4.529 -0.1301  0.3173 -0.1749
11326W        W24740   1.672  17.403   0.455 -0.2760  0.0041  0.1771
11327W        W24741   6.461   9.841   1.748 -0.0807  0.0691 -0.0929
11328W        W24742   1.838  10.607  15.148  0.2636 -0.5037 -0.1408
11329W        W24743   7.095   9.925   1.324 -0.1231  0.1679  0.1383
11330W        W24744  17.882   7.457   6.309 -0.4634  0.3259  0.1716
11331W        W24745   1.164  10.107   5.771  0.0286  0.3120 -0.0602
11332W        W24746  11.630  15.878  15.272 -0.1700  0.0386  0.0374
11333W        W24747   9.422   5.585  12.044 -0.0723  0.1085  0.0258
11334W        W24748   2.002   4.016  14.856 -0.0138 -0.0530 -0.1958
11335W        W24749  16.131  15.200   0.728 -0.0019  0.1381  0.2105
11336W        W24750  10.244  10.345   5.762 -0.1725 -0.2420 -0.0599
11337W        W24751  17.965   8.113  12.608 -0.1355 -0.0146 -0.2270
11338W        W24752   6.001   1.700  15.354 -0.3190  0.1480  0.0525
11339W        W24753   0.746   4.674   2.395 -0.0454 -0.0198  0.3574
11340W        W24754   1.909  13.173   3.575 -0.0521 -0.0811  0.2126
11341W        W24755   1.011   1.930  11.554 -0.0304 -0.0249 -0.1294
11342W        W24756  11.359   3.001   5.796 -0.1921 -0.4592  0.0893
11343W        W24757   2.188   1.116  12.832  0.1559 -0.0120 -0.2304
11344W        W24758   3.724  10.933   5.253 -0.2658 -0.3004 -0.3023
11345W        W24759   6.705  14.643   2.128 -0.1863 -0.0845 -0.0306
11346W        W24760  14.717   1.972   1.966  0.1077  0.0697 -0.4223
11347W        W24761  14.300  14.223  13.239  0.2378  0.3567  0.0288
11348W        W24762  15.097   3.034  12.694  0.1943 -0.1309  0.1201
11349W        W24763   4.853   8.902  15.862  0.1323  0.2612  0.3057
11350W        W24764   8.156   3.753  12.095  0.4430 -0.1047 -0.2832
11351W        W24765   8.563   1.298  16.046 -0.0932  0.0507 -0.0649
11352W        W24766   4.481   8.549   0.745 -0.3628 -0.3809 -0.0433
11353W        W24767  10.224   7.702  15.687  0.0600 -0.1292  0.4034
11354W        W24768   2.808  14.411   4.237 -0.3514 -0.0632  0.1399
11355W        W24769   7.754  16.253   5.697 -0.0538 -0.1549 -0.0236
11356W        W24770   9.803   5.056   2.502 -0.0967  0.0032  0.0206
11357W        W24771  14.034   5.238   3.330 -0.1958  0.2133  0.3372
11358W        W24772  10.099   1.816  14.379 -0.0400  0.3727  0.1681
11359W        W24773  16.620   9.985  15.614  0.0088 -0.1784 -0.2190
11360W        W24774  13.817   5.799   1.256  0.1834  0.0582  0.0729
11361W        W24775  15.232   4.511   6.648  0.1763 -0.1399  0.1409
11362W        W24776   6.448   2.080  11.477  0.1660  0.2629 -0.1064
11363W        W24777  10.898  16.132   4.401  0.1613  0.0918 -0.2431
11364W        W24778   2.791  10.441   4.999  0.1052  0.3564  0.1025
11365W        W24779   4.189  12.109  10.724  0.0194 -0.0445  0.1558
11366W        W24780  12.355  10.846   0.052 -0.4042 -0.1485  0.1742
11367W        W24781   7.148  17.193  13.442 -0.3106 -0.0986  0.0439
11368W        W24782   8.938   9.574  14.668 -0.1620 -0.2271  0.1132
11369W        W24783   7.744  15.559  13.899 -0.0174 -0.1533 -0.4074
11370W        W24784  12.801   9.941  10.930 -0.0184  0.0391 -0.0504
11371W        W24785   2.993  17.928  13.604  0.1283  0.0148 -0.1758
11372W        W24786  13.235  17.390   3.617 -0.1347  0.2240 -0.4199
11373W        W24787  12.378   9.358   4.069  0.0587 -0.0021 -0.1621
11374W        W24788  11.521  17.197   3.400 -0.0549 -0.1363  0.0394
11375W        W24789  16.939   1.576   6.126  0.0891 -0.1202 -0.0374
11376W        W24790   1.631  16.900  14.361 -0.1541  0.0370 -0.0046
11377W        W24791  16.922  11.586   5.134 -0.0544  0.0623  0.1595
11378W        W24792   5.103   5.513  14.460 -0.3381  0.0205  0.4263
11379W        W24793  10.691   6.961   3.799  0.0527 -0.0311 -0.2632
11380W        W24794  11.170  13.986  12.540  0.2241  0.1825  0.2914
11381W        W24795   7.428  13.123   1.989 -0.1980 -0.0890 -0.0165
11382W        W24796  11.451   8.698   2.906  0.0221 -0.0463  0.2459
11383W        W24797  12.900   5.783  12.497  0.0096 -0.2686  0.0642
11384W        W24798  12.768   8.108   5.173 -0.0399  0.0189 -0.0871
11385W        W24799  12.687   3.737  13.663 -0.2425 -0.3009  0.1458
11386W        W24800   3.726   4.716  16.177 -0.2470  0.0098  0.4238
11387W        W24801  16.933   6.018   1.507  0.2073  0.0040  0.1713
11388W        W24802  14.365  14.415  15.261  0.2161  0.0583 -0.1707
11389W        W24803   1.036  12.868  12.326 -0.0552  0.0983  0.1490
11390W        W24804   3.808  13.735   4.237 -0.1692  0.0173 -0.1671
11391W        W24805  17.407   6.004   3.033  0.0490 -0.0504 -0.1604
11392W        W24806   7.834   8.183  14.467  0.2126 -0.0690 -0.2178
11393W        W24807   1.324   6.558  12.408  0.2442 -0.2035 -0.0490
11394W        W24808   5.149   1.769  13.228 -0.2470  0.0118 -0.0893
11395W        W24809   7.976   6.190   5.811  0.0592 -0.2701 -0.2089
11396W        W24810   8.313   6.934  14.348 -0.2604  0.1138  0.2433
11397W        W24811  16.662   3.004  13.356 -0.2261  0.2913  0.1001
11398W        W24812   2.256   1.250  15.858 -0.0769  0.0827  0.2320
11399W        W24813  13.972  13.385   0.521 -0.2370  0.0607 -0.0946
11400W        W24814   9.596  10.384  13.753  0.0042 -0.0557 -0.0211
11401W        W24815   7.382   9.433  14.667 -0.0665 -0.0318  0.0432
11402W        W24816  16.744   8.435  15.995  0.2231 -0.1843 -0.1405
11403W        W24817   8.344  10.595  11.386 -0.0081 -0.2520  0.1961
11404W        W24818   3.728  12.408  16.001 -0.1703 -0.2835  0.0602
11405W        W24819   2.028   9.526   3.558 -0.0147 -0.3033 -0.0112
11406W        W24820  15.166   1.804   6.091 -0.0426 -0.0335  0.3324
11407W        W24821  17.894   8.757   4.668 -0.0155  0.4058 -0.2449
11408W        W24822  11.199  12.759  14.578 -0.1550 -0.1022 -0.1786
11409W        W24823  17.155   7.960   4.072  0.2171 -0.0153  0.0183
11410W        W24824   4.665   9.288   2.390  0.2898 -0.0373 -0.0801
11411W        W24825   5.951  13.408  15.373  0.0746 -0.0802  0.0940
11412W        W24826   5.327   2.815   1.907  0.1386  0.0064  0.1453
11413W        W24827   5.978  15.911   4.526 -0.4783  0.0719 -0.3807
11414W        W24828   3.208   1.432   3.133  0.0366  0.3087 -0.1647
11415W        W24829  10.348  14.748   4.813 -0.4208 -0.0705  0.0831
11416W        W24830   7.180   8.293   5.923  0.2435 -0.1221 -0.1030
11417W        W24831   4.783   5.627   2.044  0.0711  0.1879  0.1401
11418W        W24832   0.930   3.130  12.751  0.1224  0.0749 -0.2157
11419W        W24833  15.246  12.706  16.478 -0.1828 -0.2413 -0.1289
11420W        W24834   9.849  13.132  12.474 -0.2575 -0.3894 -0.1165
11421W        W24835  17.910  11.134  13.492 -0.0800 -0.1381  0.0988
11422W        W24836  12.783   1.947   5.469  0.0684 -0.0302  0.1378
11423W        W24837   4.002  12.280   0.939  0.1731  0.2341 -0.1092
11424W        W24838   9.395  10.159  14.452  0.4297  0.1710  0.2140
11425W        W24839   3.565   3.431   4.560  0.1040  0.0404 -0.0481
11426W        W24840  16.749   4.788  11.621  0.2695  0.0409 -0.0311
11427W        W24841  11.937   2.280   4.792  0.0223 -0.1169  0.2299
11428W        W24842   2.110   2.473   4.196  0.1769 -0.0359 -0.4298
11429W        W24843  15.774  15.784   3.333 -0.1776 -0.0843  0.0145
11430W        W24844  10.532   9.899  15.032  0.1539 -0.0163  0.0378
11431W        W24845   8.998  12.370   2.193  0.1265  0.0680  0.0993
11432W        W24846   0.923   3.263   2.222  0.0542  0.3348 -0.0070
11433W        W24847  10.033   0.403  14.424  0.0702 -0.1253 -0.1232
11434W        W24848  10.368  13.090  12.349  0.2018  0.0003  0.3437
11435W        W24849   6.885   9.379  12.556 -0.0281 -0.1259  0.0742
11436W        W24850  15.793   0.059   0.903  0.0529  0.1006  0.2414
11437W        W24851  16.529  12.323  16.568 -0.0082 -0.1748  0.1848
11438W        W24852  16.969  13.374  11.686 -0.0826 -0.2442 -0.2098
11439W        W24853  15.848  11.382   3.543  0.1938  0.3055 -0.1187
11440W        W24854  13.241  16.010  14.530  0.0420 -0.2299 -0.0216
11441W        W24855  17.357  10.074   4.508  0.0721  0.0939  0.2413
11442W        W24856  16.625   2.675   5.249  0.0764 -0.0749  0.1795
11443W        W24857   1.408  11.320   5.158 -0.2226  0.0380  0.1905
11444W        W24858  11.567   9.766  13.705  0.1507 -0.0203 -0.0164
11445W        W24859   7.992  16.209   4.470 -0.2286  0.2999  0.0978
11446W        W24860  13.288  14.155  14.365  0.2932  0.0607  0.1904
11447W        W24861  16.507   4.955   0.967  0.0716 -0.1623 -0.0073
11448W        W24862  10.573  17.358  11.633  0.3866  0.1326 -0.4210
11449W        W24863  13.049   3.238  12.708  0.2482  0.1371  0.0417
11450W        W24864   9.640   3.581  11.058  0.2359 -0.0002 -0.0816
11451W        W24865  13.069   7.763   3.814  0.0321 -0.1380  0.0766
11452W        W24866   4.228  16.285  14.590 -0.1533  0.2359 -0.0911
11453W        W24867  17.818   0.513   2.120 -0.1031  0.3334 -0.0756
11454W        W24868  11.740   7.026  16.408  0.2498 -0.2996  0.0151
11455W        W24869   3.369   9.219   2.517 -0.1995  0.0405 -0.0280
11456W        W24870  17.511   3.408  14.737 -0.1921  0.3556  0.2544
11457W        W24871   5.290  13.335   5.185 -0.1384  0.0945 -0.0011
11458W        W24872  10.258   0.209  13.629  0.0256  0.0811 -0.0821
11459W        W24873   5.992   8.942   1.609  0.4861 -0.2850  0.2683
11460W        W24874  18.010   4.637   4.282 -0.1270 -0.0157 -0.0052
11461W        W24875   8.959   9.961   4.168  0.3040  0.0791  0.1855
11462W        W24876   6.247   3.988   0.518 -0.0425 -0.1407  0.1432
11463W        W24877   0.334  14.256   4.566 -0.2410 -0.0914 -0.1286
11464W        W24878   6.953  15.275   3.717  0.0671  0.1889  0.0675
11465W        W24879  11.842   2.410  12.900 -0.2434 -0.1044 -0.3168
11466W        W24880   4.692  16.704  11.946  0.0901 -0.0703 -0.1129
11467W        W24881  12.382   5.883  11.221  0.5142  0.0740  0.3493
11468W        W24882  16.753  10.559   4.985  0.0368  0.3439  0.1749
11469W        W24883   4.856  12.516  15.152  0.1631 -0.1364 -0.0645
11470W        W24884   6.830  17.406   1.293 -0.1971  0.0693 -0.0571
11471W        W24885   5.586  17.637   4.491  0.1440  0.4341 -0.1363
11472W        W24886   2.344  16.726   4.612  0.0561 -0.2031 -0.1374
11473W        W24887  16.670  13.456   5.123  0.1180 -0.1753 -0.2410
11474W        W24888   2.562   4.233  12.938  0.3270  0.2114  0.0623
11475W        W24889  14.907  11.408  10.687  0.0199 -0.0922 -0.0006
11476W        W24890  16.241   2.786   5.544  0.3939  0.1130  0.1238
11477W        W24891  12.275  16.746   1.840 -0.1295  0.0046  0.0631
11478W        W24892   6.318  13.947  15.874 -0.0075  0.0919 -0.0801
11479W        W24893  10.239  17.532  13.504 -0.3250  0.0048  0.1389
11480W        W24894   7.540   7.864   1.415  0.1675 -0.0937 -0.0793
11481W        W24895  11.059   9.134   0.511 -0.0006 -0.0862 -0.0002
11482W        W24896   9.959   3.680   5.007  0.3402 -0.0141 -0.0030
11483W        W24897   9.007   9.889   1.124 -0.1431  0.1639 -0.1363
11484W        W24898   3.113  15.827  15.670  0.1278 -0.2958  0.1559
11485W        W24899  15.736  17.623   0.069  0.0656 -0.1694 -0.1838
11486W        W24900  11.038  15.574   3.684  0.2047 -0.0035 -0.1341
11487W        W24901   3.826  14.338  16.281  0.2354 -0.2232 -0.0074
11488W        W24902  16.426  17.572   5.165  0.1884  0.0169  0.1939
11489W        W24903  14.517   1.636   2.714  0.1408  0.1597 -0.2526
11490W        W24904  13.497  16.111  14.990  0.0512 -0.0314  0.0596
11491W        W24905   1.313  13.274   4.225  0.1997 -0.1170 -0.2998
11492W        W24906  10.652   8.399  13.563 -0.1449 -0.0691 -0.2312
11493W        W24907   1.490  13.815  11.017 -0.6278  0.0558 -0.2608
11494W        W24908  12.160  11.072  15.852 -0.0588  0.3394 -0.0021
11495W        W24909   6.235   4.372  11.964 -0.1444 -0.0529  0.1617
11496W        W24910  13.081  13.086  10.748 -0.2296  0.1935 -0.1118
11497W        W24911   4.476  10.469   0.840  0.0454  0.0688 -0.1167
11498W        W24912  15.125  10.905  12.205 -0.1144 -0.2703 -0.1709
11499W        W24913  16.937   9.787  12.505  0.0913  0.0036  0.4264
11500W        W24914   1.865   8.882   1.521  0.0303 -0.0295 -0.1818
11501W        W24915   5.248   8.655   5.320  0.0154 -0.1188 -0.0194
11502W        W24916   6.576   0.877  10.602  0.0311 -0.0244  0.2801
11503W        W24917  12.048   7.765   5.430  0.2060 -0.2766 -0.0273
11504W        W24918  12.294   2.351   1.517 -0.0272 -0.1723 -0.0573
11505W        W24919  15.678  10.388  12.837 -0.1749 -0.1878  0.2308
11506W        W24920  17.140   3.152  13.320 -0.2087  0.2804 -0.3954
11507W        W24921  17.894  11.889   0.538  0.1177  0.0835 -0.1088
11508W        W24922   8.900   4.115  13.864 -0.1703 -0.1874  0.1372
11509W        W24923   9.017  13.113  16.684  0.2714 -0.1235  0.2536
11510W        W24924  14.183   0.131  12.185 -0.0416 -0.0919  0.0213
11511W        W24925  11.493   6.925   1.016 -0.2360 -0.1950  0.0021
11512W        W24926  15.817   4.566   1.598 -0.0213 -0.1372 -0.0028
11513W        W24927  17.119  13.634   5.062  0.3766 -0.2765  0.1032
11514W        W24928  15.480  13.273  16.685 -0.2932 -0.0355 -0.0673
11515W        W24929   1.573   5.321  13.416  0.0442  0.0507 -0.0555
11516W        W24930   6.694  14.158   0.964  0.2469  0.3286  0.0634
11517W        W24931   9.134   3.308  15.943 -0.0544 -0.0147  0.0316
11518W        W24932   4.656  16.456  15.779  0.1706 -0.2145 -0.1918
11519W        W24933   4.078   6.514   2.673  0.0571  0.4896  0.2094
11520W        W24934   7.936   7.647   9.807 -0.0943  0.3658 -0.2630
11521W        W24935   3.963  17.629  11.875  0.2003  0.0802  0.2909
11522W        W24936   9.001   9.999   0.069 -0.1241 -0.0381 -0.0231
11523W        W24937  13.850  17.711  12.172  0.2351  0.0557 -0.0802
11524W        W24938   4.139   3.803  11.032 -0.0222 -0.0272 -0.4332
11525W        W24939  16.851   9.725   5.948  0.0635 -0.4622 -0.2941
11526W        W24940  10.044  11.482  12.298  0.0995 -0.1744 -0.1679
11527W        W24941   5.099   8.089  14.446  0.2177  0.3147 -0.2521
11528W        W24942  11.022   9.525   1.797  0.2478  0.0271  0.3695
11529W        W24943   3.032   9.430  16.662 -0.0399  0.0200 -0.0964
11530W        W24944   0.875   1.483   5.716 -0.3674 -0.1749 -0.2913
11531W        W24945   6.228   5.001   3.912  0.1377  0.3799 -0.2154
11532W        W24946  15.471   4.803   3.027  0.0781 -0.1005  0.0456
11533W        W24947  17.062   1.303  13.761  0.0370 -0.0985  0.0872
11534W        W24948   8.522   5.357   2.376  0.1899  0.0637 -0.1672
11535W        W24949  17.741   0.544   5.971 -0.1005 -0.4912  0.0381
11536W        W24950  13.775   0.028  14.027  0.2476 -0.0826  0.4091
11537W        W24951   3.330   8.087  15.970  0.1965 -0.0199 -0.0082
11538W        W24952   2.959   9.401  14.562  0.2942  0.3008 -0.0261
11539W        W24953   0.927  15.151   2.756  0.0199  0.0026 -0.2947
11540W        W24954   5.156   9.401  15.667 -0.2478  0.2049 -0.0002
11541W        W24955   9.058  15.339   4.696  0.1435 -0.0771  0.3944
11542W        W24956  17.803   6.799   5.710  0.3296 -0.1935  0.1973
11543W        W24957   7.349   0.298  14.498 -0.1223 -0.0279 -0.1551
11544W        W24958  17.123   3.980  13.844  0.0138 -0.0078 -0.1553
11545W        W24959  14.866  11.714   1.183  0.1109 -0.2020  0.0814
11546W        W24960   4.923   9.388  13.747 -0.3046 -0.0539  0.2649
11547W        W24961   7.487  10.664  16.133 -0.2930 -0.3476 -0.2825
11548W        W24962   7.679  17.756   4.962  0.1421 -0.2372  0.0788
11549W        W24963   2.356  14.537   5.723  0.0369  0.1737  0.0116
11550W        W24964  11.911  17.391   4.218  0.2567 -0.0828  0.0038
11551W        W24965  16.153  12.141  13.594 -0.3375 -0.2576  0.0469
11552W        W24966   8.952   3.693  14.196  0.0999  0.1406 -0.0678
11553W        W24967  15.312   5.751   5.578 -0.0490  0.0666 -0.2727
11554W        W24968  12.059   6.797   1.614 -0.2554 -0.0406 -0.0825
11555W        W24969  14.663  16.982   0.533 -0.0570 -0.4117  0.4384
11556W        W24970   4.844   2.413   3.589  0.2792 -0.2112 -0.1682
11557W        W24971  17.104   2.472   5.303  0.5034 -0.0808  0.1721
11558W        W24972   1.456  10.264   6.186  0.1349 -0.2125  0.0760
11559W        W24973  11.145   7.581  10.155 -0.0486 -0.0836  0.0248
11560W        W24974  15.264   2.694  14.462 -0.0669 -0.1283 -0.1103
11561W        W24975   9.544  11.826   1.371  0.2445  0.3650  0.1390
11562W        W24976  15.653  15.965  12.460 -0.2520  0.1963  0.2469
11563W        W24977   7.279   9.824   3.539 -0.1115  0.0487  0.0837
11564W        W24978  14.295   2.585  12.768  0.0294  0.1140 -0.0249
11565W        W24979  16.710  17.260  16.432  0.0724  0.1370  0.0809
11566W        W24980   7.761   5.177   1.875 -0.2557  0.0847  0.0191
11567W        W24981  17.327   1.595   2.539  0.2316  0.1624 -0.2366
11568W        W24982   8.077   6.965  10.858 -0.1838 -0.0433  0.2184
11569W        W24983  13.632   4.993   6.303  0.0531 -0.3208 -0.1364
11570W        W24984   9.709   8.434  13.230  0.0481  0.1323  0.0475
11571W        W24985  17.907   3.786  13.886 -0.2114  0.2806  0.1553
11572W        W24986   2.491   7.292  12.600 -0.4474  0.2127  0.0751
11573W        W24987   3.089   3.622  12.500 -0.1428 -0.0965 -0.2350
11574W        W24988   5.948  15.251   1.247  0.4831  0.1242 -0.0829
11575W        W24989   2.895  18.029  11.047 -0.2842  0.0843  0.1169
11576W        W24990   7.546   9.198  13.555  0.1450 -0.0914 -0.1542
11577W        W24991  14.179   9.724  11.719 -0.1909 -0.2240  0.0410
11578W        W24992   0.547  16.107  13.967 -0.2072  0.2310 -0.0853
11579W        W24993   3.304   3.524   5.043 -0.0325 -0.0459  0.0255
11580W        W24994   9.419  10.641   3.110  0.3214  0.0919 -0.0312
11581W        W24995  10.364   5.798  10.546  0.0705 -0.2955 -0.1221
11582W        W24996  15.710  11.430  11.573 -0.3061 -0.0678 -0.3093
11583W        W24997   1.153  14.168  15.005 -0.1031 -0.1357 -0.0070
11584W        W24998   2.667  11.181  12.001  0.0447  0.2020 -0.2638
11585W        W24999   7.634  15.153   4.756  0.3466 -0.2649 -0.0416
11586W        W25000   9.620  11.255  11.430  0.5432 -0.0820  0.0301
11587W        W25001   4.397  14.847  16.639  0.0733  0.1302  0.0955
11588W        W25002   3.782  14.540   1.468  0.3191  0.1977  0.3473
11589W        W25003  15.798   0.003   1.833 -0.1968  0.0476 -0.3121
11590W        W25004   8.410   7.794   2.988  0.0406 -0.0630 -0.0996
11591W        W25005  15.677  14.307  16.045  0.1277  0.3096  0.1133
11592W        W25006  17.136   6.919   5.046  0.0765  0.0717  0.0631
11593W        W25007  12.273  13.492   2.050  0.0511 -0.1529  0.0025
11594W        W25008   8.688   6.435   1.415 -0.3617  0.0549 -0.1833
11595W        W25009   8.616   3.706  13.779 -0.1750  0.4934  0.2850
11596W        W25010   5.231   1.233  13.815  0.2968  0.0461 -0.2856
11597W        W25011  11.380  15.676  13.118  0.0097 -0.0749 -0.2677
11598W        W25012  10.274   4.549   4.593  0.0508 -0.0060  0.0823
11599W        W25013   3.501  11.710   5.703  0.0410 -0.1667  0.0055
11600W        W25014  16.108  11.558   0.998 -0.3751 -0.0655 -0.5524
11601W        W25015   8.907   6.242  12.712  0.4130 -0.0708 -0.0776
11602W        W25016   0.907   3.169  12.215 -0.0793  0.0550 -0.0673
11603W        W25017  12.053  18.020   3.544  0.2620  0.0451 -0.0467
11604W        W25018   0.921   1.603  15.473  0.1374  0.1827  0.0281
11605W        W25019  14.933  10.936   3.031  0.0988  0.0531 -0.0034
11606W        W25020   8.521   8.986   2.459 -0.0477  0.2376  0.0847
11607W        W25021  17.873   1.655  14.744 -0.0722  0.1979 -0.0357
11608W        W25022  14.713  10.157   5.658  0.2757 -0.0211 -0.1902
11609W        W25023   4.477  11.708  10.480 -0.2626  0.0847  0.1981
11610W        W25024   2.610   1.435   1.439 -0.1311 -0.0342 -0.0602
11611W        W25025   8.722   9.858   2.189 -0.1039 -0.1480  0.1325
11612W        W25026  15.327   5.517   1.343 -0.1571 -0.3233  0.1816
11613W        W25027   8.019   6.558  15.605  0.3146  0.1731 -0.1527
11614W        W25028  17.854   8.012  13.160 -0.2491 -0.2159  0.0019
11615W        W25029  10.214  13.705   6.341 -0.1712  0.2261 -0.2256
11616W        W25030   4.152   6.320  15.148  0.0457  0.0998  0.0764
11617W        W25031  16.820  15.880   5.519  0.3415  0.1352 -0.1362
11618W        W25032   2.287  18.021  11.695 -0.0422  0.0241 -0.4375
11619W        W25033  14.902  10.953   5.320 -0.1463  0.1802  0.1932
11620W        W25034   5.425   4.048  12.901  0.2985 -0.1027 -0.0585
11621W        W25035  10.034   8.756   3.919 -0.1220 -0.0009 -0.2229
11622W        W25036   9.707  12.305  15.276 -0.0314 -0.1077  0.0596
11623W        W25037   2.525  16.310   0.859  0.3767  0.0297  0.2190
11624W        W25038   2.057  11.968   4.313 -0.1663 -0.0201  0.1064
11625W        W25039  10.408  16.253  15.554 -0.0607 -0.2555  0.0062
11626W        W25040   2.612   7.669   4.594  0.2652 -0.0532 -0.2771
11627W        W25041  12.346   9.972   1.663 -0.0660  0.0778  0.1308
11628W        W25042   9.070  14.972   3.730  0.1143 -0.0144 -0.0486
11629W        W25043   9.994  17.116   2.764  0.0594  0.0020  0.0956
11630W        W25044  15.782   2.817  11.094  0.1164 -0.1780  0.2030
11631W        W25045  10.428  12.193   0.211  0.0517  0.2382  0.1124
11632W        W25046   6.278  16.650  15.532 -0.3802 -0.1558  0.0279
11633W        W25047   4.623   0.076  16.402 -0.0052 -0.1987 -0.1328
11634W        W25048  14.185  15.149  10.762  0.2121  0.3086  0.1384
11635W        W25049  17.614  14.977   1.066  0.4476  0.0153  0.0195
11636W        W25050   2.166   5.414   0.525 -0.2089 -0.1870 -0.0301
11637W        W25051  10.060   1.759   0.335 -0.0584 -0.2223 -0.0614
11638W        W25052  16.992   4.669  15.993  0.0532  0.2167  0.1963
11639W        W25053   4.524   2.321   4.447  0.0871  0.1925  0.3478
11640W        W25054   4.192   1.111   4.428 -0.1059  0.0768 -0.1913
11641W        W25055   2.655   7.488  12.183  0.1421  0.1480  0.2350
11642W        W25056   9.733  14.740  11.556  0.3954  0.1342 -0.2012
11643W        W25057   5.076   9.655   2.399  0.0034  0.3136  0.2928
11644W        W25058   7.369  12.329   2.552 -0.1225 -0.0434 -0.1400
11645W        W25059  12.536   4.066  12.709  0.0497 -0.0454 -0.0014
11646W        W25060   9.894  12.225   5.483 -0.0721  0.0804  0.0087
11647W        W25061   5.415  12.932  15.350  0.0264 -0.1586 -0.2759
11648W        W25062  13.159  11.720  11.602  0.1040  0.0476  0.3118
11649W        W25063   1.281  13.719   4.570 -0.0219  0.0958 -0.0406
11650W        W25064   3.541   8.042  13.657  0.2295 -0.0845  0.0302
11651W        W25065   7.092  14.025  15.834 -0.2505 -0.1499  0.1211
11652W        W25066  12.392   2.652  16.672 -0.0754  0.0010  0.1949
11653W        W25067   4.883  14.951  15.540 -0.0151 -0.4337 -0.2000
11654W        W25068  12.224   9.042  14.158  0.4149  0.5318 -0.0491
11655W        W25069   0.676   4.551  12.664 -0.2690  0.0038  0.0259
11656W        W25070  16.500  17.760   2.205  0.2921 -0.0015 -0.0945
11657W        W25071   7.348   2.348  16.001  0.1649 -0.1221 -0.2580
11658W        W25072  17.288  11.666   2.477  0.1212 -0.0219  0.0824
11659W        W25073   0.412   1.764  15.536  0.1438  0.0710  0.1272
11660W        W25074   9.037   1.249   4.998  0.1324  0.0329  0.1701
11661W        W25075   7.400   3.461  14.722  0.0296  0.2106  0.2372
11662W        W25076   3.811   3.764   4.833  0.1335 -0.1137  0.1105
11663W        W25077  13.377   0.912   2.672 -0.0953 -0.0109 -0.0917
11664W        W25078  13.786   9.738  12.083  0.1075 -0.1506 -0.1719
11665W        W25079   6.732   7.804  15.029  0.1418 -0.2214  0.1858
11666W        W25080   5.356   8.913  15.774 -0.0481 -0.0232 -0.0976
11667W        W25081   6.490  13.147  14.499 -0.0791  0.0076 -0.1340
11668W        W25082  17.675   6.126   6.222 -0.0023 -0.1125 -0.0724
11669W        W25083  18.046   2.898   1.544 -0.0551 -0.4433  0.4419
11670W        W25084  15.409  14.499   3.733 -0.0729  0.1659  0.1122
11671W        W25085  17.194   0.617   2.170  0.1415  0.0984 -0.0433
11672W        W25086  15.862   3.422   0.306 -0.0415  0.1790  0.2238
11673W        W25087   3.482   2.997   4.943  0.2145 -0.0992  0.0268
11674W        W25088  16.189  15.853   5.531 -0.3101  0.0888  0.1485
11675W        W25089  15.217   8.399  14.731  0.1376 -0.0149 -0.0293
11676W        W25090   1.433  15.637  15.742  0.0648  0.2441  0.2099
11677W        W25091   3.019   8.906   1.522 -0.0521  0.5727 -0.4329
11678W        W25092   4.283   1.898  10.596  0.2276 -0.1547  0.2287
11679W        W25093  16.323  10.286   4.912 -0.1194 -0.1352 -0.2349
11680W        W25094   5.602  15.744  12.883 -0.2388  0.1573 -0.1394
11681W        W25095  12.006   3.473  11.303 -0.1533  0.2935  0.2496
11682W        W25096  17.867  14.378   1.380 -0.4043  0.0532  0.1268
11683W        W25097  17.612   2.614   4.096  0.0941  0.0506  0.0581
11684W        W25098  11.551  17.297   5.722 -0.1192  0.3134 -0.1975
11685W        W25099   5.382   0.873   6.695  0.1116  0.0094 -0.0711
11686W        W25100   9.364  14.244   0.598  0.0103 -0.4642  0.0563
11687W        W25101   8.486   9.623   4.716 -0.0090 -0.0338 -0.1952
11688W        W25102   9.577  15.123  10.446  0.1618 -0.1902 -0.1753
11689W        W25103   2.481   2.105   3.564  0.0698 -0.1154  0.0627
11690W        W25104   1.935  14.333   6.133  0.1900  0.1233  0.1184
11691W        W25105   1.775   3.455   3.074  0.0456  0.1403  0.2055
11692W        W25106   2.362  11.551  12.811  0.1079 -0.0075  0.1307
11693W        W25107  10.755  13.987   4.971  0.2471  0.1341 -0.1701
11694W        W25108  11.539   7.176  12.241 -0.0139  0.0352  0.0206
11695W        W25109   6.482  13.073  14.982  0.2152  0.1174 -0.0163
11696W        W25110  16.627   6.332  13.548  0.2353  0.0878  0.3417
11697W        W25111   8.866   2.471  10.901 -0.1716  0.0365 -0.0504
11698W        W25112  10.914  16.100  12.809 -0.0180  0.2865  0.0048
11699W        W25113   3.051  11.829  11.601  0.1856 -0.1138 -0.2028
11700W        W25114  11.897   0.573  11.225  0.1331 -0.4370  0.1806
11701W        W25115   7.908  16.160   2.742  0.3943  0.0233 -0.2457
11702W        W25116   9.874  14.570   4.523  0.2750 -0.0930  0.2285
11703W        W25117   7.743  11.907  10.029 -0.0618 -0.0715 -0.0489
11704W        W25118   3.541   0.262   3.871 -0.3599 -0.2945  0.2093
11705W        W25119   2.302   0.075  11.195  0.2019 -0.1601 -0.4388
11706W        W25120  11.148  17.656   1.536 -0.2726  0.0101  0.0776
11707W        W25121   3.232   0.229  13.974 -0.0265  0.1156 -0.0495
11708W        W25122  12.397   5.262  13.354  0.2274  0.2285 -0.0056
11709W        W25123   2.103  17.625   2.295 -0.3184 -0.3371  0.2510
11710W        W25124  15.645   5.859   3.407  0.0297 -0.0793 -0.0481
11711W        W25125   8.377   6.237   2.011  0.0504  0.5304  0.1140
11712W        W25126  11.916   9.351   1.671  0.0139  0.3190  0.1654
11713W        W25127   8.180   8.988  14.416 -0.0942  0.2051 -0.0748
11714W        W25128   0.450  16.156  13.135  0.0836  0.2385  0.0573
11715W        W25129  12.872   3.147   0.698  0.0368 -0.1309  0.0372
11716W        W25130  16.152  17.001   6.005  0.0176  0.1593 -0.3888
11717W        W25131  11.345  14.537  10.743  0.0565  0.1486  0.3404
11718W        W25132   0.581  10.692   0.366  0.1710 -0.0160 -0.3464
11719W        W25133  14.345  16.307   2.314  0.0930  0.3227  0.0753
11720W        W25134   2.414   6.240   3.283 -0.0744  0.1770  0.0144
11721W        W25135  15.655   8.764   3.380 -0.0845  0.2713 -0.2708
11722W        W25136   2.422  11.153  13.122 -0.1807  0.2766 -0.0271
11723W        W25137  11.743   6.896   1.996  0.2401 -0.2571 -0.1879
11724W        W25138  13.490   0.572   3.518  0.2401  0.0993 -0.0280
11725W        W25139   5.567  16.619   3.793  0.0860  0.0642 -0.1203
11726W        W25140   8.177   3.128   5.547  0.0770 -0.0773  0.1321
11727W        W25141  16.135   8.338   0.887 -0.0420 -0.0486 -0.0844
11728W        W25142   7.455  16.764  10.845 -0.1569  0.0020  0.1152
11729W        W25143  10.821  11.372   1.549 -0.0317 -0.0265  0.1268
11730W        W25144   3.293   6.880  13.084  0.0825  0.1377 -0.2635
11731W        W25145   6.168  12.887   3.919  0.0970  0.2526 -0.2098
11732W        W25146  14.423   5.543   1.635 -0.0781  0.0008 -0.0793
11733W        W25147  12.395  15.570  12.738  0.0808 -0.2819  0.0342
11734W        W25148  16.385   2.700   1.046  0.0626 -0.0101  0.0479
11735W        W25149  12.636  11.862  12.876 -0.0221 -0.1835  0.1832
11736W        W25150  13.827   8.271  14.391 -0.0356 -0.2054 -0.0146
11737W        W25151   0.961   5.041   0.199  0.2315  0.2852  0.0983
11738W        W25152   1.670   6.810  12.673 -0.1352  0.0380 -0.3174
11739W        W25153  13.719   4.478  11.361  0.0978 -0.3210 -0.1321
11740W        W25154  13.421   1.105   4.295 -0.4953  0.0188  0.3495
11741W        W25155  17.301  16.366  11.770 -0.0544  0.0024  0.2291
11742W        W25156   1.839  15.588  12.777 -0.2377  0.0063  0.3076
11743W        W25157   3.429  12.368  11.909  0.0662  0.0640  0.2000
11744W        W25158   1.196   7.037   0.880  0.1312  0.0633  0.1589
11745W        W25159   9.334   6.645   3.911  0.0164  0.0252 -0.1776
11746W        W25160   5.538   8.252   3.433  0.2970  0.0217 -0.0670
11747W        W25161   6.497   3.345  15.497 -0.1521 -0.0190  0.0986
11748W        W25162   8.939   2.905   0.581  0.0252  0.1314  0.3887
11749W        W25163   9.929   9.394  16.417  0.0590  0.1198  0.0052
11750W        W25164  17.883   0.147   6.355  0.1417  0.1008 -0.0561
11751W        W25165   2.637   2.932   1.121  0.0998 -0.1552  0.1382
11752W        W25166   3.214  11.508   3.746  0.1769  0.0553  0.0474
11753W        W25167  10.609   9.360   2.058  0.0027  0.0181  0.1086
11754W        W25168   7.614   5.694  13.097  0.0048  0.1197 -0.1690
11755W        W25169   4.025   8.396  14.319  0.0002  0.0297  0.1739
11756W        W25170   8.016  14.898  10.527 -0.0791  0.0209 -0.0119
11757W        W25171  17.689   1.426   0.405 -0.0583  0.1390  0.0688
11758W        W25172  15.773   3.934   3.822  0.2727 -0.2173 -0.4629
11759W        W25173   4.479  13.653  15.858 -0.2352 -0.2901 -0.3103
11760W        W25174   5.611  15.585  10.159 -0.1055  0.0580  0.1055
11761W        W25175   2.993   2.038  13.910  0.0841  0.1271 -0.0560
11762W        W25176   6.804   2.583   1.552  0.1391 -0.1925  0.0335
11763W        W25177  14.253  15.423   5.208 -0.1396 -0.3422 -0.0073
11764W        W25178  15.062   5.579   2.818 -0.1517 -0.2909 -0.0238
11765W        W25179   6.394  15.568  11.520  0.1472  0.1909  0.3167
11766W        W25180   5.813  16.148   3.693 -0.0357 -0.1721 -0.2571
11767W        W25181   7.291   6.692  16.627 -0.0169 -0.2908 -0.1618
11768W        W25182  12.304   8.709  11.271  0.0641 -0.3057  0.0067
11769W        W25183  16.635  13.145  10.966  0.0822  0.0279  0.2309
11770W        W25184   9.521   4.416  13.338  0.4018  0.2788  0.2372
11771W        W25185   2.905  12.291  15.381  0.1735  0.0378 -0.0503
11772W        W25186   3.589  14.706   1.005 -0.0185  0.0392 -0.0112
11773W        W25187  16.393  11.543   4.205 -0.0314 -0.2630  0.1634
11774W        W25188   9.625   1.424  11.916 -0.0553  0.0012 -0.2315
11775W        W25189  17.942   5.273   6.470 -0.1514 -0.1626  0.2779
11776W        W25190   9.457   2.890   0.504  0.1828 -0.3596 -0.2874
11777W        W25191   4.143  15.532   2.350 -0.1511 -0.0051  0.1877
11778W        W25192   6.236   9.409   2.640  0.0046 -0.2746  0.1740
11779W        W25193  17.499   1.968  12.882 -0.0910  0.0542 -0.1107
11780W        W25194  17.621  15.816   4.875  0.2930 -0.0337  0.0468
11781W        W25195  11.202   3.631  15.681 -0.1632  0.2823  0.0724
11782W        W25196   1.499   3.435   7.172 -0.0977 -0.0390 -0.1504
11783W        W25197   4.345  15.114  16.105  0.0514  0.3695 -0.2287
11784W        W25198   8.789   5.046   1.551  0.2437  0.3389 -0.1573
11785W        W25199   9.243   3.099   2.776  0.1041  0.0249 -0.2548
11786W        W25200  16.794  14.009  12.709 -0.1583  0.0151 -0.2612
11787W        W25201  13.470   3.254   4.606  0.0926  0.0737 -0.2464
11788W        W25202   5.231   0.737   5.979  0.0001 -0.2186 -0.0019
11789W        W25203   0.141  10.816   2.963  0.0286 -0.1754 -0.1584
11790W        W25204  14.675   2.324  13.687  0.2419  0.4598  0.0692
11791W        W25205   6.458   6.627   2.973  0.0255  0.1358 -0.1239
11792W        W25206  12.113   8.846   2.191 -0.0398  0.0343  0.2958
11793W        W25207   4.742   8.061  15.366 -0.0707 -0.0035  0.0476
11794W        W25208   8.245   1.759   0.319  0.0033 -0.2381  0.1264
11795W        W25209   9.115   4.770   3.753 -0.0807 -0.1108  0.2511
11796W        W25210  13.817  12.524   5.877 -0.1592 -0.2740  0.2501
11797W        W25211  14.197   7.301  11.052 -0.2598 -0.1591 -0.0618
11798W        W25212   9.121   7.329  16.477  0.3786  0.1975 -0.0385
11799W        W25213   4.899   9.591  12.561  0.0354 -0.0310 -0.0829
11800W        W25214  12.272   0.329  11.648 -0.1585  0.0121  0.1060
11801W        W25215   2.855  17.217   1.451  0.0868  0.0121 -0.0942
11802W        W25216  12.057   6.365  14.782 -0.0532 -0.2097 -0.1922
11803W        W25217   3.253  11.165  14.907 -0.2442 -0.2656  0.1819
11804W        W25218   5.653   5.357   4.809  0.0418 -0.1812 -0.0247
11805W        W25219   9.498  12.044   5.856 -0.0347  0.0870  0.4255
11806W        W25220   4.387   2.766  14.101  0.1368 -0.0831  0.0376
11807W        W25221  11.127  14.496  15.534 -0.0080 -0.0442 -0.3332
11808W        W25222   0.015   6.475   0.611  0.0783  0.2187  0.0224
11809W        W25223  17.039   8.683   5.078 -0.0407 -0.0302 -0.2033
11810W        W25224  11.523   6.064   1.484 -0.2742 -0.4522 -0.1657
11811W        W25225   3.732   1.388   3.483 -0.3333  0.0869 -0.2410
11812W        W25226   3.100   9.758  12.797 -0.0368  0.0427  0.3221
11813W        W25227   3.941   4.353   3.085 -0.2379  0.1436  0.2720
11814W        W25228   0.788   5.031  14.566 -0.0942  0.1756  0.3407
11815W        W25229   2.988   3.680  13.441 -0.0225 -0.3775 -0.1291
11816W        W25230  10.440  14.310   0.378 -0.0486  0.3227 -0.4809
11817W        W25231  10.882   4.070   4.169  0.1157 -0.0595 -0.2017
11818W        W25232   9.125   0.528   5.533  0.0998 -0.3134 -0.0552
11819W        W25233  14.545  17.705  13.765  0.1343 -0.0554  0.2102
11820W        W25234   7.798   8.517  13.489  0.1110  0.1439 -0.2414
11821W        W25235  14.848   5.828   5.337  0.1641 -0.0212 -0.1811
11822W        W25236  14.804   9.174  11.754  0.1437  0.4302 -0.0057
11823W        W25237   2.194  15.918  13.005 -0.0540  0.2214 -0.1056
11824W        W25238   2.097   2.523  11.308  0.0973 -0.0561  0.2014
11825W        W25239   1.765  17.478  15.244  0.1821 -0.0633 -0.0162
11826W        W25240   4.370   3.216   0.660  0.2046 -0.1124  0.1907
11827W        W25241   6.186  15.139  15.325  0.1342 -0.1609 -0.2304
11828W        W25242   2.513   7.915   2.367  0.1376 -0.0851  0.2131
11829W        W25243  13.789  14.630  11.866  0.1643 -0.1324 -0.1484
11830W        W25244   3.525  10.423  16.461  0.1842 -0.1245  0.0619
11831W        W25245  10.449  17.811  10.591 -0.0039  0.0933 -0.0634
11832W        W25246   5.514   8.826   2.799 -0.2206  0.1190  0.0587
11833W        W25247  13.117   7.241   4.066  0.2662  0.1814 -0.4239
11834W        W25248   9.958   8.898  16.241  0.2316 -0.3215 -0.0975
11835W        W25249  11.481  12.450  11.183  0.1160 -0.2868 -0.3129
11836W        W25250  14.036  17.718  13.060  0.0659 -0.0075  0.2207
11837W        W25251  12.515   8.584   1.383  0.2257  0.1707  0.0081
11838W        W25252   6.239  15.236  13.615  0.1266  0.0219 -0.1082
11839W        W25253   6.116   3.372  13.061 -0.2408  0.0172  0.0406
11840W        W25254   3.013   3.085   3.709  0.1260  0.0955 -0.1690
11841W        W25255   0.541   0.846   0.223 -0.0668  0.1910  0.3828
11842W        W25256  11.680  17.513  12.009 -0.0703  0.0757  0.0650
11843W        W25257  15.928   2.392  10.826 -0.0836 -0.3398 -0.0608
11844W        W25258  15.202   8.110   2.758 -0.2992 -0.1858 -0.0300
11845W        W25259  13.051   3.051  13.466  0.0497  0.1640  0.2652
11846W        W25260   2.814  11.943  16.697  0.0429  0.0618 -0.0656
11847W        W25261   9.837  15.274  10.861  0.2434  0.3079 -0.1038
11848W        W25262  15.314  11.370  11.906  0.0408 -0.1007  0.0076
11849W        W25263  14.393  13.244   1.996 -0.0713  0.2218  0.1041
11850W        W25264   6.234  10.855   0.774 -0.1188  0.0191  0.2349
11851W        W25265   6.148  16.090   0.497  0.1905  0.3326 -0.1288
11852W        W25266   8.855   8.627  13.583  0.0680 -0.2355 -0.0139
11853W        W25267   4.663   7.582   5.830 -0.1841 -0.4727 -0.1341
11854W        W25268  14.764  16.343   4.258 -0.1904 -0.1004  0.1751
11855W        W25269  10.395  14.132   5.418  0.0609 -0.0132  0.0689
11856W        W25270   2.305  17.213  11.867  0.1650 -0.1329 -0.0545
11857W        W25271   9.071   8.157  12.092  0.3505 -0.0952  0.0851
11858W        W25272   5.670   6.024   1.780  0.0298 -0.4664  0.0093
11859W        W25273  16.127   0.291  13.537  0.1818 -0.0259  0.1947
11860W        W25274   2.033   5.993   3.623  0.0302 -0.1491 -0.1599
11861W        W25275   7.622   2.889   4.005  0.1570 -0.2418  0.1387
11862W        W25276   8.074  17.482   4.872 -0.0058  0.0557 -0.0113
11863W        W25277  16.766   3.691   1.450  0.0156  0.0558  0.0105
11864W        W25278   1.911   7.157   1.081  0.1078  0.0809 -0.1031
11865W        W25279   0.631   0.352  11.506  0.1124  0.1648 -0.3184
11866W        W25280  10.106   9.839   4.962 -0.1252  0.2420 -0.1925
11867W        W25281  13.644   7.915   2.532 -0.0233  0.1596 -0.2526
11868W        W25282  14.558  12.045  14.210  0.0395  0.1273  0.3713
11869W        W25283  12.933   0.943   4.987  0.2665 -0.0052 -0.0027
11870W        W25284  11.897   5.563  11.531 -0.0461 -0.3275  0.0738
11871W        W25285   4.307   6.629  13.077 -0.1775 -0.2781 -0.2228
11872W        W25286   5.966   9.426  14.510 -0.5616  0.0246  0.5775
11873W        W25287   8.030  16.009   0.130 -0.1077  0.1502 -0.2958
11874W        W25288  11.543   4.339   6.410 -0.0116 -0.0002 -0.2334
11875W        W25289  16.452   9.318  10.817 -0.2749 -0.1147 -0.0465
11876W        W25290   9.589   5.842   0.585 -0.0155  0.1775 -0.0634
11877W        W25291  12.329   1.122  11.897 -0.1628 -0.0138  0.1738
11878W        W25292   8.255  11.347   0.820 -0.2725  0.2067  0.0932
11879W        W25293   9.362   7.583  11.368  0.1254 -0.2432 -0.1437
11880W        W25294  12.997  14.108   1.967 -0.2388 -0.0074 -0.1109
11881W        W25295   6.779   8.962  16.012 -0.2274 -0.1409 -0.1957
11882W        W25296  12.494   8.273  15.341 -0.0486  0.0102 -0.0294
11883W        W25297  13.967   7.289   0.138 -0.2132  0.2285 -0.3160
11884W        W25298   7.041   7.650   2.553 -0.3099 -0.2160 -0.2205
11885W        W25299   6.599   3.687   4.272  0.1142  0.0014  0.2880
11886W        W25300   4.934  16.104  12.785  0.0502 -0.0386  0.0886
11887W        W25301  10.490   4.091  13.776 -0.2239  0.0599 -0.2002
11888W        W25302   0.119   6.576   3.325  0.2478 -0.1741  0.0637
11889W        W25303   7.693   9.678   0.796 -0.0561  0.1750  0.0765
11890W        W25304  15.151  17.020  13.353  0.0505  0.0255 -0.1021
11891W        W25305  17.935   8.633   5.648 -0.0182 -0.1422 -0.1273
11892W        W25306  12.271   1.065   0.054  0.0803  0.1485  0.3925
11893W        W25307  11.301   9.630  14.127 -0.1250  0.2031 -0.2996
11894W        W25308   5.957   3.342   2.179 -0.1884 -0.2130 -0.2025
11895W        W25309   2.191   0.502   0.987  0.0734 -0.2236  0.0705
11896W        W25310   4.694  14.876   0.543  0.2826  0.0836 -0.0432
11897W        W25311  16.619   4.777   5.014  0.0914  0.2363  0.1696
11898W        W25312   7.943  15.674   3.003  0.2764 -0.1189 -0.2345
11899W        W25313  15.087   6.310   2.283 -0.4461  0.1198 -0.0629
11900W        W25314   0.777   2.867  14.959  0.0761  0.5133 -0.0314
11901W        W25315   8.629   7.714   2.508 -0.0096  0.0265  0.1234
11902W        W25316  14.187   9.387   0.740  0.1753  0.1751  0.1775
11903W        W25317  17.398  16.610  16.267  0.0453  0.0077 -0.1245
11904W        W25318   3.004  13.874   4.206  0.1138  0.1197  0.0332
11905W        W25319  15.912  10.696   2.058 -0.0235  0.1852 -0.0418
11906W        W25320  13.656  14.213   4.367  0.0043 -0.2346  0.0855
11907W        W25321   6.225  12.655  10.522  0.0342  0.0955  0.0747
11908W        W25322   3.625   8.345   0.934 -0.0843  0.0997  0.1963
11909W        W25323  12.778  10.600  16.487 -0.1071  0.1567 -0.3767
11910W        W25324  11.978   9.084  14.592 -0.1940 -0.2208  0.2101
11911W        W25325  10.027  10.359   4.950 -0.0607 -0.2483 -0.0162
11912W        W25326   4.479   2.031  11.639  0.0531  0.1049 -0.1532
11913W        W25327  12.920  13.105  12.229  0.2628 -0.1949  0.0405
11914W        W25328   8.436   4.380   3.964 -0.1297 -0.0557 -0.0519
11915W        W25329   0.513  11.576  11.938  0.0993  0.1651  0.0332
11916W        W25330   2.455  12.060  16.184 -0.1729 -0.0458 -0.2079
11917W        W25331  16.654  17.190   2.871 -0.1521 -0.2153  0.0861
11918W        W25332   0.916   2.366   6.304 -0.1047  0.2044  0.1237
11919W        W25333  17.867   7.601  16.309  0.0395  0.2370  0.2106
11920W        W25334   9.652  11.061   0.742 -0.1580  0.0229  0.0689
11921W        W25335  13.727  17.915   4.667  0.0813 -0.0762 -0.0403
11922W        W25336   9.505  10.566   0.410 -0.0823  0.3314  0.1137
11923W        W25337  17.195   5.666  15.387 -0.2683 -0.0931  0.1094
11924W        W25338  11.815  17.892   5.116  0.3606  0.0171 -0.2096
11925W        W25339  14.993   1.499   5.291 -0.0684  0.0142  0.3093
11926W        W25340  14.632   2.796   0.095  0.1445  0.1383  0.0853
11927W        W25341   5.931  14.986   5.420  0.1239  0.0896  0.0552
11928W        W25342  17.440  13.830  12.953  0.0904  0.0421  0.0488
11929W        W25343   6.623   2.778   6.030  0.2028 -0.2036  0.2573
11930W        W25344  10.147   6.053   2.323  0.1579  0.0372  0.1479
11931W        W25345   0.237   1.184   2.395 -0.2433  0.1092 -0.2179
11932W        W25346  11.447   9.861  14.516 -0.0329 -0.1227  0.2444
11933W        W25347   9.489   9.111   1.215 -0.1401 -0.2970  0.3531
11934W        W25348   1.162  16.278  11.806  0.1407 -0.0390  0.1732
11935W        W25349  11.049   5.248  14.560 -0.0894 -0.0302 -0.3599
11936W        W25350   7.881  15.315   1.786  0.1555 -0.0049  0.1160
11937W        W25351   2.425  17.657   4.221  0.0846 -0.0386 -0.1356
11938W        W25352   0.939   8.554  12.928 -0.2504  0.1869  0.0641
11939W        W25353   8.432  12.382   0.151 -0.0708 -0.3085  0.0065
11940W        W25354   0.112  13.395   2.347 -0.2856  0.1119 -0.0453
11941W        W25355   2.595   1.553   3.946  0.2001 -0.0932 -0.0863
11942W        W25356   6.641  17.024  14.256  0.0144  0.4256  0.4659
11943W        W25357   7.144  13.772  14.810  0.0204  0.2491  0.0646
11944W        W25358   3.354   1.582   0.096  0.1505  0.2361 -0.0911
11945W        W25359  15.634   7.850   3.508 -0.3154 -0.3700 -0.1334
11946W        W25360   2.127  11.324  10.551 -0.0158  0.0460  0.1591
11947W        W25361   6.117  13.473   6.264 -0.1098 -0.0340 -0.0837
11948W        W25362   4.052   3.918   6.707 -0.0790 -0.0332  0.1555
11949W        W25363  10.185  12.794   3.337  0.1414 -0.2434  0.3551
11950W        W25364   8.081  14.187  14.566  0.1317  0.0370 -0.0415
11951W        W25365   1.939  11.509  11.385  0.3283  0.0027 -0.1182
11952W        W25366   6.189   4.540  15.681  0.1870  0.0165 -0.0720
11953W        W25367  15.171   8.753   5.936 -0.0021 -0.1192 -0.4667
11954W        W25368   5.162   1.929   2.936 -0.0383  0.0858  0.0324
11955W        W25369   3.773  16.723  15.583 -0.0873 -0.0354  0.0891
11956W        W25370  13.683   0.938   5.519 -0.0028  0.0015 -0.1469
11957W        W25371   3.082   6.020  11.399  0.0461  0.1951 -0.0529
11958W        W25372   0.615  10.530   2.928 -0.0039  0.0811 -0.0087
11959W        W25373  17.073   0.671   3.872  0.0414  0.1512  0.2439
11960W        W25374  12.108   2.850  16.108 -0.1253 -0.1033 -0.0983
11961W        W25375   7.351   7.572   1.853  0.0455  0.1453  0.4450
11962W        W25376   6.014   1.897   2.707  0.2083  0.1636  0.1109
11963W        W25377   0.692  15.690   3.301 -0.4287 -0.0643  0.1409
11964W        W25378   8.988   0.772   5.934 -0.0065  0.2980 -0.1041
11965W        W25379  11.078  17.636   0.995 -0.1409  0.0847 -0.1343
11966W        W25380   1.788  16.367  14.386 -0.0151  0.2011 -0.0218
11967W        W25381   4.246   6.697   1.401 -0.1658  0.1378  0.0676
11968W        W25382   8.443   5.772   3.602  0.0705 -0.1009  0.0687
11969W        W25383   6.763  15.179  14.436  0.2106 -0.0060 -0.0270
11970W        W25384  14.881  15.374   5.821 -0.2746 -0.2475  0.0624
11971W        W25385  13.357   8.684   1.139  0.0736  0.0285  0.0793
11972W        W25386   3.042   0.260  16.176 -0.0892 -0.0340  0.2249
11973W        W25387   5.340   7.965   4.508  0.1068  0.2060 -0.0705
11974W        W25388  17.152   6.952  11.146  0.0851 -0.1750  0.1488
11975W        W25389   7.924  10.016  13.426 -0.0067 -0.3203  0.0066
11976W        W25390  15.869  10.997   1.639 -0.0111  0.0739  0.0014
11977W        W25391   4.822  13.275   2.024 -0.1712  0.0608 -0.2026
11978W        W25392   4.915  12.891   0.091  0.1013  0.2877 -0.3703
11979W        W25393  16.029  16.927   4.784 -0.2329  0.2122 -0.3651
11980W        W25394  10.905   7.617   5.629  0.1087  0.0734  0.1874
11981W        W25395  13.620   6.821  14.694  0.2878  0.2612 -0.3785
11982W        W25396   9.565   8.517  13.821 -0.0286 -0.0014  0.1301
11983W        W25397   0.791  13.885  13.761  0.2162  0.1848 -0.0545
11984W        W25398  17.532   8.265   3.955 -0.0199  0.2299  0.4594
11985W        W25399   9.593   1.537   2.530 -0.0466 -0.0324 -0.0138
11986W        W25400  15.969  10.588  14.247  0.0661  0.1423 -0.1790
11987W        W25401   2.918  10.708  10.092  0.2524  0.0328 -0.2079
11988W        W25402   2.586  12.536  14.059 -0.1196 -0.0679 -0.1902
11989W        W25403   0.895   9.667   3.441 -0.0013 -0.0646  0.2323
11990W        W25404   1.615  10.338   4.537  0.1743 -0.1330 -0.2415
11991W        W25405   8.050   2.689  11.369  0.0315 -0.0382 -0.0164
11992W        W25406   3.872  11.102  12.299 -0.0036 -0.1253  0.2394
11993W        W25407   3.363  10.683   0.179 -0.0321 -0.0987  0.2872
11994W        W25408   3.886   9.498   4.724 -0.0543 -0.2545 -0.0161
11995W        W25409  14.255  10.975  14.684 -0.0263 -0.0332 -0.2300
11996W        W25410   8.833  15.477  10.817  0.1244  0.0984  0.4399
11997W        W25411   9.710   0.074  13.522  0.4399 -0.3721 -0.0990
11998W        W25412   8.589  14.594   6.017  0.0705 -0.0039  0.3634
11999W        W25413  17.706   7.998   6.795 -0.0578  0.0840  0.1072
12000W        W25414   0.799  12.121   0.050  0.0477  0.2387  0.1967
12001W        W25415  13.415   5.255   1.840 -0.0692 -0.0160 -0.0987
12002W        W25416   0.016   6.034  15.505  0.0374 -0.2722 -0.0544
12003W        W25417  12.056   1.449   1.301  0.3223  0.2344  0.0980
12004W        W25418   3.499   6.443   3.981  0.0937 -0.0371  0.1641
12005W        W25419  17.045  12.106  12.089  0.1306 -0.1570 -0.0106
12006W        W25420   3.858  12.402  13.307 -0.0128  0.0168 -0.1217
12007W        W25421  14.400   0.748  12.675 -0.0586 -0.0555 -0.0804
12008W        W25422  14.639  17.164  14.846 -0.0822 -0.1525  0.0083
12009W        W25423   0.118   3.951   0.566  0.1879  0.0312  0.1669
12010W        W25424  16.068   5.617  11.031 -0.0935  0.1019 -0.1023
12011W        W25425   1.408  15.223   2.844  0.0612  0.0161  0.3170
12012W        W25426  12.796  14.684   2.713 -0.0551  0.0322  0.0934
12013W        W25427   0.616   5.763  13.264  0.2539 -0.0872 -0.4713
12014W        W25428   0.899   9.660   2.252  0.0079 -0.1700 -0.1138
12015W        W25429   5.600   2.333   5.018  0.0422 -0.0598 -0.0161
12016W        W25430  10.951  10.410  11.843 -0.3199  0.2897 -0.2188
12017W        W25431   7.225  15.845   5.091 -0.1745  0.0948 -0.0227
12018W        W25432  17.120  10.274  13.507 -0.3002  0.1067 -0.0632
12019W        W25433   3.649   1.377   2.925 -0.1050 -0.2688 -0.0746
12020W        W25434  12.147  10.462   1.585 -0.3898  0.3649  0.1177
12021W        W25435   5.815   3.756   1.611  0.1358  0.0087 -0.2825
12022W        W25436  17.593   8.238  14.497  0.1567  0.1777  0.3451
12023W        W25437   1.467  16.824  16.320 -0.2073 -0.1722 -0.0383
12024W        W25438  10.896   8.230   4.232 -0.2298 -0.1352 -0.1761
12025W        W25439  14.242   8.408   5.672 -0.2318 -0.1193 -0.4119
12026W        W25440  16.444   1.682   3.520 -0.1093  0.3786  0.0082
12027W        W25441  10.283   3.100   5.205  0.0835  0.1406 -0.3398
12028W        W25442  12.466   8.355   2.948  0.0186 -0.1105  0.0626
12029W        W25443   3.700  12.087  15.042  0.0099  0.4076 -0.3985
12030W        W25444  13.175   0.564  12.833  0.3345 -0.0067  0.0838
12031W        W25445   2.667   2.456  13.351 -0.0189 -0.2962  0.3414
12032W        W25446   0.013   6.348   1.236 -0.3171 -0.1217  0.2541
12033W        W25447   2.967   2.240   0.355 -0.3978  0.2136 -0.3873
12034W        W25448   2.203  10.834   1.045 -0.0374  0.3192  0.3459
12035W        W25449   5.992   6.143   0.162 -0.1067 -0.1905  0.1927
12036W        W25450   0.116   3.288  13.359  0.1226 -0.0284 -0.0212
12037W        W25451  14.944   0.535   5.865 -0.0979  0.0946  0.0149
12038W        W25452   8.505   7.959   4.093 -0.0225 -0.0157  0.0921
12039W        W25453   8.540  15.986   0.213 -0.1903  0.0909  0.0446
12040W        W25454   6.942  13.479   2.149  0.1213  0.2888 -0.0241
12041W        W25455  14.855  12.368   4.856 -0.2865  0.0216 -0.0803
12042W        W25456   4.603   0.252   6.531 -0.1398  0.0879 -0.0974
12043W        W25457  14.797  13.264   4.496 -0.0871 -0.1353 -0.1754
12044W        W25458   6.837   4.133  14.429  0.0055  0.1198 -0.0769
12045W        W25459  14.611   1.506  11.501  0.4317  0.0977 -0.0264
12046W        W25460   6.157   2.185   1.864 -0.2345  0.1766  0.0736
12047W        W25461  10.695   8.239   5.715  0.0453  0.0118  0.0841
12048W        W25462  13.889  14.743   4.513 -0.2275  0.1715  0.4788
12049W        W25463  12.837  10.308  14.155  0.0024 -0.0837 -0.3337
12050W        W25464   9.623  10.778   1.612  0.3216 -0.2306  0.0562
12051W        W25465  12.725   5.990  16.499  0.0825 -0.0761  0.2108
12052W        W25466  14.351  10.415   2.945 -0.0658  0.0433  0.1521
12053W        W25467  15.488  10.264   1.276  0.1845  0.0543 -0.1816
12054W        W25468   4.189  12.125  11.212  0.3183  0.0458  0.2395
12055W        W25469  17.070  15.260  11.575 -0.1774 -0.0717  0.1163
12056W        W25470  12.444   6.290   0.196  0.2526 -0.1324 -0.2364
12057W        W25471   7.629   1.320   4.481 -0.2599  0.0603 -0.3665
12058W        W25472  11.586   7.772  13.776 -0.1662  0.0739 -0.0457
12059W        W25473   2.936   5.553  13.744  0.0401  0.2526 -0.1513
12060W        W25474   7.351   4.700  13.241 -0.3467  0.2758  0.0085
12061W        W25475  12.497  17.157   3.872  0.0861  0.0334  0.3489
12062W        W25476   6.288  13.394   0.810 -0.1015 -0.0721 -0.1337
12063W        W25477   4.114   6.397  13.728  0.2996  0.1222  0.1735
12064W        W25478   2.523   6.257   4.354 -0.0500 -0.1287 -0.0804
12065W        W25479   4.991   5.016  11.075  0.0698  0.0831 -0.0800
12066W        W25480   9.276  14.612   3.393  0.1298 -0.1604 -0.0018
12067W        W25481  15.764   3.581  14.223 -0.1958 -0.0208 -0.2386
12068W        W25482  16.636   6.859   0.450  0.1331 -0.2685  0.0869
12069W        W25483   4.084   2.263  16.587  0.0126  0.0474 -0.0565
12070W        W25484  16.580   0.251   6.174  0.0111  0.4209 -0.0787
12071W        W25485   8.753   6.467  11.071 -0.1453 -0.0849 -0.1694
12072W        W25486   9.216  11.638   2.618  0.1284 -0.1153 -0.0056
12073W        W25487  11.945   3.985   6.473  0.4079  0.1277 -0.1453
12074W        W25488  10.175  13.811  14.885 -0.1760  0.1971 -0.0479
12075W        W25489   1.030   3.942  12.455 -0.1939  0.0381 -0.0188
12076W        W25490   9.036   7.788   2.750  0.1161  0.2011  0.0638
12077W        W25491  11.873  10.761   0.037 -0.0284 -0.0524 -0.0050
12078W        W25492   3.819   3.262  14.960 -0.0336  0.3300 -0.0641
12079W        W25493   9.553   1.240   5.220 -0.0025 -0.2494 -0.1007
12080W        W25494   9.227  10.354   4.514 -0.0662  0.5720 -0.1898
12081W        W25495  15.725   4.315  12.942 -0.1353  0.1753  0.2144
12082W        W25496   1.807  12.616   1.661 -0.1442  0.0407  0.0918
12083W        W25497  16.446  10.787  14.426 -0.1147  0.0985 -0.2318
12084W        W25498   7.598   4.908   1.285 -0.0094 -0.0455 -0.1125
12085W        W25499   5.787   9.576  12.609  0.0272  0.2943  0.0406
12086W        W25500  10.509   5.243   5.397 -0.2300 -0.0972 -0.3104
12087W        W25501   2.237  17.323   3.304  0.3401 -0.0076 -0.1478
12088W        W25502  13.404  11.285   0.773 -0.0406  0.2836  0.1749
12089W        W25503  10.361   8.297   0.741 -0.0469  0.0103 -0.0470
12090W        W25504   6.271   8.606   3.899 -0.1191 -0.4179  0.2904
12091W        W25505   1.316   9.814   5.330  0.0995  0.2240  0.1548
12092W        W25506   3.851   8.171   5.362  0.0008  0.0506  0.1537
12093W        W25507  13.152   1.107  11.226 -0.1313  0.0087 -0.1814
12094W        W25508  15.857  12.084  14.853 -0.1094 -0.0549 -0.0283
12095W        W25509  10.066  10.178  13.671 -0.0550  0.0459 -0.0591
12096W        W25510   4.126   5.475  12.950  0.1495  0.1179 -0.0803
12097W        W25511   4.399   3.905  12.041  0.4027  0.1733  0.1893
12098W        W25512   8.647   6.393  16.663  0.0530 -0.0157  0.2877
12099W        W25513   1.392  16.101  15.955 -0.1415 -0.3439  0.0053
12100W        W25514  11.981   1.238   9.724 -0.0923  0.1538 -0.1038
12101W        W25515  12.498   5.309   2.420 -0.2262  0.1841  0.2000
12102W        W25516  14.730   6.843   3.077 -0.0089  0.3667  0.0017
12103W        W25517  17.655   5.560   6.075  0.0668  0.3256  0.4184
12104W        W25518   4.023   2.248   4.568 -0.3454 -0.3739  0.0063
12105W        W25519  16.791  17.841  12.758  0.0426  0.1087 -0.2659
12106W        W25520  16.276   7.233   5.530 -0.0993  0.2369  0.3533
12107W        W25521  15.671   6.506  14.493 -0.0200 -0.1001  0.3473
12108W        W25522   3.784  14.269  11.791  0.2136 -0.0215  0.1900
12109W        W25523  14.901   0.395   1.552  0.0700  0.0220  0.1671
12110W        W25524  17.356   6.926  12.016  0.1889 -0.0703  0.0368
12111W        W25525   7.646   6.948   0.234 -0.1380 -0.1579  0.1273
12112W        W25526  12.370   2.724  13.305  0.1092 -0.3055  0.1262
12113W        W25527   9.612  10.114  12.677  0.1020 -0.0145 -0.1090
12114W        W25528  10.341  13.333  16.020  0.3305 -0.0822 -0.0196
12115W        W25529  13.894   7.875  12.578  0.1385 -0.1185 -0.0617
12116W        W25530   0.463  17.629  11.971 -0.2332  0.0988 -0.0885
12117W        W25531   6.932   3.618   2.839 -0.2003  0.0087  0.1733
12118W        W25532  11.651  16.824   1.007  0.0998 -0.1898 -0.0672
12119W        W25533  16.076   5.872  14.147 -0.2717  0.1194  0.0628
12120W        W25534   0.982   9.267  11.742  0.2087 -0.3348  0.2388
12121W        W25535  15.107   5.845   0.485  0.0177 -0.2606 -0.1061
12122W        W25536  16.369  16.059  12.577 -0.1659 -0.3449  0.0303
12123W        W25537   4.336  14.551   0.374 -0.0707 -0.1457 -0.0408
12124W        W25538  12.986  16.307  14.891  0.0858 -0.0910 -0.2270
12125W        W25539   2.401   7.782  11.895 -0.2500 -0.1511 -0.0830
12126W        W25540  17.868  10.001   2.663 -0.1065 -0.2017 -0.3739
12127W        W25541  17.850  15.750   6.133 -0.0269  0.0073  0.2609
12128W        W25542   6.395   1.050  12.860  0.0926  0.0045 -0.1234
12129W        W25543   2.286   7.940   3.247  0.0032  0.0229 -0.2355
12130W        W25544   3.510  15.878   1.684 -0.0595  0.0070 -0.1323
12131W        W25545   8.085   8.770   4.186  0.0493 -0.1901  0.1598
12132W        W25546   5.117   9.117   1.095 -0.0183 -0.2151 -0.1596
12133W        W25547   4.282   7.529  16.090  0.2298 -0.0723 -0.4138
12134W        W25548  12.954   5.768   1.480  0.5026 -0.1069  0.1986
12135W        W25549  16.342  17.079  13.105  0.1871 -0.1293  0.1374
12136W        W25550   9.069   2.059   4.373 -0.1384  0.2304 -0.0296
12137W        W25551  11.531  15.461  16.421 -0.3150  0.0950 -0.0698
12138W        W25552   4.762  17.798   4.945 -0.0008  0.1218 -0.0319
12139W        W25553   3.378   9.654   1.733  0.1880  0.2570 -0.1314
12140W        W25554  10.076   1.457   2.229 -0.0045  0.1509  0.1332
12141W        W25555   5.225   3.938  14.855  0.1277  0.1791  0.0047
12142W        W25556  14.985   8.463  11.219 -0.0558 -0.3207 -0.1968
12143W        W25557   3.264  17.386  14.438  0.1354 -0.1015  0.2494
12144W        W25558   3.820   2.475   3.222 -0.1992 -0.0164  0.1611
12145W        W25559   6.455   2.167   5.450 -0.0294  0.0292  0.0678
12146W        W25560   6.597  11.790   2.699 -0.0261  0.0548  0.0439
12147W        W25561   5.498  17.314  10.533  0.0540  0.4742 -0.1513
12148W        W25562  17.930  16.246   1.057 -0.0604 -0.0261  0.1215
12149W        W25563   9.185   1.557  13.737 -0.2907 -0.0536  0.0131
12150W        W25564   3.469   0.423  11.478  0.1579 -0.2064 -0.0126
12151W        W25565   1.840  12.190   0.902  0.0722 -0.0409  0.2178
12152W        W25566  13.891   5.603   5.718  0.3553  0.0528 -0.0119
12153W        W25567  12.796  17.552   3.569 -0.1297  0.0528  0.0396
12154W        W25568   6.013   5.568  12.892  0.0284 -0.1295  0.0916
12155W        W25569   2.411  17.154  16.576 -0.0523  0.0330  0.0266
12156W        W25570  15.093   4.654  13.586 -0.1390  0.0324  0.1251
12157W        W25571  10.352  11.084  14.188  0.0539 -0.0506 -0.2663
12158W        W25572  11.293  17.899  16.416 -0.3711  0.2897  0.1167
12159W        W25573   2.949  15.888  12.346  0.1237 -0.2657  0.0855
12160W        W25574   5.714  17.263   0.786  0.1816 -0.1722 -0.0407
12161W        W25575  10.572  15.307  10.831 -0.2209 -0.0450 -0.0782
12162W        W25576  11.456   6.693   2.899  0.0187  0.1655  0.2183
12163W        W25577   5.185   8.364   5.751 -0.0205  0.0196 -0.1007
12164W        W25578  15.338  11.300  13.112  0.0412  0.0143  0.1782
12165W        W25579   4.218  12.330  15.708  0.1659  0.0382  0.2558
12166W        W25580  14.477   2.251   2.486 -0.2138  0.2749  0.2179
12167W        W25581  13.261   9.231  15.846  0.0531 -0.2517  0.2376
12168W        W25582  10.067   8.342  13.715 -0.2099 -0.1928 -0.2029
12169W        W25583   7.020  16.790  10.686 -0.2196 -0.3071 -0.4973
12170W        W25584  13.181  14.871  16.179 -0.1402  0.1211  0.3438
12171W        W25585  17.015  10.950   2.969 -0.2846  0.1234  0.1925
12172W        W25586   8.116   5.586   0.635 -0.0221 -0.3910 -0.0490
12173W        W25587  17.643   4.311  11.484 -0.2075 -0.1256 -0.1449
12174W        W25588  16.280   3.790   6.222  0.0418 -0.1266 -0.0246
12175W        W25589   4.196  17.218  13.487 -0.0307  0.1417 -0.1057
12176W        W25590  17.022   8.030  16.212 -0.3244  0.3337 -0.6249
12177W        W25591   8.350   7.348   0.229 -0.1645  0.0134  0.2098
12178W        W25592   5.971  13.475  13.140 -0.0943 -0.0792 -0.1299
12179W        W25593  17.449   7.427  16.138 -0.1315 -0.1173 -0.1350
12180W        W25594   3.875   4.436  11.650 -0.4212  0.0047  0.1481
12181W        W25595   4.356   7.346  11.096  0.1636  0.2581 -0.0859
12182W        W25596  14.456  13.684   5.110  0.0242  0.1865  0.0510
12183W        W25597  15.677  14.447   1.364  0.0866  0.2422 -0.0208
12184W        W25598   5.308  16.128   3.624 -0.1113 -0.0049 -0.1094
12185W        W25599  17.515  10.971  13.856  0.0731  0.0521  0.0294
12186W        W25600  17.902  15.989  15.092 -0.0818 -0.2455  0.0631
12187W        W25601  10.439  12.151  11.306 -0.2768 -0.1904 -0.1030
12188W        W25602  10.529  15.347  10.248  0.0742 -0.1656 -0.1530
12189W        W25603   9.829   9.259  12.128  0.0030  0.0810  0.2554
12190W        W25604  15.456   3.855  13.053  0.3128 -0.1139  0.1404
12191W        W25605  11.418   8.783   0.677 -0.0328 -0.0269  0.4470
12192W        W25606  11.355  14.941  15.375  0.0650  0.1900  0.2887
12193W        W25607   6.121  10.005   3.304 -0.2035 -0.0966 -0.2101
12194W        W25608  16.793  14.545  14.351  0.2539  0.0914 -0.0113
12195W        W25609  17.113   0.313   6.183 -0.2351  0.1059  0.0565
12196W        W25610  13.110  16.639   5.440  0.2480 -0.0485  0.2024
12197W        W25611  14.752  13.022  12.814 -0.1971 -0.3029 -0.4748
12198W        W25612   1.413   5.807   1.360  0.2075 -0.0297 -0.1029
12199W        W25613   6.104  17.720  12.772  0.4635  0.0601  0.1065
12200W        W25614   1.604  14.553  11.538 -0.3633  0.0363  0.1452
12201W        W25615  17.961   9.334   4.016 -0.1332 -0.1033  0.0694
12202W        W25616   0.922   0.751   3.624  0.3411  0.3086 -0.0655
12203W        W25617   8.848   9.463   2.412 -0.2508  0.3228 -0.2899
12204W        W25618  16.218   4.735  14.433  0.0263  0.3637  0.4312
12205W        W25619  10.948   7.924  16.087  0.0253 -0.2269  0.1523
12206W        W25620  16.893  17.656  15.019  0.1967 -0.1049 -0.1042
12207W        W25621   8.704  10.948  16.208  0.4587 -0.1728  0.0046
12208W        W25622   9.152   6.201  13.189 -0.1316  0.2469 -0.2925
12209W        W25623   0.711  14.232  14.225 -0.0249  0.0551 -0.1723
12210W        W25624   3.641   3.696   1.803  0.2770 -0.1753 -0.1318
12211W        W25625   8.987  17.316   0.303  0.1411 -0.1038 -0.1184
12212W        W25626  12.935   8.296  11.086  0.1215 -0.0086  0.1359
12213W        W25627   7.631   3.646  10.796 -0.0682  0.0888 -0.1102
12214W        W25628   0.037  15.513  14.850 -0.0940 -0.0529 -0.0029
12215W        W25629   5.170   7.732   4.939  0.0290  0.1474 -0.0749
12216W        W25630   7.204  13.552  11.979  0.3756  0.0738 -0.1359
12217W        W25631   1.054   8.489   4.187  0.0681  0.1519 -0.1374
12218W        W25632   0.075  13.989  10.858  0.0120  0.3792 -0.0066
12219W        W25633   6.886   7.812  11.777 -0.0434  0.2056 -0.1321
12220W        W25634  11.370   5.228  12.839 -0.3179  0.0606  0.0173
12221W        W25635  16.121   7.841  12.148 -0.0349 -0.2925 -0.0524
12222W        W25636   7.600  15.573  15.662  0.1675  0.0017 -0.0525
12223W        W25637   2.567  10.678   4.519 -0.2594 -0.0092 -0.3427
12224W        W25638   7.795  16.795   1.820 -0.0098 -0.3102 -0.3937
12225W        W25639   9.817  11.636  16.478  0.1520 -0.0590 -0.1163
12226W        W25640  11.329   7.534  15.105 -0.2219 -0.2504 -0.2006
12227W        W25641   9.287   1.947   2.270 -0.2965  0.3288 -0.0208
12228W        W25642   2.482   4.518   0.321 -0.1780  0.2626 -0.0787
12229W        W25643   9.099  12.038   1.125  0.0551  0.0837  0.0652
12230W        W25644   2.758   1.886   4.408 -0.2509 -0.2424 -0.2876
12231W        W25645   5.102  17.772  12.638 -0.0043  0.2028  0.0627
12232W        W25646   8.477   9.424  10.887  0.2086  0.1081 -0.3793
12233W        W25647  12.731  11.733   0.443 -0.0864 -0.0470  0.0630
12234W        W25648   4.022  13.656   2.880  0.1726  0.1064 -0.2235
12235W        W25649   1.073   6.367  16.428 -0.0696  0.1867 -0.0096
12236W        W25650  17.080   0.965  11.346  0.0453 -0.0412 -0.2923
12237W        W25651   0.774  15.501  13.106  0.0251  0.0051  0.1855
12238W        W25652   7.747  12.944  16.625 -0.3889  0.0050  0.0930
12239W        W25653  13.065   0.286  13.856  0.2429 -0.1947  0.1521
12240W        W25654  17.733   7.265   2.688  0.0262 -0.0884  0.2642
12241W        W25655   7.580  13.088  10.493 -0.4234 -0.1524 -0.0769
12242W        W25656   0.103   2.343  14.307  0.0383 -0.1278  0.0347
12243W        W25657  16.983   6.629  14.727  0.1165 -0.0338 -0.2561
12244W        W25658  12.977  15.277   1.038  0.1508 -0.0300 -0.2610
12245W        W25659   2.294  12.714  15.355 -0.2359 -0.2264  0.0410
12246W        W25660  17.036   4.861   6.269  0.2720 -0.0726  0.2613
12247W        W25661  14.392   7.764  12.789 -0.0775  0.0632  0.2037
12248W        W25662   9.327   1.196  15.213 -0.2029  0.1215 -0.3712
12249W        W25663   6.229  11.599  14.104  0.0050  0.1995  0.3167
12250W        W25664   1.248   1.637  14.048  0.0433  0.1590  0.0225
12251W        W25665   4.298   2.780   5.394  0.1282 -0.0721 -0.0311
12252W        W25666   3.193   3.108   5.908 -0.2747  0.1373  0.0478
12253W        W25667   2.257   2.069   2.272 -0.3002  0.0305 -0.2522
12254W        W25668  16.832   5.292  14.485  0.0459  0.0178 -0.0330
12255W        W25669   6.615  12.944   0.828  0.1440  0.1808 -0.0277
12256W        W25670  15.436   5.787  11.622  0.0052 -0.0987 -0.1415
12257W        W25671  16.809  14.030   3.380  0.2974  0.0410 -0.1294
12258W        W25672   6.154   7.248  10.813 -0.1302 -0.0141 -0.2750
12259W        W25673   6.176  14.794   2.048 -0.2241 -0.1395  0.0142
12260W        W25674   5.314  16.624   5.355 -0.1127  0.0565 -0.1551
12261W        W25675   4.003   3.774   4.329 -0.3322 -0.1044  0.0124
12262W        W25676   1.536  13.168  16.560  0.1160  0.0223  0.1261
12263W        W25677  13.734   6.293  12.736 -0.1622  0.2574 -0.2376
12264W        W25678   2.060  11.875  15.485 -0.2109  0.0771  0.0975
12265W        W25679  16.090   9.091   4.014  0.0666  0.0254  0.0703
12266W        W25680  16.252   1.210  14.581 -0.0933  0.2433  0.2028
12267W        W25681   1.747   1.108  14.986 -0.0230  0.0009  0.2131
12268W        W25682  15.241   9.653  13.394  0.2030  0.0385  0.0295
12269W        W25683   0.108  17.414  11.572 -0.0369  0.0068  0.2437
12270W        W25684   8.039  16.333  15.846  0.0057 -0.0816 -0.0012
12271W        W25685   3.625   9.614   3.244  0.0506 -0.7274  0.1887
12272W        W25686   8.666  16.734  12.386 -0.2572 -0.0729  0.0848
12273W        W25687   8.626   9.267   3.002 -0.2513  0.0983  0.0548
12274W        W25688  12.497  16.780   1.078  0.0973 -0.2645 -0.0798
12275W        W25689  10.627   1.569   1.651 -0.0792 -0.2122  0.0768
12276W        W25690   4.475   4.376  15.719  0.2109 -0.1697  0.0649
12277W        W25691   2.258   1.286  14.999 -0.0555 -0.1355  0.3002
12278W        W25692  11.693   2.077  12.558  0.0972 -0.3760  0.1878
12279W        W25693   1.414   6.634   2.414 -0.1928 -0.3455 -0.0197
12280W        W25694   0.040   2.060  16.436 -0.0736 -0.2041 -0.0325
12281W        W25695  16.483  17.039   6.454 -0.0098 -0.1246 -0.0402
12282W        W25696  15.187  12.705   0.287  0.0640  0.0259  0.2189
12283W        W25697   8.710   1.096   6.373  0.3433 -0.0821 -0.0225
12284W        W25698  17.099   5.369   0.291  0.1151  0.0839 -0.0526
12285W        W25699   8.093   1.206   3.226  0.0915  0.2009  0.1732
12286W        W25700   0.820   4.851   6.434  0.1926  0.1582  0.3013
12287W        W25701   0.125  17.975  10.580 -0.0847 -0.1161 -0.2011
12288W        W25702   4.346  15.812   0.245 -0.0211 -0.0049  0.1788
12289W        W25703   1.128   2.742  14.609  0.0908  0.0079 -0.0818
12290W        W25704  11.256  17.834  14.630  0.2549  0.1096  0.0965
12291W        W25705  12.364  14.383  14.966 -0.0783 -0.2258 -0.0540
12292W        W25706   0.307  11.700   1.447  0.0344 -0.1583 -0.1098
12293W        W25707   6.727  14.885  16.072  0.0435  0.0039 -0.1134
12294W        W25708   0.798   5.973  16.124  0.0942 -0.2025 -0.0949
12295W        W25709  13.875  12.663   3.744 -0.1558 -0.0302  0.0388
12296W        W25710   5.621   8.019   1.539  0.1506 -0.0882  0.1852
12297W        W25711   4.898  16.540   5.692 -0.0633  0.1119  0.0969
12298W        W25712  14.678  11.822   4.684 -0.0278  0.1581 -0.0660
12299W        W25713   0.080   0.167   2.354 -0.2100 -0.1260  0.0158
12300W        W25714   2.091   5.463   3.534 -0.2300 -0.0371  0.1397
12301W        W25715   1.669   2.269  13.187  0.0462  0.4386  0.1834
12302W        W25716   0.699  16.749  11.742  0.1441 -0.1601 -0.3294
12303W        W25717   3.123  17.885   3.500  0.3281  0.2112  0.0976
12304W        W25718  13.181   1.598   0.738  0.2454 -0.2929 -0.0629
12305W        W25719  11.494   1.766   1.960  0.1154 -0.1789  0.1482
12306W        W25720   8.104  11.623  11.968  0.1014  0.0527 -0.0351
12307W        W25721   4.900  13.784   1.919  0.1757  0.0536 -0.0621
12308W        W25722  15.188  10.631  15.876 -0.2386  0.0846  0.3220
12309W        W25723  17.781  16.181  15.561  0.0956  0.3957  0.0202
12310W        W25724  14.795   1.483   4.518 -0.0105 -0.0229 -0.0271
12311W        W25725  15.170  16.139  13.119  0.1762  0.0658 -0.0681
12312W        W25726  13.817   2.277   2.885 -0.0100  0.0656  0.1179
12313W        W25727   1.146  14.914  12.334 -0.0717  0.1942  0.0765
12314W        W25728  16.659   0.798   3.604 -0.1779  0.1500 -0.1818
12315W        W25729   8.316   0.246  11.299  0.0825 -0.0674  0.0410
12316W        W25730  15.048  14.377  13.812 -0.1195 -0.1347 -0.0732
12317W        W25731   9.488   7.809   1.863  0.3202  0.2826 -0.0730
12318W        W25732   5.042   6.048  11.268  0.0242 -0.1093  0.1841
12319W        W25733  13.563  12.864  15.329 -0.2567  0.0750  0.3168
12320W        W25734  13.733   0.815   0.038 -0.1410  0.1169  0.0368
12321W        W25735  16.822   9.019   2.624 -0.0971  0.1381 -0.0355
12322W        W25736  10.166  16.185  10.477 -0.1395  0.0510 -0.2235
12323W        W25737  11.362   9.409  11.115 -0.1259 -0.0551 -0.0182
12324W        W25738   4.181   8.122   1.582 -0.0212 -0.0322  0.0906
12325W        W25739  12.727   0.936  12.248 -0.2315 -0.0547  0.2042
12326W        W25740   5.926   2.485  12.834  0.0706 -0.0024  0.0835
12327W        W25741  15.341   0.630  15.621  0.0018 -0.0880 -0.1126
12328W        W25742   1.006  15.995  14.320  0.0258 -0.0911 -0.1310
12329W        W25743   4.652   2.298  15.177 -0.0004  0.0570 -0.0765
12330W        W25744  16.971  16.164  13.783 -0.0542  0.0090  0.0250
12331W        W25745  16.848   3.292   4.165  0.3824  0.5459 -0.2705
12332W        W25746   1.516   3.776   2.204 -0.1341  0.0750 -0.0625
12333W        W25747   6.053  11.112   1.418  0.1763 -0.0204 -0.1273
12334W        W25748  10.698  10.473  15.413 -0.0377  0.0764 -0.1068
12335W        W25749  11.508   5.120   6.186 -0.1826 -0.0900  0.0640
12336W        W25750  10.730   4.772   6.276  0.1934  0.0448  0.2171
12337W        W25751   4.541   4.127  11.168 -0.1885 -0.0052  0.2291
12338W        W25752   3.680  16.239  15.728 -0.0296 -0.1185 -0.2765
12339W        W25753   1.227   9.744  10.020  0.1200 -0.0801  0.0090
12340W        W25754  10.336   6.638   2.453 -0.0941  0.2975 -0.1884
12341W        W25755   8.321  12.242  11.963  0.0061 -0.2702  0.0441
12342W        W25756   3.060  14.263   4.682  0.1480  0.0448  0.1721
12343W        W25757  13.706  15.006   2.395  0.0105 -0.0905 -0.0194
12344W        W25758   5.431  16.836  14.725  0.0275  0.0026  0.0600
12345W        W25759   1.296   5.638   6.107 -0.3653 -0.2772 -0.0771
12346W        W25760  10.451   3.914   3.836  0.1320  0.1359  0.0765
12347W        W25761  15.713   1.711  12.169 -0.1121  0.1214  0.0558
12348W        W25762  17.427   4.967  16.532 -0.0347 -0.1341 -0.0705
12349W        W25763  10.910  12.754   3.677 -0.0271 -0.0356 -0.2909
12350W        W25764   6.039  17.462   1.817  0.0682 -0.0830  0.0581
12351W        W25765   6.198   4.488   4.734 -0.2370 -0.1854 -0.0792
12352W        W25766  15.731   8.982   5.462 -0.0850 -0.1097 -0.0369
12353W        W25767   5.946  10.649   4.712  0.2204  0.0686  0.2332
12354W        W25768  10.256  11.010   4.104 -0.1420  0.0246  0.0055
12355W        W25769   3.154  17.342   3.149  0.1280 -0.1455 -0.0052
12356W        W25770   6.836  13.723  11.590  0.1195 -0.1629  0.2124
12357W        W25771   9.510  10.738   5.633  0.2162  0.1337 -0.0024
12358W        W25772   6.218   3.122  15.970 -0.2700  0.0257 -0.1441
12359W        W25773   9.728  11.330  12.641 -0.3608  0.3895 -0.2814
12360W        W25774  11.540   4.523   5.117  0.2133 -0.1359 -0.1697
12361W        W25775  10.015   8.051   2.910  0.1071  0.4015 -0.0538
12362W        W25776   8.186   9.010   0.075  0.0787 -0.3202 -0.0309
12363W        W25777  13.664   8.352   4.376  0.2194 -0.1028  0.2185
12364W        W25778   1.623   9.524  11.286  0.0500 -0.0083  0.1002
12365W        W25779   8.833  14.534  11.607 -0.0512 -0.1192 -0.0900
12366W        W25780  17.354   9.580  16.134 -0.2547  0.3447 -0.2573
12367W        W25781  11.117  11.811   2.296  0.0524 -0.1045  0.2255
12368W        W25782  13.447  13.636   3.589 -0.0319 -0.0769 -0.2931
12369W        W25783   1.379  14.390   3.206  0.0345 -0.2062 -0.2817
12370W        W25784  15.067   6.152   3.729 -0.1520  0.1887 -0.0160
12371W        W25785   1.547  11.806   5.017 -0.0619 -0.0463 -0.1672
12372W        W25786  16.863  13.121   3.782 -0.1066 -0.3330 -0.2287
12373W        W25787   8.125   7.441   6.212  0.1387  0.1389  0.1699
12374W        W25788   9.788   8.871  11.735 -0.2889 -0.3448  0.2170
12375W        W25789  17.065  17.034   0.680  0.1932  0.0625  0.0732
12376W        W25790   8.640   6.335   4.407  0.0362  0.2132 -0.0188
12377W        W25791  16.355  17.990  13.261 -0.0711  0.0359  0.1856
12378W        W25792  12.022   1.978  11.384 -0.0353  0.1576 -0.2121
12379W        W25793  16.568  10.097  15.059 -0.0052 -0.0870  0.3194
12380W        W25794  10.893  12.305   0.121  0.0033  0.0361  0.1666
12381W        W25795   3.840   2.121   1.336 -0.0917  0.0356  0.1005
12382W        W25796   5.051   4.843   1.723  0.2633 -0.0846 -0.1625
12383W        W25797  17.813  12.770   1.677  0.1368 -0.2472 -0.0307
12384W        W25798  13.369   2.253  11.978  0.2289 -0.1560  0.1025
12385W        W25799  18.018   8.304   3.999  0.0665  0.1876  0.1614
12386W        W25800  14.131  13.281  15.774  0.1430  0.1041  0.0323
12387W        W25801   9.786  14.930   4.083 -0.0889 -0.0171 -0.0026
12388W        W25802   1.759   6.316   1.110  0.1093 -0.2089  0.0113
12389W        W25803   8.212  16.184  11.826  0.0353 -0.1839 -0.0463
12390W        W25804   5.406   9.590  13.402 -0.0330  0.3397 -0.0546
12391W        W25805   2.353  15.137  12.008  0.1266 -0.3001 -0.2423
12392W        W25806   8.157   6.970  11.419 -0.1539 -0.2858 -0.2045
12393W        W25807   2.850   4.168  16.703 -0.0604 -0.0746 -0.0861
12394W        W25808   2.628  15.581  11.281  0.0741 -0.1030  0.2864
12395W        W25809   5.151   5.589  11.104 -0.3345 -0.2568 -0.0767
12396W        W25810  16.288   5.967   5.837  0.0375 -0.0671 -0.1728
12397W        W25811   9.129  15.691   3.175  0.0494 -0.1472 -0.2394
12398W        W25812   0.146  15.141   4.788  0.0136  0.1728 -0.0750
12399W        W25813   6.690  17.493  14.173  0.0177 -0.1452 -0.1644
12400W        W25814   1.084   2.306  12.513  0.1582 -0.1752 -0.1360
12401W        W25815  13.062   8.706  11.319  0.1522  0.0544  0.4065
12402W        W25816   6.366   4.075   3.502  0.0886  0.0011  0.2526
12403W        W25817  14.925  10.704   5.734 -0.0825  0.0359 -0.1184
12404W        W25818  17.882   1.291  16.651  0.0058  0.2948 -0.4047
12405W        W25819   2.206  12.496   4.129 -0.1417  0.0092  0.0841
12406W        W25820  11.966  12.522   3.608  0.2653 -0.0947 -0.2657
12407W        W25821   5.393   0.518   3.404  0.1450  0.1757 -0.0201
12408W        W25822   5.054  17.757   2.718  0.1780  0.2645  0.0646
12409W        W25823  13.208  17.279  14.096  0.0345 -0.0463 -0.2599
12410W        W25824   4.897   3.384  16.463  0.0921 -0.0212 -0.0014
12411W        W25825  10.912   3.318  13.110 -0.0224  0.0031 -0.1774
12412W        W25826  17.837   6.803   0.148 -0.0323 -0.0895  0.2255
12413W        W25827  10.087  13.726   3.453 -0.0387 -0.0024 -0.0073
12414W        W25828  16.206  16.822   0.322  0.0461 -0.0350 -0.2137
12415W        W25829   7.773  10.628   4.477 -0.0139  0.1359 -0.1037
12416W        W25830   7.693   2.816   1.407  0.1443  0.1663 -0.0684
12417W        W25831   1.114  12.913  10.907 -0.0840 -0.0204  0.0868
12418W        W25832  17.013   0.128  11.192 -0.2000  0.1581 -0.0644
12419W        W25833  16.782  14.219  13.955  0.2395  0.0381 -0.1211
12420W        W25834  13.042  12.567  15.199 -0.0785  0.0697  0.1715
12421W        W25835   6.969   0.433   0.151  0.1647 -0.1848  0.1661
12422W        W25836  16.552   0.366  11.179 -0.1352  0.1289 -0.0813
12423W        W25837   9.878  16.430   4.005 -0.0836  0.0987 -0.0749
12424W        W25838  15.452   7.253   4.705  0.2078  0.1917  0.2132
12425W        W25839  13.600   5.986  10.833 -0.1181 -0.1045  0.1117
12426W        W25840   9.113   3.596  16.343  0.0339 -0.2603  0.0110
12427W        W25841   8.191  11.821   0.725 -0.0177 -0.1771 -0.1176
12428W        W25842  13.656   6.483   5.829  0.0633  0.0926 -0.0051
12429W        W25843  14.240  12.464   0.808 -0.2552  0.1845  0.1199
12430W        W25844  14.569  14.520   2.565 -0.0027 -0.0531 -0.0384
12431W        W25845  10.544   5.266   4.078 -0.3793 -0.1301  0.1907
12432W        W25846   6.886   1.246  13.094  0.0251  0.0942 -0.1957
12433W        W25847  16.349   9.308   1.703  0.3255  0.1474  0.1065
12434W        W25848   4.995   7.814  15.780 -0.1409 -0.0945 -0.5762
12435W        W25849   3.847  10.856   0.221 -0.1245 -0.0838 -0.0295
12436W        W25850   8.476  17.601   3.400  0.0437  0.0956  0.0958
12437W        W25851  15.644   1.821  12.654  0.0537 -0.2349  0.2312
12438W        W25852   1.271   2.386  11.538 -0.0516 -0.2045  0.1172
12439W        W25853   0.899   3.116  15.917 -0.0534  0.1141 -0.1812
12440W        W25854   9.958   0.587   0.707  0.1961  0.1785  0.0633
12441W        W25855  16.031   9.321   2.188  0.2855  0.1119 -0.0096
12442W        W25856  13.417   7.394  16.029 -0.0086 -0.5673  0.0438
12443W        W25857  11.862  13.034  10.557  0.2647 -0.3895  0.4044
12444W        W25858   0.167   3.252  10.815  0.0390  0.1184  0.1661
12445W        W25859  14.133   3.602   3.971 -0.1804 -0.0298  0.2723
12446W        W25860  15.474   9.372  10.943  0.1627 -0.3850  0.3078
12447W        W25861   4.941   7.517  16.671  0.0346  0.3569  0.0164
12448W        W25862  16.480   1.552   2.997 -0.4254 -0.0048  0.2198
12449W        W25863   4.653   2.707   0.640 -0.1311  0.2962  0.1300
12450W        W25864  16.146  11.084   9.861  0.2800 -0.0053  0.3116
12451W        W25865  15.466  10.918  16.165 -0.1291 -0.2146  0.2475
12452W        W25866  16.704   1.106  11.035 -0.0861  0.0529 -0.3346
12453W        W25867   7.373   4.114  11.121  0.2355 -0.1372  0.2099
12454W        W25868   4.190   4.449  16.115  0.0296  0.1402  0.1230
12455W        W25869  13.564   0.356  11.579 -0.0195  0.3276 -0.1719
12456W        W25870   9.223  12.415  14.005  0.1033 -0.1487 -0.1973
12457W        W25871  14.868   0.129   3.397 -0.0586 -0.0350  0.3459
12458W        W25872  14.175  13.328   5.367 -0.4791 -0.0867  0.1765
12459W        W25873  13.042   6.966  15.362  0.0194  0.1279  0.0184
12460W        W25874   9.501  13.434   6.055  0.0989 -0.0732 -0.0626
12461W        W25875   8.467   1.094  13.013 -0.3942  0.0866  0.1573
12462W        W25876   6.607   8.854  13.357  0.0997 -0.3548 -0.1006
12463W        W25877   3.017  13.012   2.193  0.0254 -0.1673  0.0403
12464W        W25878   3.549  11.596   0.722  0.1122 -0.3581 -0.1453
12465W        W25879   1.768  14.843  16.320  0.0159  0.0995  0.0937
12466W        W25880   7.168   0.984  13.908  0.1637 -0.2981 -0.2084
12467W        W25881   3.230   6.288   2.612  0.1143  0.1049  0.0346
12468W        W25882   6.048  18.030  15.622 -0.3414  0.1467 -0.0286
12469W        W25883   5.096   2.541  12.656  0.0664  0.2949  0.0609
12470W        W25884   7.180  16.803  16.011 -0.1776  0.0495 -0.5103
12471W        W25885  16.394  11.579  11.539  0.0141  0.0979 -0.2123
12472W        W25886  14.857   6.317  15.913 -0.1674 -0.1870 -0.2716
12473W        W25887   3.888  11.710   1.584 -0.1776 -0.3051  0.1827
12474W        W25888  15.686  14.956  11.803  0.0837 -0.0831 -0.0187
12475W        W25889  13.258   5.413  14.406 -0.0119  0.0604  0.1021
12476W        W25890   0.918   4.532   1.573  0.1104  0.1513 -0.2918
12477W        W25891  12.895   0.337   6.004  0.2898  0.0012  0.1179
12478W        W25892   1.552  15.671   1.724  0.1745 -0.1234  0.1173
12479W        W25893   3.607  14.474  14.061  0.0592 -0.0755 -0.0044
12480W        W25894  11.228  17.102   1.742 -0.2314 -0.1724  0.1329
12481W        W25895  12.735  15.153  12.914  0.0456 -0.0336  0.0001
12482W        W25896  12.564  14.541  15.783 -0.0414 -0.2381 -0.0523
12483W        W25897  11.021  16.171   0.974  0.0154 -0.0200  0.5603
12484W        W25898   3.291   2.476   4.661  0.2081  0.0295 -0.0075
12485W        W25899   1.913  11.007   5.091  0.0759 -0.1953  0.3546
12486W        W25900   0.751  10.260   5.494 -0.0980  0.0174  0.1947
12487W        W25901  16.512   0.284   5.581 -0.0747 -0.1083 -0.0119
12488W        W25902   4.682   0.406  15.467 -0.0517  0.0507 -0.0554
12489W        W25903   0.196   1.177  15.429  0.3513 -0.0668  0.2164
12490W        W25904   7.044  10.062  12.503 -0.1656  0.2436 -0.0077
12491W        W25905   4.658  17.592  14.234  0.0032 -0.0394  0.0697
12492W        W25906   6.653   7.357   2.768 -0.1164  0.2421  0.0495
12493W        W25907   2.347  10.095   0.373  0.1485  0.0076 -0.1072
12494W        W25908  13.280   7.427  14.173  0.0675  0.1254  0.0495
12495W        W25909   2.750   5.282  12.473 -0.1255  0.1910  0.1537
12496W        W25910  17.396  14.129   5.300 -0.0329  0.0302  0.0996
12497W        W25911  13.437  17.112   1.334 -0.0741 -0.1490 -0.1148
12498W        W25912   7.495   7.773  13.957 -0.2264  0.0841 -0.2543
12499W        W25913   5.658  12.652  14.950  0.0692 -0.0918  0.0038
12500W        W25914   2.454   0.903  11.228  0.0708  0.2479  0.3096
12501W        W25915  13.191  13.167  12.718 -0.1877 -0.0975 -0.3143
12502W        W25916   9.410   3.936  12.226  0.2798  0.0538 -0.0636
12503W        W25917   4.661   9.943   2.342 -0.1327  0.2438  0.4122
12504W        W25918  10.486   7.120   2.816 -0.0278  0.0210  0.0153
12505W        W25919   4.569   0.394  14.514 -0.1644 -0.3240 -0.2483
12506W        W25920  12.936   5.269   0.022 -0.1028  0.0638  0.1180
12507W        W25921  17.872   6.763   2.827 -0.0061 -0.0164  0.0458
12508W        W25922  12.580   7.787   1.153  0.1096 -0.2605  0.1843
12509W        W25923  11.995   4.873   1.902  0.0542 -0.3890  0.3193
12510W        W25924   7.831   9.185  13.968 -0.1886  0.3090  0.0077
12511W        W25925   9.760   9.087  15.088 -0.1290 -0.2073 -0.0997
12512W        W25926  12.736  16.294  13.278  0.0494  0.0931  0.0859
12513W        W25927   0.321   3.291   1.359  0.1531 -0.3765 -0.1164
12514W        W25928   6.614   2.526  15.521  0.0542 -0.3781 -0.3671
12515W        W25929   4.403   3.721  12.549 -0.3016 -0.0448 -0.0137
12516W        W25930  16.803  15.718  16.365 -0.0225  0.0215 -0.0708
12517W        W25931   6.822  16.650   3.077  0.0829  0.2937 -0.0534
12518W        W25932   6.578  15.574  15.400  0.1553  0.1390 -0.1202
12519W        W25933   5.970   1.796   1.411 -0.0640 -0.0399 -0.1748
12520W        W25934  15.040   1.960   5.085  0.0391  0.1877 -0.2628
12521W        W25935  17.844  13.798  11.742 -0.1290 -0.1690 -0.0852
12522W        W25936   0.703   3.707  12.795 -0.5222  0.0307 -0.0262
12523W        W25937   0.874  10.168  14.030  0.1813 -0.0381  0.3129
12524W        W25938   3.003   2.058   3.017 -0.0703  0.2687 -0.0017
12525W        W25939  13.808  11.753   4.891 -0.0650 -0.0121 -0.1530
12526W        W25940   9.243   6.595  11.101 -0.2425 -0.0225  0.1107
12527W        W25941  13.760   8.947   1.248  0.2187  0.0734  0.0851
12528W        W25942  16.904   4.096   0.532 -0.1620 -0.1230 -0.0247
12529W        W25943   2.221   9.032   5.684 -0.2227 -0.1213  0.2389
12530W        W25944   7.767   4.182   2.355 -0.0755  0.0292 -0.1821
12531W        W25945   5.489  10.426   4.810 -0.2748 -0.1066 -0.1045
12532W        W25946   1.122  11.029   3.693 -0.1961  0.0624 -0.1999
12533W        W25947   4.122  17.342   6.848 -0.0736 -0.3063  0.1728
12534W        W25948   5.614   8.401   2.269 -0.2308 -0.1275 -0.0985
12535W        W25949   9.503   0.248   5.326  0.1953  0.0074  0.0528
12536W        W25950  17.915  17.451  12.150 -0.0545  0.5134  0.0876
12537W        W25951  15.421  15.370   2.919  0.4044 -0.2555  0.0388
12538W        W25952   8.540   4.226   3.495 -0.1604  0.0996  0.1909
12539W        W25953  15.353   7.923  14.138 -0.1382  0.1021  0.3698
12540W        W25954  18.023   6.082  16.045  0.2466 -0.0612 -0.1016
12541W        W25955   4.455  17.957   3.469 -0.1476 -0.1609 -0.1855
12542W        W25956   8.743   5.827  11.014  0.3322  0.1202  0.0735
12543W        W25957   6.998   9.043   0.175 -0.1471  0.1208 -0.0745
12544W        W25958  15.546   3.352  13.076  0.0799 -0.0122 -0.2775
12545W        W25959  15.133   8.218  13.282 -0.0856  0.0097  0.0456
12546W        W25960   2.824  10.423   4.147 -0.0997  0.0844 -0.1094
12547W        W25961   3.211  15.329   2.136 -0.1083  0.0488  0.0576
12548W        W25962   1.919  10.982  11.504  0.0274  0.0886  0.1300
12549W        W25963  16.442  16.772  11.697  0.3680 -0.0754  0.0373
12550W        W25964   1.299  15.660   2.539 -0.1638  0.2291  0.4149
12551W        W25965   5.537   2.350   4.532  0.2932  0.0810  0.1213
12552W        W25966  10.965  15.727  15.112 -0.1534  0.2489 -0.0216
12553W        W25967   9.084  16.675   3.733  0.0141  0.0844 -0.1748
12554W        W25968  14.426   1.572   0.045  0.1777 -0.2828 -0.0296
12555W        W25969   0.543   4.036  11.901  0.4476  0.0803  0.0782
12556W        W25970  11.964   4.417  10.962  0.0189  0.1085  0.2915
12557W        W25971  10.740   8.207   6.239 -0.0030 -0.0058 -0.0740
12558W        W25972   9.854  11.808  13.762 -0.0405  0.1536  0.3518
12559W        W25973   6.562  15.374   0.190  0.0865  0.3201 -0.1256
12560W        W25974   0.321  13.879   4.876 -0.0947  0.2220  0.1091
12561W        W25975   7.642   6.425   1.102 -0.3317  0.2704 -0.2161
12562W        W25976  15.498   9.830   2.580 -0.1913 -0.0683  0.0009
12563W        W25977  10.213   8.980  14.893 -0.1964 -0.1069  0.0709
12564W        W25978   8.201  15.743  13.829  0.3341  0.0279 -0.1178
12565W        W25979   1.397  10.494  11.969 -0.1583  0.0949 -0.0632
12566W        W25980   5.140  14.605  14.636  0.2434 -0.1942  0.3747
12567W        W25981   4.409   2.685  14.788  0.0474 -0.0469 -0.1140
12568W        W25982  13.191   2.059  16.561  0.1345 -0.3437 -0.0462
12569W        W25983  17.270   6.147  14.545  0.0428 -0.0665  0.6433
12570W        W25984   8.733  17.166   3.801  0.0067  0.2450 -0.1292
12571W        W25985  13.951   4.671  13.132  0.1188 -0.1028  0.0218
12572W        W25986  12.282   8.154   1.442  0.3935  0.2187  0.0135
12573W        W25987   8.057   7.830  14.111  0.1803 -0.2552  0.0847
12574W        W25988   3.817  10.287   9.846  0.1923 -0.0746 -0.0729
12575W        W25989   2.373   5.041  12.276  0.1236  0.0332 -0.0171
12576W        W25990   2.886   3.909  15.653  0.3131  0.2879  0.3826
12577W        W25991   2.656  14.512   3.774  0.0497  0.2721 -0.1508
12578W        W25992  12.396   0.139   5.279 -0.0319 -0.2729 -0.0595
12579W        W25993   3.411   4.722   6.116  0.4953  0.2092 -0.3176
12580W        W25994   7.898   0.115   4.091  0.1152 -0.1574  0.0669
12581W        W25995   0.122   0.392   0.375  0.1187 -0.0347 -0.0472
12582W        W25996   3.413   1.320   5.818 -0.0032  0.2706  0.1201
12583W        W25997  10.046  14.441  13.519  0.1262  0.0846  0.2315
12584W        W25998  12.290  15.635   5.296  0.1223 -0.0703  0.3195
12585W        W25999  14.346   3.761  14.257  0.2248  0.0715  0.1975
12586W        W26000   7.844  12.571  16.325 -0.0144 -0.1252  0.0147
12587W        W26001   6.820   3.771   1.688 -0.2194 -0.2957 -0.3380
12588W        W26002  18.010  15.043  15.026 -0.0967 -0.0768  0.0219
12589W        W26003   8.909   8.661   2.379 -0.1699  0.1677  0.3424
12590W        W26004  12.925   7.836  15.275  0.1357 -0.0491  0.1252
12591W        W26005   2.285  11.700  14.523 -0.2479  0.2367 -0.1350
12592W        W26006   3.154   8.990   0.881 -0.0934 -0.0301  0.0682
12593W        W26007  13.570   3.910   1.850  0.0252  0.2131  0.2256
12594W        W26008   7.782  17.059   6.266  0.0218  0.0266  0.0264
12595W        W26009   8.857   4.698  12.528  0.3037  0.2581  0.2645
12596W        W26010   2.909  10.076  15.664 -0.2400 -0.1265  0.1532
12597W        W26011   2.109   4.168   6.393  0.0382 -0.2196  0.3086
12598W        W26012  11.323   4.477  13.264 -0.4131  0.0142  0.0037
12599W        W26013  10.529  16.583   4.962  0.0125  0.0384 -0.0323
12600W        W26014   2.710   7.960  11.156 -0.1435  0.0060  0.1236
12601W        W26015   2.820   8.007  14.834 -0.1535 -0.1942 -0.2269
12602W        W26016  16.109  12.317   0.543  0.0931 -0.0080  0.0984
12603W        W26017   4.374  13.449  12.570 -0.2704 -0.1835 -0.1124
12604W        W26018  14.768   2.990   3.774 -0.0221 -0.0298  0.0072
12605W        W26019   3.904   2.431   0.794  0.1610 -0.1647 -0.1033
12606W        W26020  11.226  17.163  12.879  0.0973  0.0148 -0.2427
12607W        W26021  14.591   9.221   4.269 -0.0128 -0.3192  0.0080
12608W        W26022  16.670  13.453   1.196 -0.1745 -0.0917  0.0946
12609W        W26023   6.335   8.854   1.255 -0.1880  0.2222 -0.1071
12610W        W26024  13.645  11.255  13.424 -0.0768 -0.1652  0.0331
12611W        W26025   7.214   6.705   0.931 -0.4632  0.1711 -0.0290
12612W        W26026   7.524  16.483   0.757 -0.1151  0.1528  0.3535
12613W        W26027   9.548  15.952   5.727  0.0107  0.3125  0.0277
12614W        W26028   4.011  10.850  14.769 -0.3052  0.0773  0.2677
12615W        W26029  11.003   8.066  13.503 -0.1455 -0.1805  0.2815
12616W        W26030  12.791  16.361   5.125  0.0679 -0.1269  0.0240
12617W        W26031   0.629   7.426  15.984  0.1020  0.3004 -0.3160
12618W        W26032   2.999   0.342  12.117 -0.2017  0.0520  0.0378
12619W        W26033  11.206  10.745   5.141  0.0166 -0.1238  0.2064
12620W        W26034   4.950   1.347   1.644  0.1433 -0.0143 -0.1009
12621W        W26035   1.034  17.476   3.711  0.2197 -0.0338  0.2577
12622W        W26036   0.951  16.823  12.728 -0.2244  0.0114 -0.2739
12623W        W26037   3.078   8.224  12.295  0.4195  0.3448  0.0535
12624W        W26038  10.026  12.670  12.439 -0.0054  0.1753 -0.1264
12625W        W26039  12.516   9.737   0.763 -0.1988  0.3257  0.2868
12626W        W26040   1.433   1.161   4.969 -0.0297  0.4038 -0.3924
12627W        W26041   3.409   3.460   5.549  0.1001  0.1204 -0.0761
12628W        W26042  15.301   0.187  15.447  0.3106  0.2308  0.0122
12629W        W26043   9.584  12.572  11.599 -0.0605  0.1538 -0.0333
12630W        W26044  15.295   6.690   4.469  0.3192  0.1290  0.1039
12631W        W26045  10.679  16.680  16.411  0.0192  0.0879  0.1692
12632W        W26046   3.332   2.004   0.916 -0.0814 -0.3118  0.0796
12633W        W26047  16.903  16.695   5.858 -0.2521 -0.3566 -0.0020
12634W        W26048  17.679   7.095   1.826  0.4019  0.2066 -0.1654
12635W        W26049   6.017  13.509   2.694  0.1356  0.1394 -0.0151
12636W        W26050   3.030  13.378  15.417 -0.0479 -0.0044 -0.1173
12637W        W26051   7.905   7.512   0.221  0.0976 -0.2247 -0.0775
12638W        W26052  14.357   9.064   5.093 -0.1065 -0.0765 -0.3895
12639W        W26053  17.465   8.573  13.463 -0.0235 -0.0262  0.0169
12640W        W26054   9.941  15.206  14.206  0.0740  0.0681 -0.0329
12641W        W26055   6.100   1.652  10.102  0.1647  0.2632  0.0789
12642W        W26056  12.459  14.573  14.399 -0.1067 -0.0622 -0.1395
12643W        W26057  17.516  12.413   3.708 -0.1322 -0.0697  0.0959
12644W        W26058  15.475  11.647   2.497 -0.0759 -0.2297 -0.0985
12645W        W26059  16.779   3.416  11.077 -0.0587 -0.1937 -0.1424
12646W        W26060  17.311  15.046   5.321 -0.0219 -0.2214  0.2056
12647W        W26061  10.921   6.379   1.973 -0.0722  0.0514  0.1096
12648W        W26062   3.037   2.194  11.487 -0.1234 -0.1375  0.0657
12649W        W26063  14.857   7.931  13.755 -0.0594  0.1479  0.0935
12650W        W26064   3.469   5.715  15.657 -0.2273  0.1577  0.0026
12651W        W26065   8.464   4.716  10.207 -0.1561 -0.1693 -0.1932
12652W        W26066   9.911   4.522  15.642 -0.0352 -0.3870 -0.2486
12653W        W26067   2.494  14.359  14.739 -0.2268 -0.2966  0.1430
12654W        W26068   2.403   4.113   4.572 -0.0020 -0.0603 -0.0101
12655W        W26069   0.850  14.142  15.409 -0.0255  0.0978  0.2641
12656W        W26070  15.004   8.861   0.202  0.0351 -0.0979  0.1967
12657W        W26071   1.320   4.809  10.840 -0.1122 -0.0065  0.3640
12658W        W26072   0.349   6.709   5.024  0.2622  0.0494 -0.2589
12659W        W26073   1.879   2.570   1.537 -0.0535 -0.1324  0.0821
12660W        W26074  10.273   1.643  11.377 -0.1484  0.0636 -0.1412
12661W        W26075  12.782   5.433  11.307 -0.0696  0.2490  0.1899
12662W        W26076   2.422   7.154   1.958  0.2986  0.1246  0.0492
12663W        W26077   0.419   5.219   3.628  0.0637 -0.2247  0.1604
12664W        W26078   9.303  13.351   5.205 -0.1003 -0.1371 -0.2055
12665W        W26079  16.678  17.832   4.806  0.0737 -0.3658 -0.1740
12666W        W26080  11.893  12.694   4.578  0.2830  0.0538  0.1394
12667W        W26081  14.297  16.228   5.647 -0.0485 -0.0323  0.0506
12668W        W26082   7.591   7.488  15.174  0.1426  0.0241 -0.1184
12669W        W26083  11.650  13.710  12.602  0.2622 -0.3282  0.1195
12670W        W26084   1.720  17.879  15.571 -0.2813  0.0315 -0.0775
12671W        W26085   7.372   7.407   0.198  0.3116  0.0346 -0.2408
12672W        W26086  16.098  13.657  12.898 -0.3656 -0.1336 -0.1342
12673W        W26087  10.052  13.743   0.739 -0.1030 -0.0882  0.0753
12674W        W26088  16.699   5.050   0.509  0.1352  0.0187 -0.3842
12675W        W26089  14.830   4.595  15.308 -0.0955  0.2823  0.1302
12676W        W26090  15.155   0.090   3.776 -0.2279 -0.0793 -0.2943
12677W        W26091   6.264   8.513  16.293 -0.0196 -0.0179  0.0726
12678W        W26092   6.091   2.065  13.170 -0.1436 -0.0514  0.0632
12679W        W26093  15.353   0.497   4.085 -0.0251  0.1558 -0.0093
12680W        W26094  14.371  12.722  15.881  0.0758  0.2050 -0.0487
12681W        W26095   3.299   6.535  12.709  0.3191 -0.5357  0.1323
12682W        W26096   8.666  16.409  11.657  0.0424 -0.0537 -0.1816
12683W        W26097   8.270   0.423  12.084  0.1930  0.0539  0.1047
12684W        W26098   8.022   8.551  11.795  0.0209  0.1664  0.1323
12685W        W26099   4.819  15.069  14.581  0.1888 -0.1178  0.1197
12686W        W26100   7.557   7.911   5.788  0.0596 -0.1036  0.0179
12687W        W26101   3.539  15.800   2.309 -0.0126  0.1749  0.0448
12688W        W26102   6.699   0.089   6.026 -0.0629  0.0155  0.3448
12689W        W26103   9.977   4.445   0.857  0.0446 -0.1536  0.2889
12690W        W26104   0.792  11.695   4.475  0.0957  0.0041  0.2751
12691W        W26105  10.558  15.279  11.497 -0.0885  0.0513 -0.0160
12692W        W26106   6.712  11.764   1.422  0.3382  0.0131  0.0402
12693W        W26107   2.123   4.922  11.554 -0.1593 -0.0176  0.1658
12694W        W26108   7.083   3.066  14.418 -0.1344  0.1623  0.3017
12695W        W26109  14.871  11.638  14.263 -0.1978  0.0479  0.1147
12696W        W26110   0.013   3.194   0.664  0.1199 -0.0697 -0.0659
12697W        W26111  16.611  12.865   5.101  0.1761 -0.0815  0.0226
12698W        W26112   8.578   6.919  13.791 -0.1098  0.1059 -0.1504
12699W        W26113  16.007   8.828   2.448  0.0036 -0.2267 -0.0223
12700W        W26114   1.948   8.009   2.415  0.1074  0.1801 -0.1169
12701W        W26115   3.229  14.517   1.306 -0.1100  0.0141 -0.2501
12702W        W26116   4.908  11.954   0.662  0.2118  0.3499  0.0239
12703W        W26117  13.093   6.279  12.640  0.2649 -0.5532 -0.0384
12704W        W26118  17.703   3.188  12.635 -0.0547  0.4075  0.0909
12705W        W26119  11.024   9.813  11.529 -0.0139  0.3536 -0.0753
12706W        W26120   4.277   2.871   0.995  0.1658 -0.1401  0.2139
12707W        W26121   9.250  12.900  12.956  0.0621  0.0269  0.0402
12708W        W26122   1.606  16.317   3.867 -0.1592 -0.1588 -0.1348
12709W        W26123  15.976  10.173   1.379 -0.1143 -0.0658  0.1324
12710W        W26124   1.730   1.896  14.551 -0.2248  0.0097  0.0532
12711W        W26125   9.144  17.012  11.121  0.0001  0.1512  0.2832
12712W        W26126   1.750   2.384  14.474 -0.2131 -0.4094  0.0599
12713W        W26127   3.858  12.360   4.559 -0.2860 -0.4286 -0.1064
12714W        W26128   6.215  11.665   0.108  0.0572 -0.0593 -0.2321
12715W        W26129   1.135   8.718  16.340  0.2057 -0.0909 -0.2871
12716W        W26130  15.139   7.430  11.254  0.0230 -0.1678 -0.1760
12717W        W26131  10.560  12.182  11.823 -0.1864  0.0406 -0.1239
12718W        W26132   1.999   7.842  14.232  0.1178  0.1407 -0.1309
12719W        W26133  12.985   1.056   4.555  0.1961 -0.0426  0.0421
12720W        W26134  10.127   1.593   2.763 -0.0272 -0.0279  0.0357
12721W        W26135  15.682   5.931   1.801  0.1250  0.2559  0.0419
12722W        W26136  12.798  17.890  16.454 -0.1271  0.0450  0.2691
12723W        W26137  15.429  13.145  15.228 -0.2881  0.0267 -0.2714
12724W        W26138   3.741  15.307   2.514 -0.0535  0.0695 -0.0829
12725W        W26139  13.002   8.170  16.543 -0.4741  0.0756  0.0448
12726W        W26140   1.950  15.285  11.752 -0.0909  0.0741  0.1153
12727W        W26141   0.483   3.741   1.352 -0.0131 -0.1638 -0.0858
12728W        W26142  15.091   4.552   4.786 -0.0577  0.2798 -0.3237
12729W        W26143  14.983  12.983  15.092  0.1074  0.1201 -0.1962
12730W        W26144   4.995  10.034   4.167 -0.1411  0.0704  0.0446
12731W        W26145  15.613   1.408  16.067 -0.1604  0.2221  0.1903
12732W        W26146   1.284   6.113   0.976  0.1588  0.4723  0.0724
12733W        W26147   4.861  11.311  11.694 -0.0178  0.2472  0.1810
12734W        W26148   9.030   7.825   0.630  0.1475 -0.0401 -0.0776
12735W        W26149  17.825  15.439   4.613 -0.1959  0.2013 -0.1657
12736W        W26150   0.369  17.220  14.885  0.2436  0.3460 -0.1873
12737W        W26151  11.482  16.804   5.585  0.0299 -0.0783  0.0976
12738W        W26152   5.080  11.181   2.300 -0.3160 -0.4014  0.0046
12739W        W26153   8.083  16.655  16.274 -0.1584 -0.3708 -0.5717
12740W        W26154  15.172   2.541  12.554  0.0732  0.0313 -0.1646
12741W        W26155   4.980   5.108   4.493 -0.0226 -0.0667 -0.0055
12742W        W26156   5.749  11.107  13.530  0.1763  0.1234  0.0222
12743W        W26157   3.279   4.437  11.708 -0.2964  0.3426  0.3120
12744W        W26158   0.988   0.028   0.643  0.2575  0.2271  0.1382
12745W        W26159   9.630   6.595   4.563 -0.2314  0.0325 -0.0629
12746W        W26160  11.849   2.661   4.474 -0.0189  0.0006 -0.1777
12747W        W26161  13.042  12.096  12.600 -0.1467 -0.2139 -0.2211
12748W        W26162  13.057  12.022   0.032 -0.0797  0.0923 -0.0140
12749W        W26163  17.326  15.308  13.247  0.0767 -0.0811 -0.0875
12750W        W26164  16.986   9.906  15.997 -0.0317  0.3340  0.0485
12751W        W26165   0.815   9.676  15.267  0.1593  0.2232  0.1170
12752W        W26166   7.530  15.364  11.045  0.0005 -0.0283  0.1340
12753W        W26167  11.897   4.970  11.639  0.0545 -0.1923  0.0363
12754W        W26168  17.226  13.956  14.873 -0.2879 -0.1364 -0.1435
12755W        W26169  12.684   4.042  14.128  0.2358 -0.2624 -0.0854
12756W        W26170   6.363   9.362  16.609  0.1529 -0.2137  0.0931
12757W        W26171   3.350   9.997   2.456  0.0966  0.0133 -0.0181
12758W        W26172  11.493   2.050  12.990  0.0398 -0.0787  0.0242
12759W        W26173   9.854   7.472  11.246 -0.4948  0.2860  0.0774
12760W        W26174   2.989   1.910  15.455 -0.3129 -0.0386  0.0721
12761W        W26175   1.654  10.752   1.976 -0.2905 -0.0280 -0.1644
12762W        W26176  17.589   7.956  11.536 -0.1116  0.1240 -0.0496
12763W        W26177   5.678  14.865  16.494  0.2622  0.1984  0.0671
12764W        W26178  14.626  12.259  13.419  0.1559  0.3884  0.1215
12765W        W26179  14.312  12.857   5.380  0.1262 -0.3044  0.2639
12766W        W26180  10.552  10.793  11.578  0.1741  0.3271  0.1749
12767W        W26181   6.310   9.347   1.619 -0.0610  0.2496  0.0074
12768W        W26182   1.198   9.193   5.742  0.1701  0.0268  0.0410
12769W        W26183   8.420   6.641  10.664  0.1279 -0.0336 -0.1928
12770W        W26184   8.044   9.660   1.744  0.0790  0.0997 -0.0342
12771W        W26185   9.044   0.282  12.950 -0.0797  0.0683  0.2361
12772W        W26186  14.540  14.117   1.386 -0.0756 -0.1434  0.1818
12773W        W26187  13.877   6.797  12.978  0.1322 -0.0743 -0.1341
12774W        W26188  13.413  16.527  14.702 -0.1156  0.1341  0.1872
12775W        W26189  12.808  17.538  11.166 -0.0118 -0.0468  0.0670
12776W        W26190  16.967   5.822   3.275  0.0694 -0.0848 -0.0837
12777W        W26191  17.124   2.591   1.790 -0.2222 -0.1063 -0.0967
12778W        W26192   7.388   2.609   5.040 -0.0909 -0.1073 -0.3188
12779W        W26193  13.123  17.589  16.203  0.1500  0.1975  0.1672
12780W        W26194   8.508   3.709   3.349  0.3132  0.0040 -0.1018
12781W        W26195   8.786  13.995  13.880  0.0110 -0.1044 -0.1642
12782W        W26196   8.826   0.621  12.640 -0.1942 -0.4677  0.1104
12783W        W26197  15.819   4.429   3.797  0.0589 -0.0652 -0.0779
12784W        W26198  14.951   3.230  12.264 -0.0022  0.0031  0.2557
12785W        W26199   9.267  14.721  11.382  0.1034  0.3254 -0.4008
12786W        W26200  10.309  13.241   5.143 -0.1400  0.2196  0.0240
12787W        W26201   8.663   2.529   3.704  0.3896 -0.2332  0.1035
12788W        W26202   2.000   3.414   5.910 -0.0910  0.3462 -0.0013
12789W        W26203   6.998   3.481   1.253 -0.3624  0.2254 -0.1957
12790W        W26204  10.101  13.379  14.202 -0.1396  0.3181  0.0036
12791W        W26205  10.337   1.955  15.370 -0.2671 -0.0908  0.0068
12792W        W26206  10.920  16.138   4.949 -0.0249  0.0333  0.0033
12793W        W26207   5.304   6.461  13.721  0.0435  0.1805  0.0207
12794W        W26208   1.475  12.634  14.726 -0.0716  0.0244  0.1016
12795W        W26209  13.308  17.379   6.472  0.1993 -0.0711  0.0286
12796W        W26210  16.167  10.145   2.943 -0.3105  0.0239  0.0420
12797W        W26211  16.549  15.933   0.750  0.2639 -0.1188  0.0256
12798W        W26212  16.367   9.069  16.703 -0.0537  0.1411 -0.0213
12799W        W26213   6.607  16.517  11.422  0.3506 -0.0165 -0.0031
12800W        W26214   5.959   5.463  15.575  0.1044 -0.1590  0.0843
12801W        W26215   1.575  15.068   4.226  0.0043  0.0315 -0.0814
12802W        W26216  16.119  15.967   2.432 -0.0757 -0.0572  0.5498
12803W        W26217   5.483  15.764  12.255  0.1626  0.2855  0.0375
12804W        W26218  16.286  13.732   2.543  0.0030  0.4590 -0.1173
12805W        W26219  12.515  16.690  14.256  0.1778 -0.2587  0.0681
12806W        W26220   3.817   9.797  12.014 -0.2083  0.0804  0.1988
12807W        W26221  13.870  16.050   2.164 -0.1769 -0.1096 -0.2614
12808W        W26222   8.589  10.166  12.355 -0.0435 -0.0442  0.1954
12809W        W26223   2.218   1.607   0.511 -0.3120 -0.2380  0.1296
12810W        W26224  10.003  16.957   1.400  0.1597  0.1121 -0.0289
12811W        W26225   0.589   8.302  15.909 -0.0207  0.1361  0.1672
12812W        W26226   4.821  13.924   1.357  0.1717  0.1423 -0.2084
12813W        W26227   6.949   8.549   9.837 -0.4787  0.0378  0.1150
12814W        W26228   4.054   4.276   1.126 -0.1347  0.0164  0.0535
12815W        W26229  13.448   9.036  11.571 -0.2134  0.0014  0.3321
12816W        W26230   2.954  15.106  14.317  0.0720 -0.1125  0.1013
12817W        W26231   6.683  12.605   4.606  0.2610  0.4265 -0.0019
12818W        W26232  12.458   0.656  15.919  0.0551  0.2076  0.0642
12819W        W26233   0.747  16.077  15.307  0.1487  0.2560  0.1424
12820W        W26234   4.787   0.983  12.566  0.3627 -0.2312  0.0560
12821W        W26235  16.982   8.914  12.654  0.2778  0.1837 -0.3325
12822W        W26236  14.398  14.308   0.145  0.1315 -0.1140  0.0371
12823W        W26237   6.902  17.428  12.354 -0.0075  0.0493  0.0738
12824W        W26238  17.641   2.664  14.513  0.3835 -0.1327 -0.0760
12825W        W26239  16.291   6.578   3.540  0.0757  0.3378  0.2463
12826W        W26240  14.041   2.076   6.231  0.1952  0.1598  0.2094
12827W        W26241   9.285   1.894  16.173  0.0380 -0.3295  0.1768
12828W        W26242   7.323  11.618   3.757 -0.1543  0.1404 -0.1427
12829W        W26243  15.936  13.244  12.015 -0.2779  0.0481  0.0017
12830W        W26244   6.280   0.676  13.224  0.1101  0.3027 -0.1362
12831W        W26245  13.521  15.808  13.969 -0.2370  0.0743 -0.0125
12832W        W26246   5.209   7.122  10.585 -0.0369  0.0372 -0.1259
12833W        W26247  17.222  16.757   2.455 -0.1397 -0.1290  0.1101
12834W        W26248   9.014   7.554  15.110  0.0886 -0.0954  0.1129
12835W        W26249   3.759   8.368  15.873  0.1423  0.0046  0.1691
12836W        W26250   4.243  18.021   4.985  0.0228 -0.0387 -0.0947
12837W        W26251   1.420  11.850  13.885  0.1833 -0.2794  0.1969
12838W        W26252  11.628   3.796   1.935 -0.0588 -0.1326  0.0068
12839W        W26253  17.658  10.196   0.624 -0.0145 -0.2679  0.1666
12840W        W26254   5.896   9.995  15.269  0.2520 -0.1577 -0.1546
12841W        W26255  13.959   7.183   6.404  0.1453  0.1358 -0.1377
12842W        W26256   3.240   1.639  14.195 -0.2728  0.0218  0.0672
12843W        W26257   4.123   0.133  14.623  0.0760  0.1467 -0.5406
12844W        W26258   5.908   4.637   1.366  0.1561  0.0666  0.2048
12845W        W26259   9.471   3.413   2.014  0.1408  0.0375  0.0847
12846W        W26260   8.612  11.227  11.259 -0.0073 -0.2159  0.0406
12847W        W26261  12.037  11.624  16.168  0.0815 -0.2010 -0.3303
12848W        W26262  11.529  13.162  13.510 -0.1926  0.1960  0.0987
12849W        W26263   4.423   5.272  13.708 -0.1517 -0.0171 -0.1013
12850W        W26264   2.023  13.405  13.594 -0.0170  0.3391 -0.1126
12851W        W26265  15.238  14.421   4.986 -0.0105  0.1538 -0.0144
12852W        W26266   9.952   7.874  13.415  0.0579 -0.2024  0.1777
12853W        W26267   1.627  10.867  11.058  0.0143  0.0054  0.2200
12854W        W26268  10.733   1.982   3.022 -0.0423 -0.2995  0.3056
12855W        W26269  14.593  14.576  13.968  0.0974  0.1761 -0.4519
12856W        W26270  11.046  11.750   5.724 -0.0501  0.1092 -0.0765
12857W        W26271  14.064   9.364   5.509  0.1152 -0.0921  0.2777
12858W        W26272   3.553   7.713   3.994 -0.1229  0.3858  0.0985
12859W        W26273  15.617  16.065  11.311  0.1576 -0.0256  0.1230
12860W        W26274  13.637  14.576  15.712 -0.0873 -0.2513  0.0786
12861W        W26275  17.327   9.041   3.539 -0.1729  0.1409  0.1881
12862W        W26276  16.886   9.379   5.013 -0.0920  0.2041  0.2084
12863W        W26277  16.012   9.964   3.573  0.1746 -0.1373  0.0438
12864W        W26278  13.515   8.958   4.920  0.3004  0.0504  0.1423
12865W        W26279   0.375   4.912   6.036 -0.0972  0.2435 -0.0200
12866W        W26280  13.855   8.578   3.069  0.3209  0.0023  0.3133
12867W        W26281   4.353  11.434   4.903 -0.0388 -0.2194 -0.0872
12868W        W26282   0.410   8.948  14.807 -0.0832  0.1807 -0.2664
12869W        W26283   7.740   7.471   1.116  0.1833  0.3858  0.2480
12870W        W26284   1.726   2.175  11.033  0.0888  0.0377  0.1338
12871W        W26285   8.350   8.756   3.418  0.1317  0.4485  0.0841
12872W        W26286  16.551  14.852  11.138 -0.0397 -0.1631  0.0583
12873W        W26287  13.556  15.642  14.814  0.0678 -0.1191  0.1911
12874W        W26288  10.650   4.019   0.253 -0.2145  0.0940  0.1528
12875W        W26289   0.556   2.247  15.758 -0.2608  0.2148  0.1152
12876W        W26290   7.205  10.832   4.097 -0.1019 -0.2372  0.2762
12877W        W26291   6.771   6.602   0.007 -0.2132 -0.2636  0.1583
12878W        W26292   5.455  16.662  11.764  0.0162 -0.3534  0.1718
12879W        W26293  11.760   0.378   3.435  0.1603  0.1805  0.0814
12880W        W26294   5.168  14.360   4.612  0.1027 -0.0371  0.2010
12881W        W26295   3.315   2.101   1.430  0.3440 -0.5901  0.0093
12882W        W26296  16.040  17.233  14.889  0.0801 -0.1257  0.0749
12883W        W26297  12.657   0.413   2.391  0.1165  0.3830  0.2116
12884W        W26298   4.893  12.331   1.944  0.2207 -0.1290 -0.2743
12885W        W26299  17.674  16.289  11.076 -0.0070 -0.0822  0.0698
12886W        W26300   3.810  16.982   6.148  0.2221 -0.1134  0.0573
12887W        W26301   4.509   3.102   3.980  0.0284 -0.4545 -0.0893
12888W        W26302   8.753   5.881  13.018 -0.0831 -0.2393 -0.0328
12889W        W26303   4.172  17.925  15.866 -0.1936  0.0452  0.0933
12890W        W26304   4.123  13.736   6.210  0.1001 -0.1114  0.1251
12891W        W26305  16.912   6.869   2.448 -0.2922  0.0955  0.0977
12892W        W26306   0.204  10.231  10.536 -0.0196  0.0000  0.1526
12893W        W26307   8.309   4.145  11.444 -0.0189 -0.2719 -0.2083
12894W        W26308   0.975   2.808   1.401  0.0831  0.1846 -0.1201
12895W        W26309   3.015   2.053   5.703 -0.1215 -0.1026 -0.2243
12896W        W26310   6.716   6.065   3.040  0.0260  0.2904 -0.2026
12897W        W26311   0.338   5.315   1.664 -0.0704 -0.0506 -0.2993
12898W        W26312   4.380  13.126   0.054 -0.0305 -0.0853  0.0451
12899W        W26313   4.473  10.234   1.469 -0.0993  0.0629  0.2093
12900W        W26314   7.688  12.346   5.233  0.0516 -0.0784  0.1611
12901W        W26315   8.991   7.214  12.318 -0.1288  0.0100 -0.0734
12902W        W26316  12.493   9.996   5.194  0.0801 -0.0990 -0.0698
12903W        W26317   2.944   5.257   6.262 -0.1277  0.0892 -0.1639
12904W        W26318   6.820   5.460   4.491 -0.2773  0.1803 -0.0038
12905W        W26319   6.959   3.707  11.360 -0.3010 -0.1138 -0.0442
12906W        W26320  14.429   9.387   3.020 -0.0956 -0.0599  0.0618
12907W        W26321  11.111  13.680   4.576  0.3481 -0.1773  0.4155
12908W        W26322  11.213  10.076  13.271  0.0794 -0.0919 -0.0211
12909W        W26323  11.979   2.299   3.743  0.2681 -0.1470 -0.1787
12910W        W26324   0.213  10.393  16.618  0.0707  0.0334  0.2087
12911W        W26325   6.467   6.978   1.200  0.0882  0.2355 -0.1562
12912W        W26326  10.097  14.985   2.115 -0.0708 -0.0757  0.2283
12913W        W26327  11.381  13.219  16.006  0.0393 -0.0173  0.2525
12914W        W26328   9.278  10.095   3.161 -0.0747  0.3182 -0.0232
12915W        W26329   9.942   4.526  14.130 -0.3451 -0.1377 -0.1330
12916W        W26330   3.938  12.847   3.239  0.4019  0.2197  0.1059
12917W        W26331   6.444  11.116   1.748  0.3067 -0.0476 -0.1184
12918W        W26332   8.984  18.052   2.550 -0.1241 -0.1245 -0.0161
12919W        W26333  17.376   1.312   6.247  0.0816 -0.0416  0.0841
12920W        W26334   8.310   4.968   0.106 -0.2864 -0.2010  0.1381
12921W        W26335  13.167   7.654   0.071  0.1702  0.0615 -0.1036
12922W        W26336  12.420  16.835  13.795  0.1513 -0.1800  0.0931
12923W        W26337  13.788   4.829   3.080  0.0742 -0.0786  0.2527
12924W        W26338   1.242  10.483  11.133 -0.0354  0.0387 -0.2835
12925W        W26339   3.624   0.053   1.829  0.0193 -0.0143 -0.0783
12926W        W26340  13.089  14.609  15.722  0.0196  0.2140  0.1558
12927W        W26341   4.641   0.845   5.879 -0.2202 -0.3169  0.0236
12928W        W26342   9.256  15.125  13.261 -0.1109  0.0465 -0.0151
12929W        W26343   9.378  17.366   1.007  0.1428 -0.0040 -0.0594
12930W        W26344   3.900   3.436   3.291 -0.0009 -0.0524  0.2163
12931W        W26345   1.297   4.663  11.384 -0.0416 -0.0181  0.0243
12932W        W26346   4.657   9.084   0.904 -0.0023  0.0839  0.0768
12933W        W26347   4.801   1.915   1.871  0.0001 -0.0036  0.1541
12934W        W26348   7.311  16.649   3.226  0.1142  0.4518 -0.0888
12935W        W26349   8.094   6.066  12.245 -0.2773 -0.1381  0.1098
12936W        W26350  12.213   1.204   3.465  0.1463 -0.0916  0.0579
12937W        W26351  14.814  16.848  14.194  0.1449 -0.1523 -0.0853
12938W        W26352  13.898   2.114  14.856  0.1120  0.2811  0.0212
12939W        W26353   7.962   9.447  13.404  0.4714 -0.0062  0.0640
12940W        W26354  12.902   6.184   6.502 -0.0973 -0.2351 -0.2649
12941W        W26355   9.168   4.574   0.954  0.1456  0.0415 -0.1817
12942W        W26356  13.570   1.469   3.754  0.1101  0.5627  0.0463
12943W        W26357   3.306   5.596  11.241 -0.2114  0.1359  0.3063
12944W        W26358  11.285  16.170  16.060  0.3241  0.1056 -0.0345
12945W        W26359   6.102   1.516  10.990  0.1430  0.0223 -0.2025
12946W        W26360   7.039   9.416   5.110 -0.0511 -0.1080  0.0734
12947W        W26361   1.090  11.029   1.651 -0.1737 -0.0668 -0.1164
12948W        W26362  11.660  17.964  10.916 -0.3425 -0.2062  0.0181
12949W        W26363  14.445   0.228   3.088 -0.2956 -0.0014  0.0517
12950W        W26364  11.699  14.929   4.851 -0.1760 -0.1672 -0.4416
12951W        W26365   0.703   3.811  14.883  0.0995 -0.3817  0.0430
12952W        W26366   8.765  13.306  12.144 -0.0311 -0.1787 -0.1305
12953W        W26367   1.231  11.433  12.665  0.0471  0.0089 -0.7376
12954W        W26368   5.160  16.407   6.089 -0.0398  0.1350  0.1002
12955W        W26369   4.772   7.487  11.423 -0.0266  0.3170  0.0635
12956W        W26370  11.265  13.285   1.506  0.0916  0.2649  0.1407
12957W        W26371  11.112  10.847  11.769 -0.3081  0.2752  0.1686
12958W        W26372   3.661  11.260  13.609 -0.2284 -0.0253 -0.2963
12959W        W26373   2.395  17.756   4.754 -0.1590 -0.1348  0.2496
12960W        W26374   2.927   8.643   4.654  0.2271  0.1381  0.2141
12961W        W26375   7.508  11.848   2.618  0.3656  0.2156  0.1912
12962W        W26376  10.463   8.600  15.577  0.1652  0.0786  0.2335
12963W        W26377   7.549  13.846   5.634 -0.0036 -0.0952  0.1902
12964W        W26378  14.063  15.793   4.877  0.1510  0.1727  0.1039
12965W        W26379   3.331  10.041  13.272  0.2399  0.2579 -0.0176
12966W        W26380   7.664  13.886  10.778 -0.1094  0.0354 -0.1943
12967W        W26381   5.200  11.371   4.551 -0.4081  0.1206 -0.0741
12968W        W26382  16.603   4.121  15.400 -0.0915 -0.2371 -0.0805
12969W        W26383  16.000   1.041   1.660  0.0486  0.2793 -0.1298
12970W        W26384   2.278   6.533   0.285  0.0172  0.2836 -0.3080
12971W        W26385   1.496   8.741  15.940  0.0310 -0.0262  0.3656
12972W        W26386  12.995  16.771  12.532 -0.2744 -0.1253 -0.2303
12973W        W26387   5.966   0.328  11.167 -0.0367  0.0700 -0.0645
12974W        W26388  13.086  11.612   0.986 -0.0763  0.3811  0.1294
12975W        W26389   0.939   6.139   1.318  0.0966 -0.3413  0.1207
12976W        W26390  10.924   1.677  16.650 -0.0023  0.0443 -0.1273
12977W        W26391  13.274   6.018   2.642  0.2545 -0.1561  0.0565
12978W        W26392  15.148   0.953   5.181  0.0268  0.1598  0.0054
12979W        W26393   2.324   2.670  14.744  0.1570 -0.1507 -0.1889
12980W        W26394   7.754   1.388  11.505 -0.0791  0.1086 -0.1362
12981W        W26395   7.397   1.150  16.524  0.0247  0.5686  0.0857
12982W        W26396   1.743   5.947  10.986 -0.0055  0.1093 -0.2386
12983W        W26397  15.921  11.588  14.497 -0.0029  0.3584  0.0178
12984W        W26398  12.789  14.520   1.649  0.2803  0.3070  0.1572
12985W        W26399  18.046   7.415   2.162  0.2126 -0.3773  0.1660
12986W        W26400   1.272   5.588  13.961  0.2517 -0.0139  0.3585
12987W        W26401   7.868  13.488  15.450 -0.1606 -0.3587  0.2179
12988W        W26402   3.665  11.794  13.608  0.1069 -0.3271 -0.1393
12989W        W26403   4.658   1.703  13.077  0.1845 -0.0832 -0.2347
12990W        W26404   2.110   5.183   6.023 -0.0498 -0.0617 -0.1194
12991W        W26405   5.223  11.269   0.145  0.0324  0.1941 -0.2302
12992W        W26406   7.045   8.560   0.034  0.0425 -0.0300  0.0111
12993W        W26407   2.172   2.504  16.020  0.1419 -0.0261  0.0298
12994W        W26408   0.311  15.361   5.345  0.1285  0.1076  0.1046
12995W        W26409   8.526   0.763  16.266  0.2419 -0.0036  0.1031
12996W        W26410   6.632  10.941   5.288 -0.0115  0.0221 -0.0408
12997W        W26411   2.015   6.576  10.702 -0.1059  0.2789  0.2052
12998W        W26412   1.899  11.120   0.639 -0.3395 -0.1495 -0.1965
12999W        W26413   3.277  16.096   5.673  0.0145  0.1525  0.2178
13000W        W26414   2.733  15.206  15.361  0.1753  0.0520  0.1313
13001W        W26415  13.830   0.982   1.293 -0.1331 -0.0078  0.1496
13002W        W26416  10.357   5.127   2.248 -0.2676 -0.0435  0.0926
13003W        W26417   9.029   3.650  12.127 -0.1191  0.0436 -0.1866
13004W        W26418  16.326   2.388   5.893 -0.1899 -0.0038 -0.3084
13005W        W26419   3.921   9.240   2.968  0.0175 -0.0884  0.2182
13006W        W26420   5.371  12.442   5.446 -0.2346 -0.0328  0.1086
13007W        W26421  14.367   6.790  15.600  0.3132  0.3818 -0.3462
13008W        W26422  10.430   3.627   4.837  0.1617  0.0901  0.0557
13009W        W26423  10.324   2.841  16.640 -0.1900  0.1446  0.3035
13010W        W26424   2.190   7.369  13.441  0.0317  0.1915 -0.2578
13011W        W26425   9.929   7.702   3.251  0.2727  0.0760 -0.1774
13012W        W26426  15.068   9.760   1.185  0.0699  0.0703  0.1595
13013W        W26427   8.557  15.465  13.586 -0.0502  0.0182 -0.1902
13014W        W26428  10.325  13.286   3.690 -0.1947  0.2911  0.0334
13015W        W26429   9.658  12.532   5.051 -0.0874 -0.1535 -0.1376
13016W        W26430   5.053   4.284   1.999 -0.1371 -0.1748  0.2158
13017W        W26431   8.364  15.882  12.822  0.1462 -0.0720 -0.0868
13018W        W26432  14.943  10.670  14.182  0.2317 -0.0957  0.1439
13019W        W26433  12.520  14.973   3.779 -0.2068 -0.1221  0.0685
13020W        W26434  13.623   0.080  12.078 -0.2575 -0.0656 -0.5137
13021W        W26435   2.134   9.114   2.299 -0.1684 -0.1054 -0.3213
13022W        W26436  16.981   5.782   0.032  0.0693  0.1700 -0.0253
13023W        W26437  17.304   1.502   6.721  0.2608  0.2042  0.0018
13024W        W26438   7.336   7.622   4.935  0.1052 -0.1096 -0.0129
13025W        W26439  10.318   6.097  12.338 -0.1700  0.0134  0.2592
13026W        W26440   8.434  11.673  12.650  0.0393 -0.1575 -0.0272
13027W        W26441   0.194  13.802   0.740 -0.2180  0.0918 -0.0186
13028W        W26442  16.992   0.956   1.795 -0.0166  0.0131 -0.1616
13029W        W26443  10.547  13.722   3.681  0.0759 -0.1470 -0.1693
13030W        W26444   6.610   6.482   5.602 -0.2900  0.1594 -0.1168
13031W        W26445   7.844   0.276  13.025 -0.0850  0.1227 -0.4537
13032W        W26446   9.341  14.612  11.869 -0.2522 -0.0816 -0.0958
13033W        W26447   1.236   6.966   4.473  0.1511 -0.0591 -0.0183
13034W        W26448   2.500   9.809  13.828  0.0462 -0.0018 -0.0171
13035W        W26449  15.221   6.567  14.281  0.2681 -0.2186  0.1704
13036W        W26450  13.459  16.407   4.363  0.1818 -0.0392  0.1095
13037W        W26451  16.860  17.029  11.747  0.2087  0.0867  0.1389
13038W        W26452  13.762   3.996   1.441  0.1204 -0.3313 -0.1313
13039W        W26453   4.898  11.064  13.008 -0.2223  0.1258  0.1819
13040W        W26454   9.477  14.906  15.164  0.0278 -0.1075 -0.1052
13041W        W26455  11.203  16.198   2.538 -0.2403 -0.0606  0.0378
13042W        W26456  11.670   6.125   0.948 -0.0201 -0.1821  0.0414
13043W        W26457   8.208   4.286   2.012 -0.2931 -0.1062  0.2284
13044W        W26458   0.271  12.449   4.383  0.1421  0.1021  0.2037
13045W        W26459  14.394   7.418  14.465 -0.1219 -0.2971 -0.0613
13046W        W26460   0.837   1.168  11.481 -0.1034 -0.1999 -0.1166
13047W        W26461   5.740  16.085  13.321  0.0693  0.0435  0.2323
13048W        W26462   8.540   3.861  12.405  0.0902  0.0790 -0.0758
13049W        W26463   0.164   5.395  12.353 -0.2563 -0.2998 -0.0481
13050W        W26464  15.857   2.031   5.067 -0.1140  0.1471  0.0480
13051W        W26465  13.497   7.504   3.905  0.1504 -0.0190  0.1563
13052W        W26466  11.277  11.410  11.801 -0.1029  0.0064 -0.1191
13053W        W26467   3.898   7.825   2.632 -0.1211  0.3720 -0.1437
13054W        W26468   5.513   6.758  14.948 -0.2735 -0.0839 -0.0229
13055W        W26469  17.188  13.496   4.130  0.1978 -0.2004  0.3010
13056W        W26470   4.031   2.147   2.350 -0.0509 -0.1411  0.2022
13057W        W26471  11.241   2.930   0.494  0.1401 -0.1741  0.0321
13058W        W26472   4.438   3.401   6.038 -0.0114  0.1285 -0.2680
13059W        W26473  10.400   3.494   1.670  0.1635 -0.0479 -0.1994
13060W        W26474   0.766   7.902   5.452 -0.0216 -0.1381 -0.0581
13061W        W26475   1.065   0.558   5.689  0.0694  0.3123 -0.1930
13062W        W26476   2.562   9.324  15.119 -0.0860  0.1332  0.3766
13063W        W26477   6.337   0.577   3.875 -0.0873 -0.1388  0.0410
13064W        W26478  17.154   0.932  14.621 -0.1902 -0.0292  0.0844
13065W        W26479  16.920   0.272  12.852 -0.1923 -0.2163 -0.0747
13066W        W26480   8.382  13.835  14.278  0.3640 -0.0485  0.1809
13067W        W26481   9.753   7.534   4.917  0.1107  0.3429  0.2836
13068W        W26482  11.756   3.906  14.341  0.3180  0.1281  0.0489
13069W        W26483   0.478   0.093   0.559 -0.1659 -0.3707  0.0719
13070W        W26484  11.792  14.999  16.191 -0.0276  0.1463  0.0320
13071W        W26485   9.398  13.786  12.493  0.0008  0.3542 -0.0648
13072W        W26486   4.816  10.820  11.576 -0.6852  0.0978 -0.0853
13073W        W26487  15.892   1.407  10.427 -0.2696  0.2428 -0.0011
13074W        W26488   8.715  16.852  11.351 -0.1749 -0.0683  0.1285
13075W        W26489   1.452  12.873   3.721  0.2280  0.0448  0.1818
13076W        W26490   5.066   7.377  12.269 -0.1433  0.0320 -0.1257
13077W        W26491  14.463   6.237   4.443  0.0784 -0.2435  0.3074
13078W        W26492   5.883   5.150   5.256 -0.3891  0.1080 -0.3460
13079W        W26493   7.405   8.304   0.216 -0.1067 -0.3032 -0.1499
13080W        W26494   5.823   3.697   3.795 -0.0427 -0.1659  0.2874
13081W        W26495  13.881  10.795   5.370 -0.3313  0.1958  0.0504
13082W        W26496   0.440   1.743   2.375  0.2897 -0.0383  0.3295
13083W        W26497   3.073  12.781   9.862  0.0919 -0.1402 -0.0954
13084W        W26498   7.269  15.538  15.266  0.1434 -0.0165  0.0325
13085W        W26499  13.248  14.163  10.899 -0.2103  0.1301  0.1591
13086W        W26500   0.236   7.188  11.696 -0.0228 -0.2422 -0.0250
13087W        W26501   7.003   4.837   5.833  0.0475 -0.2947  0.1086
13088W        W26502  13.354  17.136  16.295  0.1774 -0.1053 -0.0756
13089W        W26503  17.746   0.655  11.865  0.2586 -0.1463 -0.1538
13090W        W26504   3.496   8.366   2.608 -0.0438  0.2815  0.0947
13091W        W26505   3.195  17.103   2.616 -0.1123  0.2708 -0.0829
13092W        W26506   1.548   3.439  13.990  0.1406  0.0707 -0.1988
13093W        W26507   8.949   5.464   9.837 -0.1302 -0.0407 -0.0461
13094W        W26508  16.216  11.998  10.103 -0.0897 -0.3824  0.1092
13095W        W26509  15.950   6.664   2.071 -0.1202 -0.0775  0.1327
13096W        W26510  11.163  13.426  13.925 -0.1844  0.0311 -0.0435
13097W        W26511  14.336   6.268   2.209  0.1726 -0.1236 -0.1334
13098W        W26512  13.885   5.736   3.354 -0.0327  0.0613 -0.0630
13099W        W26513   6.232  16.741   5.171  0.0257  0.2013  0.3195
13100W        W26514  17.061   1.798  14.859  0.1185 -0.3031  0.1620
13101W        W26515   8.156   8.073  11.645  0.0629  0.0404  0.2495
13102W        W26516   1.391   4.991   2.923  0.1523 -0.1758  0.0138
13103W        W26517   3.082  14.587   5.039 -0.1902  0.2095 -0.2612
13104W        W26518   7.921   1.319  16.602  0.0673  0.2132  0.0268
13105W        W26519  17.341  16.524  12.404  0.0164  0.0729 -0.1467
13106W        W26520  14.247  14.099   6.363  0.1411 -0.0391 -0.0887
13107W        W26521   7.261  16.544   1.220 -0.1036  0.2482  0.1581
13108W        W26522   2.626  13.503  12.505 -0.0936 -0.1911 -0.0709
13109W        W26523  14.729   9.462   1.412  0.0192 -0.3307  0.0716
13110W        W26524   4.464   7.373   6.379 -0.0618  0.1748 -0.2525
13111W        W26525  15.551   9.440  14.273  0.2679  0.0531 -0.1657
13112W        W26526   2.543  13.315   5.249  0.1158  0.1847  0.1122
13113W        W26527   0.426   8.486  14.991  0.0731  0.1719 -0.1890
13114W        W26528   4.532   6.972   6.683 -0.2366 -0.0266  0.1211
13115W        W26529   8.876  16.854  11.815 -0.0775  0.0452  0.0017
13116W        W26530  13.379   0.096   2.303  0.1104  0.3656  0.0149
13117W        W26531   2.824  11.481   2.948  0.0524 -0.0274  0.0246
13118W        W26532  11.770  14.778   1.532 -0.1159 -0.0045 -0.0710
13119W        W26533   2.875   0.639   4.839  0.1656 -0.0308 -0.0482
13120W        W26534  11.543   4.838   2.186 -0.0022  0.1598 -0.2047
13121W        W26535   7.912   0.271   1.200 -0.1808  0.1420  0.3836
13122W        W26536   5.667  13.924   3.407  0.0826 -0.2182  0.0882
13123W        W26537   6.551   5.676  10.755  0.2860 -0.0458  0.2216
13124W        W26538   5.066   4.398   3.613  0.2557  0.2575  0.1587
13125W        W26539  10.446  10.451  11.931  0.0349  0.0104  0.1160
13126W        W26540  10.034   1.500  12.324 -0.1158 -0.1067 -0.1053
13127W        W26541  10.420  16.614   1.479  0.2474  0.2112 -0.3612
13128W        W26542  15.615  14.488   1.953  0.1914 -0.1823 -0.1406
13129W        W26543   9.249  12.671   3.990 -0.3885 -0.0731  0.0489
13130W        W26544   3.150  11.492  15.251 -0.1825  0.0557 -0.2495
13131W        W26545   4.440  17.041  13.055 -0.0196 -0.2433  0.0073
13132W        W26546   8.859   6.083   1.796 -0.0874  0.1483 -0.1840
13133W        W26547   9.360  15.270  15.432 -0.0726 -0.2123  0.1597
13134W        W26548  14.056   8.791   5.437 -0.0769  0.1057  0.1625
13135W        W26549   3.845   5.311   5.228 -0.0974 -0.2571 -0.2987
13136W        W26550   0.826   2.105  16.178 -0.2437 -0.1683  0.2597
13137W        W26551   6.149  15.912   5.110  0.0871 -0.1513 -0.1583
13138W        W26552   7.565   2.454   1.789 -0.1611 -0.0598  0.0648
13139W        W26553  11.563   1.311  15.497 -0.4201 -0.0289 -0.1702
13140W        W26554  14.123   8.476  15.438  0.0256 -0.2048 -0.0956
13141W        W26555   7.418  15.375  11.944  0.1931 -0.0892 -0.1834
13142W        W26556   9.115   1.795   3.897 -0.1090 -0.1699 -0.1044
13143W        W26557   5.198  17.075  12.154  0.2775  0.0972 -0.0047
13144W        W26558  12.371  13.280   5.486  0.0905 -0.0812  0.1621
13145W        W26559   6.632  13.006   5.078  0.1244 -0.0513  0.0058
13146W        W26560  15.605   6.729  15.388  0.0184  0.0993 -0.1199
13147W        W26561  14.225   0.725  14.491 -0.1740 -0.2343 -0.0507
13148W        W26562   8.027  12.966   2.898  0.1473  0.0679  0.3784
13149W        W26563  11.939   9.026  16.270  0.1122  0.0656 -0.3376
13150W        W26564  13.601  13.444  12.635 -0.1477  0.2475  0.0566
13151W        W26565  10.660   9.531  15.371 -0.0266 -0.0119  0.0494
13152W        W26566   2.483   3.364   5.450  0.0998 -0.1600  0.4409
13153W        W26567  15.980  17.694   5.422 -0.1513 -0.2285 -0.1102
13154W        W26568  11.774   8.858   1.744  0.0560 -0.3187 -0.1706
13155W        W26569   5.963  11.662   0.543  0.2086 -0.0148 -0.1443
13156W        W26570   3.994   2.187   5.943  0.1435 -0.1023  0.2082
13157W        W26571   8.476  11.677  11.070  0.3076  0.0140  0.0432
13158W        W26572   5.782  10.389   4.256 -0.2708 -0.0753  0.1523
13159W        W26573   1.491  14.731   5.198  0.0111  0.0003  0.1111
13160W        W26574  12.817   6.863   2.310 -0.0089 -0.0737 -0.0534
13161W        W26575   2.265   0.930  16.245  0.1109  0.0626  0.1530
13162W        W26576   2.811  12.292   3.442  0.0544 -0.1449  0.3181
13163W        W26577  14.725  11.473   3.173 -0.3389  0.1082 -0.1983
13164W        W26578  10.443   2.051  13.016  0.1480 -0.0766  0.1042
13165W        W26579  11.193   5.075   1.884  0.2174  0.0676 -0.4901
13166W        W26580   1.817  13.298   1.750 -0.0955  0.1819 -0.4483
13167W        W26581  15.588  15.600  15.678 -0.2431  0.1942  0.1872
13168W        W26582   3.793  15.618  12.175  0.1278 -0.2980 -0.0721
13169W        W26583  14.874   5.874  13.677 -0.3055  0.1776  0.0652
13170W        W26584  16.317   5.908   0.948 -0.1595  0.0983  0.0762
13171W        W26585   3.712  15.470   2.027  0.1704  0.5148  0.1136
13172W        W26586   0.321   4.484   1.785  0.1006  0.0937 -0.0593
13173W        W26587   9.974   2.842   0.679 -0.1627  0.1215 -0.1140
13174W        W26588   1.516  14.538  12.348 -0.1017  0.0232 -0.1851
13175W        W26589   1.862   6.360  12.627  0.0562 -0.2411  0.0922
13176W        W26590  17.741  17.864  15.042 -0.0605 -0.2063 -0.1512
13177W        W26591  12.572   2.025   3.681 -0.2899 -0.4224 -0.0186
13178W        W26592   4.433   1.064   0.710 -0.2992 -0.2466  0.4040
13179W        W26593  11.265   3.260  16.588  0.3867  0.4136  0.2091
13180W        W26594   6.870  12.644   1.414 -0.1064 -0.0563 -0.0684
13181W        W26595   9.873   9.875  10.912  0.1671 -0.1003  0.1146
13182W        W26596   1.648   0.553  16.274 -0.1031 -0.2735 -0.1289
13183W        W26597  12.326   1.220   3.000  0.1764  0.1743 -0.0597
13184W        W26598   7.587  14.401   1.322 -0.0492 -0.1066 -0.1531
13185W        W26599   9.038  14.267  15.921 -0.0590 -0.0818  0.1590
13186W        W26600   5.057   0.390   6.810  0.3729 -0.1131  0.1140
13187W        W26601  17.412   5.761   4.365 -0.0708 -0.0279  0.1682
13188W        W26602  12.454   3.580   5.363  0.3257 -0.3226 -0.0148
13189W        W26603   9.585   1.581   3.985  0.0291  0.1015  0.2987
13190W        W26604   5.168   9.663   3.430  0.0236  0.2435  0.1049
13191W        W26605   8.580   6.148   0.900  0.1495  0.0893  0.0969
13192W        W26606   8.218  15.724   1.146 -0.0314 -0.2298 -0.0898
13193W        W26607   6.837   5.373  13.386  0.1631 -0.1695 -0.2553
13194W        W26608  15.940   5.124   5.117  0.0203  0.0052  0.0150
13195W        W26609   7.292  13.496   1.552 -0.1186  0.3427  0.1374
13196W        W26610  13.302  15.494  15.901 -0.1227 -0.2666 -0.0232
13197W        W26611   2.480  15.995   2.922  0.2290  0.4274 -0.0750
13198W        W26612   3.160  11.311   0.600 -0.1708 -0.0518 -0.1955
13199W        W26613   6.010  12.772  11.981 -0.0431  0.1425 -0.4251
13200W        W26614  18.054  11.182   3.345  0.0068  0.1015 -0.0617
13201W        W26615  16.570  17.065   5.163 -0.1381 -0.3278  0.0606
13202W        W26616   1.396  13.588   0.995  0.0174 -0.1306 -0.0463
13203W        W26617  11.408   1.667  15.905  0.0497  0.0758 -0.2127
13204W        W26618   5.329  15.728   4.424 -0.0586  0.0589 -0.0134
13205W        W26619   1.101   8.401   5.620 -0.0491  0.0385  0.1808
13206W        W26620   1.498   7.823   0.741 -0.2707 -0.4525 -0.0734
13207W        W26621  10.217  14.246   3.586 -0.0997 -0.0836  0.0864
13208W        W26622   6.724   9.647   0.173 -0.2634  0.0048  0.0597
13209W        W26623  11.689   5.613   3.322  0.0276  0.0940  0.1234
13210W        W26624  10.528  17.413  14.973  0.1282  0.3126 -0.0764
13211W        W26625  11.748   6.905   3.788  0.2536  0.0521 -0.0081
13212W        W26626  12.039  11.740   5.359  0.1116 -0.0581  0.1227
13213W        W26627   8.898   2.169  13.165 -0.3735 -0.1442 -0.0414
13214W        W26628  10.778   5.205   2.671 -0.2285 -0.0705 -0.0482
13215W        W26629   8.462   2.760  10.826 -0.1396  0.3329 -0.3603
13216W        W26630   8.798  15.454   3.964 -0.1050 -0.1011  0.0031
13217W        W26631  14.004  17.890  10.862 -0.0482  0.1512 -0.0480
13218W        W26632   8.996  14.087  12.546  0.1016 -0.0370 -0.0450
13219W        W26633   2.636   9.329   4.135  0.0879 -0.0790 -0.0782
13220W        W26634  16.000   3.104  15.044  0.0619 -0.1857  0.0502
13221W        W26635   2.208  13.208   0.021 -0.2850  0.1224  0.0001
13222W        W26636   5.752  15.092  15.683  0.1491 -0.0937 -0.0281
13223W        W26637   2.748   7.641  11.595  0.2325  0.2466 -0.1732
13224W        W26638   8.192   7.689   1.215 -0.4367 -0.0680 -0.1043
13225W        W26639  11.885  11.750   1.616  0.1511 -0.3140  0.1112
13226W        W26640   9.095  14.707  15.482  0.1795 -0.1949 -0.0884
13227W        W26641  13.775   5.890   3.810  0.3141 -0.0351 -0.0965
13228W        W26642  17.277   9.722   1.963 -0.0581 -0.2612  0.2095
13229W        W26643   1.841  17.704   6.462  0.2133  0.0612  0.0543
13230W        W26644   4.558   0.130   1.819  0.2509 -0.0569 -0.2703
13231W        W26645  11.010   3.649   4.421  0.2550 -0.1406  0.2071
13232W        W26646   8.692   0.535  11.878 -0.0317 -0.0542  0.2659
13233W        W26647  16.446  12.444  16.102 -0.0718 -0.1153  0.2249
13234W        W26648   2.270   7.381   4.804  0.0565 -0.0648  0.2944
13235W        W26649   9.744   6.750   3.015 -0.1399 -0.0932  0.2702
13236W        W26650   1.027   7.487  13.580 -0.0263 -0.0422  0.0484
13237W        W26651  17.182  15.258   1.030  0.0357  0.1116 -0.0258
13238W        W26652  11.154   8.562   2.455 -0.1967  0.0662  0.0231
13239W        W26653  16.743   0.497  14.861 -0.2034  0.1639 -0.3204
13240W        W26654   0.125   6.758   3.799  0.3229  0.2805 -0.0685
13241W        W26655   3.923  16.508  11.536  0.0786 -0.1999  0.0207
13242W        W26656   0.657  17.246   5.274  0.2312 -0.1231  0.3639
13243W        W26657  12.846   4.005   6.682 -0.0911 -0.2208  0.1485
13244W        W26658   6.871   9.069   0.661 -0.1907 -0.1398  0.1907
13245W        W26659  16.948   1.787  14.327 -0.1987 -0.2238 -0.0431
13246W        W26660   8.515   6.815  12.276 -0.0150 -0.1525 -0.2138
13247W        W26661   1.067   1.469   0.152  0.0571 -0.0240 -0.1893
13248W        W26662   1.025   2.769   1.913  0.1112  0.1869  0.1390
13249W        W26663  12.384  11.733  15.049  0.4053  0.0606 -0.1033
13250W        W26664   6.849  13.377   0.595 -0.2047  0.1176  0.1879
13251W        W26665   7.544   7.619  12.595 -0.0244  0.0259  0.1963
13252W        W26666  14.022  10.208  12.039  0.1745 -0.1901 -0.1315
13253W        W26667  16.839   8.825  14.488  0.1390 -0.1701  0.0977
13254W        W26668   3.826   3.677   1.259  0.1019  0.1097 -0.1207
13255W        W26669   7.274  13.815   2.619  0.0999 -0.1311 -0.1433
13256W        W26670  17.564  16.344   2.727 -0.0988  0.0774  0.4077
13257W        W26671  12.593   2.813  11.569 -0.1941 -0.1117 -0.0417
13258W        W26672   2.337   3.261  14.654  0.2117  0.2314  0.0479
13259W        W26673  12.060  14.749   3.414 -0.1963  0.1942  0.1129
13260W        W26674  16.031   8.744   3.008 -0.0194 -0.0500 -0.1931
13261W        W26675   5.865   8.036   1.004 -0.0673 -0.2126 -0.1875
13262W        W26676  17.069   6.317   0.753  0.2091  0.0888 -0.1429
13263W        W26677  16.763  10.620  13.725 -0.0238  0.0700 -0.0904
13264W        W26678  11.317  13.907  13.835 -0.1336 -0.1350  0.0317
13265W        W26679   6.110  14.214  14.260  0.1232  0.2878 -0.1551
13266W        W26680   2.706   0.140  15.256  0.0468 -0.1825  0.1594
13267W        W26681  16.918  17.994  13.224 -0.1588 -0.1827 -0.0054
13268W        W26682  12.625  15.344   4.972  0.1473 -0.4400 -0.4188
13269W        W26683   7.089   0.285  13.516  0.1132  0.2080  0.2644
13270W        W26684  17.382   7.725   2.752  0.3092  0.1833 -0.0453
13271W        W26685   4.427   1.334  14.352  0.0085  0.2174  0.1199
13272W        W26686   7.325  14.818   1.552 -0.1094 -0.1427 -0.2774
13273W        W26687   4.300  10.088  14.077  0.1725  0.0211 -0.0519
13274W        W26688  12.067  16.229  13.019  0.3916  0.0591 -0.4145
13275W        W26689  11.206   5.124  12.009  0.1270  0.1715  0.0437
13276W        W26690   4.305   9.243  10.987  0.2325 -0.1645 -0.0349
13277W        W26691  11.489   0.944   1.835  0.2970 -0.0552 -0.0123
13278W        W26692   1.284  16.415  15.463  0.1172 -0.1174 -0.2839
13279W        W26693  15.104  13.416  13.539 -0.0471 -0.0962 -0.1129
13280W        W26694   6.791   3.597  10.542 -0.1132  0.1440 -0.0902
13281W        W26695   8.655  17.156  15.072  0.0899  0.0775  0.0333
13282W        W26696  16.240   1.945   2.706  0.1372  0.0357 -0.0643
13283W        W26697   2.802  13.257   3.414  0.0132 -0.0516  0.2393
13284W        W26698  11.472   2.219   0.092 -0.0101  0.1259  0.2430
13285W        W26699   0.496   6.322   1.528 -0.0289 -0.1964 -0.0279
13286W        W26700   1.042   2.028   5.432  0.1388 -0.0696 -0.1364
13287W        W26701   5.903   5.166   1.376 -0.1118  0.0747 -0.0875
13288W        W26702  17.725   6.655  14.381  0.1732 -0.0946  0.1518
13289W        W26703   8.644  14.618   1.957  0.1162 -0.0902 -0.3725
13290W        W26704   6.763   8.414  11.619  0.0478 -0.0960  0.0326
13291W        W26705   8.304  10.905   3.543 -0.2382  0.0632  0.4459
13292W        W26706  17.298   6.235  16.573 -0.4290 -0.0770 -0.1667
13293W        W26707   7.259   8.521   2.268 -0.0817  0.2338  0.0527
13294W        W26708  12.731   9.595  16.619 -0.2068  0.1324  0.3156
13295W        W26709   7.382  17.015   0.669 -0.1842 -0.0894  0.1818
13296W        W26710  12.552   0.288   1.849  0.3268 -0.0741 -0.1380
13297W        W26711  16.579  11.414   2.344  0.1206 -0.2175 -0.2120
13298W        W26712   6.698  14.448   2.575 -0.0069 -0.1223  0.0730
13299W        W26713   4.771   3.206  13.042  0.0469  0.0546  0.0060
13300W        W26714  11.347  17.891   4.756 -0.3992 -0.0793 -0.1754
13301W        W26715   9.254  14.229  11.552  0.0808  0.0751  0.3011
13302W        W26716  10.881  10.058   1.435  0.0847  0.2745  0.1596
13303W        W26717   7.523   8.776  13.825  0.2512 -0.0876 -0.0158
13304W        W26718   2.020  15.137  12.939 -0.0741 -0.2581  0.0432
13305W        W26719   6.727  15.758   4.980 -0.0841  0.0070  0.1157
13306W        W26720   5.423   6.703  16.466  0.0704  0.1325  0.2630
13307W        W26721   6.382   6.082  11.500  0.2473 -0.0349  0.0775
13308W        W26722  17.953   8.914  14.771  0.0240 -0.0017  0.1070
13309W        W26723   2.949   7.995  14.340  0.0758  0.4215 -0.0499
13310W        W26724   3.763   3.698  15.200 -0.0429  0.2490  0.1926
13311W        W26725   8.368   6.089  11.383 -0.0631 -0.1069 -0.4459
13312W        W26726  12.977   4.794   0.675 -0.1887 -0.0862 -0.0372
13313W        W26727  12.382   8.985   6.472 -0.0922  0.3662  0.0698
13314W        W26728  13.911  12.776  13.317 -0.2049  0.1063  0.1239
13315W        W26729  12.390  12.812   3.734  0.0372  0.0311  0.1145
13316W        W26730   9.404   8.041  11.150 -0.0107  0.1025  0.0578
13317W        W26731   8.995   3.121   2.015 -0.1371  0.0099 -0.0457
13318W        W26732  14.116  13.972  15.157 -0.0355  0.1471 -0.0500
13319W        W26733  11.922   9.555   3.902 -0.1206 -0.1909 -0.3718
13320W        W26734   3.809  14.906   4.579  0.0046 -0.0051 -0.0455
13321W        W26735   4.933   2.117   6.271  0.0765  0.2900  0.2089
13322W        W26736   6.423   1.830   4.923 -0.2895  0.1702  0.0749
13323W        W26737  13.709   7.259   5.065 -0.1223  0.1277 -0.0418
13324W        W26738   4.327  12.377   3.965 -0.2765 -0.2956 -0.0018
13325W        W26739   4.347   2.522  11.765 -0.0049  0.0733 -0.1141
13326W        W26740  11.024   5.397  15.153  0.2065 -0.0757  0.1577
13327W        W26741  10.107   8.454  15.959  0.1892  0.1337  0.1061
13328W        W26742   1.715   2.373   1.051 -0.0159  0.1072  0.0545
13329W        W26743   6.523   7.332   3.393 -0.0266  0.0324 -0.0735
13330W        W26744   9.533   7.217   4.574  0.0612  0.1012  0.3352
13331W        W26745  17.119  14.282   1.191 -0.2597 -0.1645  0.0763
13332W        W26746  10.959   7.636  12.905  0.2676  0.2201 -0.1169
13333W        W26747   9.153   1.059   5.470  0.0518  0.2361  0.1823
13334W        W26748  11.834   7.843   0.962 -0.0663  0.0504 -0.2034
13335W        W26749  13.286  13.942  12.072  0.0870  0.0061 -0.0073
13336W        W26750  14.819  17.186   6.423 -0.2587  0.2600  0.1831
13337W        W26751   6.315   2.329  10.566  0.2905 -0.1409 -0.1363
13338W        W26752   8.021  14.030   3.502 -0.1391 -0.1465  0.3544
13339W        W26753   8.310   0.957  13.523  0.3708 -0.2493 -0.0717
13340W        W26754   3.254  15.060   0.248  0.1213  0.1053  0.0751
13341W        W26755  12.485  16.376   3.059  0.3097  0.4983 -0.0319
13342W        W26756  15.183  17.513   1.224 -0.2022  0.1456  0.0397
13343W        W26757  14.297  14.629   5.414  0.3567  0.0976 -0.4813
13344W        W26758  14.645  12.717  11.486  0.1419  0.0233  0.1071
13345W        W26759  12.290   1.426  10.067  0.1282  0.0467 -0.1556
13346W        W26760  14.163   3.612  11.452 -0.2294 -0.2055  0.1697
13347W        W26761   3.742   5.319  11.196  0.0563  0.0403  0.0448
13348W        W26762   5.122   9.091  11.116  0.0019 -0.0023  0.0608
13349W        W26763   7.231   3.904   3.487 -0.1699  0.1448 -0.4344
13350W        W26764  14.573  10.709   3.789 -0.2157 -0.2408  0.0257
13351W        W26765   6.151  16.203   3.210 -0.2212 -0.2587 -0.0606
13352W        W26766  11.525  12.707  13.280 -0.4690 -0.1255  0.0996
13353W        W26767   2.240   3.720   1.358  0.1763 -0.1128  0.1442
13354W        W26768   8.577   0.308   1.790 -0.0600 -0.0355  0.2510
13355W        W26769   4.627   4.805  14.382  0.0491 -0.1362  0.0714
13356W        W26770   0.596   7.069  12.093 -0.5380 -0.1380 -0.0776
13357W        W26771  13.076   2.000   2.595  0.0874  0.0330 -0.0801
13358W        W26772   1.575   7.183   1.488  0.0638  0.0267  0.0185
13359W        W26773  16.670  16.805   1.892  0.2107  0.0405 -0.2129
13360W        W26774   5.939  10.871  14.870 -0.2751 -0.0682 -0.0311
13361W        W26775  17.661  17.722   0.777  0.2499 -0.1525  0.1052
13362W        W26776   8.350   1.122   5.445  0.0383 -0.0460  0.1914
13363W        W26777   6.984  15.839   3.143 -0.1912 -0.4594  0.2437
13364W        W26778   4.911  12.808  13.662  0.2148  0.1977 -0.0488
13365W        W26779  17.927  14.557  15.109 -0.0711  0.0714 -0.1130
13366W        W26780   4.005  10.324  10.527  0.0928  0.0800 -0.1147
13367W        W26781  17.281   6.712   3.490  0.1053 -0.0244  0.0620
13368W        W26782   8.779   7.402   2.866  0.1527 -0.2122 -0.2525
13369W        W26783  11.004   2.474   4.687 -0.0022 -0.2007  0.0728
13370W        W26784  14.911   3.843   2.300  0.0876  0.2390  0.1698
13371W        W26785   4.035  11.859   4.923  0.1451 -0.0857 -0.0595
13372W        W26786   6.852   3.130  11.269 -0.1846  0.1551 -0.1744
13373W        W26787  10.569   7.898   1.763 -0.0240  0.1619  0.3474
13374W        W26788   9.322   7.874  14.530 -0.2243  0.1568 -0.0039
13375W        W26789  11.631  10.349  16.493 -0.3424  0.2421 -0.1845
13376W        W26790   0.656  17.373   3.174  0.0340 -0.1462 -0.0914
13377W        W26791   9.097   9.541   5.502  0.0027  0.0805  0.1187
13378W        W26792   9.621  13.340  14.281 -0.0269 -0.0004 -0.1332
13379W        W26793  15.815   7.578   3.849  0.3955  0.4097  0.0831
13380W        W26794   4.110   7.037   3.432 -0.2280 -0.0344  0.0683
13381W        W26795   7.552   5.108   3.275 -0.1635 -0.1633 -0.2050
13382W        W26796   0.605   3.723   4.421 -0.3515 -0.2702  0.1621
13383W        W26797  15.212   5.160   6.005 -0.0224 -0.3180  0.1402
13384W        W26798   2.497  16.560   2.600  0.0173 -0.0601  0.0558
13385W        W26799  10.474   4.065   5.626 -0.1858 -0.4631  0.1836
13386W        W26800   2.256   3.450  13.169  0.0986 -0.0811 -0.2080
13387W        W26801   7.765  11.334  11.669 -0.2158 -0.0024 -0.2379
13388W        W26802   4.681  12.336  13.307 -0.0275  0.1988 -0.0167
13389W        W26803   8.492   3.211   3.238  0.2049 -0.0321 -0.1317
13390W        W26804   0.469   2.840   1.515  0.1528  0.1152  0.2360
13391W        W26805   1.339  10.181  10.288 -0.0742  0.3664 -0.1493
13392W        W26806  16.123   6.191   6.563 -0.0867  0.4859  0.1134
13393W        W26807  13.883  14.140  16.508 -0.0548 -0.0809  0.2789
13394W        W26808  15.745   9.676  13.562  0.1739 -0.2104 -0.0667
13395W        W26809   3.884  16.914   0.725  0.0929 -0.0758 -0.1242
13396W        W26810   0.221  14.221   0.478  0.0804  0.0517 -0.2443
13397W        W26811   6.627  15.950   0.215 -0.2411  0.0318 -0.0673
13398W        W26812   4.093  12.329  15.222  0.1585 -0.1533 -0.1292
13399W        W26813   3.111   7.568  16.160  0.0608 -0.1986 -0.2501
13400W        W26814   0.307   4.007   0.073  0.2956  0.0296  0.3121
13401W        W26815   6.803  10.689   1.609 -0.0663  0.3339 -0.1213
13402W        W26816  12.632   4.806  15.833  0.1910 -0.1077  0.2575
13403W        W26817  12.108  15.894   5.697  0.0098  0.1101  0.0768
13404W        W26818  17.517   0.024  12.340  0.1293 -0.0342 -0.0411
13405W        W26819  10.493   4.598  11.116  0.2190  0.0112 -0.2288
13406W        W26820   1.797   3.749   1.100 -0.1121  0.2447  0.2155
13407W        W26821  16.065  13.869  13.462  0.1360 -0.0205 -0.2557
13408W        W26822  17.215  16.200   3.115 -0.0632 -0.3077 -0.5497
13409W        W26823  16.308  13.282   4.788  0.0816  0.1139  0.1721
13410W        W26824   7.111   1.089   0.230 -0.0280  0.0698 -0.3478
13411W        W26825   0.840   3.687  15.800  0.0369 -0.1304  0.0998
13412W        W26826  12.683  11.635   1.403  0.0698  0.1669  0.0939
13413W        W26827  12.149  15.889  15.865  0.1075 -0.2834 -0.2094
13414W        W26828  11.585  16.414   2.282  0.1022  0.0088 -0.1239
13415W        W26829  16.903  15.078  15.826 -0.0851 -0.0300 -0.0188
13416W        W26830  13.646   5.116  14.200  0.1932  0.1516 -0.1500
13417W        W26831  16.097  16.634  14.027  0.2428  0.1672 -0.4344
13418W        W26832  17.024   3.070  13.870  0.1184 -0.2045  0.2542
13419W        W26833  13.014  10.191  13.695 -0.0983  0.0827 -0.0835
13420W        W26834  17.868  17.403   2.139  0.0451  0.2476 -0.0286
13421W        W26835  11.716   1.626  12.746  0.3040 -0.0597  0.1380
13422W        W26836  16.623   6.863  15.638 -0.0018  0.1266  0.2637
13423W        W26837  10.251   4.278   1.594 -0.1662 -0.2899 -0.1289
13424W        W26838  15.420  12.355  13.994  0.4385 -0.2326  0.0726
13425W        W26839  17.385  16.005  14.006 -0.0266  0.1658  0.1158
13426W        W26840   9.093  17.383  14.978  0.0675 -0.0867 -0.0066
13427W        W26841  16.909  13.281  16.102 -0.1850  0.0409  0.0233
13428W        W26842  10.667   6.527  14.473  0.0580 -0.1255 -0.2593
13429W        W26843   3.046   5.481  10.653 -0.0189  0.0717  0.1190
13430W        W26844  15.429   6.396  13.023  0.0602  0.1749  0.2214
13431W        W26845   9.983  10.386   0.333 -0.0630 -0.1269  0.2120
13432W        W26846   1.667   2.140   4.773  0.4621  0.0272  0.0427
13433W        W26847   7.602  17.953   1.119  0.4828 -0.1413 -0.0747
13434W        W26848   0.821   8.185  16.431 -0.0273  0.2762  0.1410
13435W        W26849  12.978  14.073  14.938 -0.1320  0.0514  0.1585
13436W        W26850  17.200  17.781   4.893  0.0855  0.0614  0.0135
13437W        W26851   9.539   2.401  12.023 -0.0229 -0.0855 -0.1836
13438W        W26852   7.875  17.353   5.317  0.1781  0.0390 -0.0024
13439W        W26853  11.638  13.518  10.386 -0.0553 -0.0344 -0.2715
13440W        W26854  10.206  16.069   3.817  0.0994 -0.0833 -0.1939
13441W        W26855   4.093   0.901   1.013  0.0393 -0.0511 -0.1225
13442W        W26856  16.472   5.134  15.219  0.0835  0.0536  0.0663
13443W        W26857   4.263  14.786  14.697  0.1179  0.0953 -0.1307
13444W        W26858   9.543   0.583   0.379  0.0069 -0.0689 -0.2053
13445W        W26859  13.914   7.224  14.691 -0.3153 -0.2068 -0.3482
13446W        W26860   1.726   5.047   6.855 -0.0536  0.0143  0.0091
13447W        W26861  18.017   5.868  11.400 -0.1595  0.3007  0.0077
13448W        W26862  14.373   3.520  16.403  0.1317 -0.0613 -0.3179
13449W        W26863  17.859  13.028  15.689  0.1536 -0.0787 -0.0327
13450W        W26864   1.903   5.150   2.097 -0.0741  0.0652  0.3334
13451W        W26865   1.914   9.072   5.299 -0.2164  0.2755 -0.0549
13452W        W26866   0.542   4.252   5.607  0.1723  0.1462  0.0799
13453W        W26867  16.106  11.581  16.281 -0.0140  0.0275  0.0975
13454W        W26868  14.476  14.965   5.088 -0.0470 -0.3001  0.1379
13455W        W26869   4.116   0.005  10.959  0.1640 -0.0147  0.0839
13456W        W26870  16.606   8.666  11.767 -0.2542 -0.0930 -0.1278
13457W        W26871  15.450   0.734  13.509  0.1603 -0.0261 -0.1796
13458W        W26872  14.926  11.408  13.792  0.0678  0.2484 -0.0470
13459W        W26873  13.352  12.806   1.720 -0.1626 -0.0349  0.0321
13460W        W26874   7.602   4.074  11.621 -0.0442 -0.1970  0.1357
13461W        W26875  13.810  10.339  15.813 -0.0328 -0.0997 -0.2855
13462W        W26876   4.682  14.674   5.617 -0.1562 -0.2092  0.1586
13463W        W26877   2.378   4.097   0.029  0.2956  0.0163 -0.3235
13464W        W26878  13.178  16.751  15.897  0.0018 -0.0791  0.1100
13465W        W26879   5.452   6.215   2.368 -0.1280  0.2324  0.0907
13466W        W26880  13.244  14.076   4.826 -0.0444  0.3778 -0.0733
13467W        W26881   4.696  17.399   2.847  0.1117 -0.3041  0.0059
13468W        W26882   5.899   4.715  11.729  0.0350  0.5516  0.4249
13469W        W26883  15.977  12.555  14.767 -0.1259  0.0796  0.3698
13470W        W26884   7.606  10.511   3.967 -0.0183  0.1251  0.2287
13471W        W26885   6.038   2.506   0.513  0.3176  0.0360  0.3046
13472W        W26886  13.537  12.418  14.620  0.0110  0.0162 -0.1673
13473W        W26887   3.734   2.840   4.124  0.1908  0.1402 -0.1992
13474W        W26888   0.604   1.297  15.728 -0.0189  0.4051  0.0036
13475W        W26889   9.426   2.502  15.446 -0.1886 -0.1387  0.0446
13476W        W26890  16.052   8.438   2.116  0.0560 -0.0191 -0.0811
13477W        W26891   1.528  14.682  15.815  0.0207  0.0965  0.2802
13478W        W26892  10.001   5.670   0.342 -0.1033  0.0568 -0.0460
13479W        W26893   0.636   6.635   2.111 -0.1275  0.1958 -0.0255
13480W        W26894  15.574  15.917  15.198  0.0415  0.1906 -0.2311
13481W        W26895  18.002  14.269   0.896 -0.3035  0.1585 -0.0605
13482W        W26896   8.126   3.842   2.383 -0.2003 -0.1890 -0.0953
13483W        W26897  14.259   3.997  11.844 -0.1441 -0.2372 -0.0549
13484W        W26898   0.774  17.285  12.177  0.4182  0.1463  0.2033
13485W        W26899  16.919  17.795  16.207  0.1672 -0.0290 -0.1671
13486W        W26900   8.754  17.831  10.507  0.0010  0.1665 -0.0065
13487W        W26901   6.265   5.322  13.598  0.0667 -0.0914  0.1904
13488W        W26902  10.127   1.804   3.239  0.4154 -0.3499 -0.0789
13489W        W26903  13.640   5.389   3.040 -0.0157  0.2161 -0.3753
13490W        W26904   9.026  10.166   2.698  0.1979 -0.0835 -0.1257
13491W        W26905   2.034   9.003   3.291  0.0670  0.0261 -0.0321
13492W        W26906  13.414  14.972   5.101  0.2980  0.1109  0.2371
13493W        W26907  16.467  17.365  12.617  0.0506 -0.0188  0.2647
13494W        W26908  16.112  13.035   5.250 -0.3890 -0.1362  0.0893
13495W        W26909   8.156   9.174   4.763 -0.0220 -0.4346 -0.2376
13496W        W26910   2.994   3.338  13.777  0.0070  0.1430  0.0041
13497W        W26911   6.880   3.785  13.330  0.1206 -0.3230  0.1684
13498W        W26912   4.044   2.426  13.064 -0.0330 -0.0922  0.0411
13499W        W26913   8.384  17.676  13.493 -0.0468 -0.1175  0.1754
13500W        W26914  12.178   2.770  14.965 -0.0283  0.1882 -0.1061
13501W        W26915  15.835  11.146  12.801 -0.1684 -0.3267 -0.0323
13502W        W26916  14.636   8.357  10.525  0.1079  0.1887 -0.1775
13503W        W26917   7.389  15.564   4.524 -0.0849 -0.1539 -0.1271
13504W        W26918   5.250   2.438  10.863 -0.2539  0.1927 -0.0402
13505W        W26919   1.195  17.091  15.984 -0.0286  0.2871 -0.0988
13506W        W26920   4.394  10.791   4.007 -0.1022 -0.0809 -0.1943
13507W        W26921  14.615   8.634  15.573  0.1355 -0.4933  0.0327
13508W        W26922   0.439   0.063  11.905  0.1088  0.0101  0.0710
13509W        W26923  17.824   9.350  15.803  0.0077  0.1946 -0.0436
13510W        W26924   7.909  16.600  11.822 -0.0206  0.3537  0.2068
13511W        W26925   2.003  17.862  15.061  0.0688 -0.1292 -0.1995
13512W        W26926  14.217  17.464  11.065 -0.4026 -0.0400  0.0469
13513W        W26927  17.355   9.965   3.509  0.0317  0.2201 -0.2584
13514W        W26928   8.207   6.920  16.218  0.0683 -0.1000  0.0268
13515W        W26929  17.338   7.228  15.735  0.3953 -0.1456 -0.0842
13516W        W26930   2.000  12.184  10.781 -0.1643 -0.0150 -0.3592
13517W        W26931  12.262  16.377  16.516  0.1592 -0.3584  0.0932
13518W        W26932  14.855  17.645   5.566  0.1546  0.0965 -0.0062
13519W        W26933   2.250   2.615  12.691 -0.0461  0.2117 -0.2458
13520W        W26934   1.028  14.448   2.845 -0.2562  0.1533  0.0034
13521W        W26935   5.217   9.217   2.548  0.0050  0.1941 -0.3853
13522W        W26936  11.403   6.616  14.793 -0.4314  0.0452 -0.3932
13523W        W26937  10.836   4.104   2.302 -0.2433 -0.2263 -0.0636
13524W        W26938  15.918   2.005  14.050 -0.2348 -0.0887  0.2130
13525W        W26939  17.724  15.745   0.163  0.0891 -0.3194 -0.4173
13526W        W26940   7.229   0.256   1.202  0.0257 -0.1792 -0.1531
13527W        W26941   6.510   7.472  11.614 -0.3839  0.2524  0.0797
13528W        W26942   8.005   7.055   3.997  0.0752 -0.0100  0.0937
13529W        W26943   2.007  16.169   0.968  0.3702 -0.1969  0.0103
13530W        W26944   4.629   1.461   0.301 -0.2251  0.3525  0.0609
13531W        W26945   1.247   4.254  14.223 -0.0400 -0.0465 -0.1442
13532W        W26946   8.163  14.619   0.038  0.0637  0.0796  0.2403
13533W        W26947   5.029  10.369  11.351  0.2910  0.2131  0.1877
13534W        W26948   1.870  16.775  12.858  0.0032  0.1566 -0.1588
13535W        W26949  17.981  11.369  12.512 -0.2710  0.0088  0.2234
13536W        W26950   7.467  15.129   3.780 -0.3465 -0.1514  0.2439
13537W        W26951   3.359  11.393  11.417 -0.1142 -0.1898 -0.0139
13538W        W26952  10.410   7.754  11.191  0.0858 -0.1840 -0.1856
13539W        W26953  17.328  11.434   3.892 -0.0134 -0.1715  0.0729
13540W        W26954   2.465  16.322  14.455  0.4063  0.1200 -0.2118
13541W        W26955  12.267   6.868  14.802  0.1292 -0.0141 -0.0075
13542W        W26956   4.881  11.644  16.067 -0.1977  0.1598 -0.0934
13543W        W26957   2.496  14.850   0.932 -0.0555 -0.0118  0.3773
13544W        W26958  12.057   5.562   2.720 -0.2273 -0.1309 -0.1754
13545W        W26959   0.079  13.345   6.227  0.0260  0.3503 -0.0858
13546W        W26960   7.574  14.949   1.987 -0.0236 -0.2147 -0.2362
13547W        W26961   6.803   0.366   3.689 -0.0133 -0.1900 -0.0912
13548W        W26962  12.664   7.844  14.796 -0.1140  0.3058  0.1546
13549W        W26963   1.922   7.833   1.466  0.2584  0.1224  0.1049
13550W        W26964  17.946  14.614   3.632  0.0193  0.4510 -0.0062
13551W        W26965   9.845  11.680   4.801  0.2339  0.1834  0.1646
13552W        W26966   3.817   2.905   0.704 -0.1533  0.0165 -0.0022
13553W        W26967   9.722   1.829  12.529 -0.0652 -0.2010 -0.0256
13554W        W26968   5.535  11.753  13.202 -0.1800 -0.0075  0.1463
13555W        W26969  18.047   6.202   7.197 -0.5189  0.0809  0.0079
13556W        W26970   2.509   8.617   1.818 -0.1128  0.2690 -0.2695
13557W        W26971  11.570   7.633  11.150 -0.1374  0.3603 -0.1622
13558W        W26972  13.560  11.610   1.697 -0.0455 -0.0728 -0.0283
13559W        W26973  14.699   5.066  12.527 -0.0964 -0.0520  0.0494
13560W        W26974  14.159   9.790   5.812 -0.2914 -0.3061  0.1042
13561W        W26975   3.309  16.011  13.975  0.1892 -0.0708 -0.1242
13562W        W26976   7.688   9.421  11.155  0.0457 -0.0672 -0.1220
13563W        W26977   2.171   0.100  15.470  0.1061  0.1258 -0.1501
13564W        W26978   0.635   6.339  13.112  0.3256  0.0933 -0.0130
13565W        W26979  10.564   1.037   1.531  0.0898  0.1151  0.0650
13566W        W26980   0.793  16.139  14.743 -0.0155 -0.0542 -0.0899
13567W        W26981   8.235  17.650   4.363 -0.1145 -0.2036 -0.1515
13568W        W26982  17.949   0.388   3.740 -0.3754  0.2145  0.1357
13569W        W26983   4.543   5.958   5.361 -0.1205 -0.0973 -0.2026
13570W        W26984   0.570  15.448  11.509  0.0863 -0.2597 -0.2536
13571W        W26985   7.501   0.064  11.182  0.0086 -0.1446 -0.0240
13572W        W26986  14.496   6.918   2.616 -0.2462  0.0205 -0.0401
13573W        W26987   2.046   0.578   5.319  0.1392 -0.2765  0.3371
13574W        W26988   4.674   8.662  11.701 -0.0795 -0.0422 -0.0353
13575W        W26989  10.116   8.933   4.787 -0.1696 -0.0466 -0.2006
13576W        W26990   8.779   2.454   4.390 -0.2038 -0.0062  0.0759
13577W        W26991   9.261  10.428   3.521  0.3561 -0.1689 -0.2105
13578W        W26992   6.265   7.460   1.309 -0.1465  0.1175 -0.0924
13579W        W26993   6.883  16.764  15.501  0.0954  0.0067  0.2084
13580W        W26994   6.200   1.774   4.504  0.1239 -0.1182  0.0467
13581W        W26995  12.933  12.623   3.614 -0.3457 -0.0953  0.0662
13582W        W26996   4.532   4.846   0.201  0.0767  0.0405 -0.2506
13583W        W26997  13.220  11.847  16.227 -0.2114 -0.1445  0.2862
13584W        W26998  14.956   5.772  16.680 -0.0519 -0.0518 -0.0626
13585W        W26999  17.994  13.631   4.752 -0.1159  0.2602 -0.2649
13586W        W27000   0.910  16.314   1.791  0.2013 -0.0860  0.4714
13587W        W27001  15.257   3.144   4.508  0.3758 -0.1855  0.0447
13588W        W27002  15.814  15.920   1.202 -0.0386  0.0285 -0.2071
13589W        W27003  13.777   1.345  13.800  0.1351 -0.3061  0.1102
13590W        W27004   1.123   1.582  13.557 -0.1353  0.1445 -0.0442
13591W        W27005   2.201   1.207   3.742  0.1658  0.1929 -0.0384
13592W        W27006   5.268   7.610   1.648  0.0222  0.1358  0.0391
13593W        W27007   6.524   8.234  15.279  0.1196 -0.1870 -0.0202
13594W        W27008   0.939   5.505  15.321  0.0498  0.3228  0.3218
13595W        W27009  11.011  15.597  10.864 -0.1041  0.3246  0.2293
13596W        W27010   0.195   1.317  13.535 -0.0772 -0.2217  0.1765
13597W        W27011  11.420  13.803  11.499 -0.0712  0.0736  0.0664
13598W        W27012   5.575  11.096  14.022 -0.1724  0.1352  0.3503
13599W        W27013  12.000   5.250   6.252  0.1907  0.2047  0.2126
13600W        W27014  15.607   7.599   0.630 -0.1170 -0.3611  0.2591
13601W        W27015   0.091   2.707   0.556 -0.2764  0.4028  0.1143
13602W        W27016   1.265   9.984  13.377  0.1793 -0.3080  0.3628
13603W        W27017   1.984  17.091  13.767 -0.1171  0.0163 -0.1240
13604W        W27018  18.033   4.436  14.639  0.1584  0.0162 -0.0866
13605W        W27019   1.834   7.936  10.999 -0.1048 -0.3789  0.1449
13606W        W27020  14.656   1.106  11.922  0.2152 -0.0704  0.3302
13607W        W27021   1.621  17.300  15.718 -0.0186  0.3107  0.1839
13608W        W27022   4.408  17.744   3.051  0.1258 -0.0416 -0.0619
13609W        W27023  15.823   7.764  14.982  0.1387  0.3424 -0.0653
13610W        W27024   0.555  10.498   2.175 -0.2489  0.0177 -0.0159
13611W        W27025  12.840   6.136   4.959 -0.4017 -0.0886  0.5376
13612W        W27026   9.389  10.423  16.608  0.3216  0.0835 -0.1044
13613W        W27027  10.191  10.430  16.032 -0.0900  0.1015  0.0338
13614W        W27028  14.891   0.791  15.760  0.0166  0.1512 -0.0556
13615W        W27029   3.350   3.427  11.007 -0.2419  0.1041 -0.0306
13616W        W27030  10.892   7.416  15.340 -0.2073 -0.0083  0.1715
13617W        W27031   7.989   1.682   4.839 -0.0146 -0.0076  0.0219
13618W        W27032   5.920   0.480   0.610  0.2817  0.2033 -0.0740
13619W        W27033   1.424  12.261  11.729  0.2259 -0.0334 -0.0353
13620W        W27034   8.764  15.583   1.423 -0.0549  0.0248  0.2491
13621W        W27035   4.679  17.965  11.279  0.0924  0.1834  0.1121
13622W        W27036  13.785  13.802   3.236  0.1889 -0.2535  0.0635
13623W        W27037  16.020   1.539   1.966  0.0728  0.2955 -0.0311
13624W        W27038   6.726   9.731  12.184  0.1694 -0.1023 -0.0848
13625W        W27039   3.501  16.327  10.628 -0.2245 -0.2194 -0.1322
13626W        W27040  11.647   9.072   5.348  0.0081  0.0065  0.1686
13627W        W27041   2.224   8.210   1.947 -0.0089  0.1106  0.0965
13628W        W27042   6.816   0.786   0.531 -0.0788 -0.1332 -0.1101
13629W        W27043   8.784   8.137  15.777  0.2228 -0.0911 -0.1801
13630W        W27044  13.608  11.535  12.967 -0.0914  0.0644  0.1506
13631W        W27045   4.999   6.847   0.133 -0.1057 -0.3328  0.1148
13632W        W27046  15.753   8.804  14.726  0.0103 -0.0096  0.2137
13633W        W27047  16.274   3.460   3.059  0.0148  0.2060 -0.0695
13634W        W27048   7.414   1.531   3.625  0.2670  0.1565  0.2446
13635W        W27049  12.700  15.110  11.516  0.0421 -0.0164 -0.1993
13636W        W27050   6.621  12.742  13.399  0.0365 -0.1300 -0.0886
13637W        W27051   4.270   5.756   3.059 -0.2603  0.1375  0.1012
13638W        W27052   4.192  10.749  12.382 -0.0720 -0.0757  0.3845
13639W        W27053   3.490  12.502  12.346 -0.3189  0.0844 -0.0968
13640W        W27054  14.757   0.663   0.351  0.1224  0.0382 -0.3797
13641W        W27055  11.139   9.909  10.487 -0.1238  0.0166 -0.1045
13642W        W27056  10.008  15.603   2.794 -0.3243  0.0390 -0.4999
13643W        W27057   0.444  12.652  12.786  0.3071  0.0161 -0.2146
13644W        W27058  16.452   2.180   6.398 -0.1889 -0.0513  0.0881
13645W        W27059  16.047  14.701  15.804 -0.0997 -0.2374  0.3297
13646W        W27060   2.856  11.322  13.471  0.2701  0.0729 -0.2707
13647W        W27061  12.638  12.789  11.030  0.4722  0.0738  0.1268
13648W        W27062   1.991  10.930  14.168  0.2557 -0.2232 -0.2392
13649W        W27063   8.958   9.953  12.096  0.0485  0.2147 -0.1269
13650W        W27064   0.151   4.344   4.859 -0.0147 -0.1659  0.3889
13651W        W27065  17.157   1.736   4.844 -0.0626 -0.1099 -0.0850
13652W        W27066   0.343  12.078   3.059 -0.6053 -0.1751 -0.2287
13653W        W27067  10.769  17.970   1.846  0.2521 -0.1459  0.2020
13654W        W27068  15.649  17.001  13.533 -0.4088 -0.2211  0.1543
13655W        W27069  11.673   0.348   2.433  0.1020  0.2162  0.0679
13656W        W27070  14.960   2.218  11.153  0.0294  0.1688  0.0935
13657W        W27071   6.767  17.129  13.753  0.3984 -0.2030 -0.0333
13658W        W27072  15.512  11.667  14.911  0.0563  0.2822 -0.0238
13659W        W27073   7.889  14.467   4.871  0.2213 -0.3242  0.1110
13660W        W27074   9.399  14.314   4.893 -0.0531  0.2381  0.0162
13661W        W27075  16.885  16.798  14.605  0.0395  0.0765 -0.0465
13662W        W27076   3.872  12.479  14.359 -0.2284 -0.0012  0.1257
13663W        W27077  17.595   9.359   2.296 -0.1340 -0.0756 -0.0597
13664W        W27078   2.561   1.907   1.278  0.1423  0.0334 -0.1343
13665W        W27079   4.412   3.155  16.317  0.1790  0.1825  0.1450
13666W        W27080  12.945   4.481  14.144 -0.2996 -0.0647 -0.0678
13667W        W27081   1.023   3.535   5.722 -0.1176 -0.0348 -0.1160
13668W        W27082  13.420  16.426  12.414 -0.5478 -0.1287 -0.1508
13669W        W27083   3.346  11.821  11.187  0.2246  0.1755 -0.0630
13670W        W27084  15.077   4.553   2.841  0.0300 -0.0604  0.0353
13671W        W27085   3.487  14.708  16.647 -0.1786  0.3295  0.1718
13672W        W27086   0.438   7.394  10.824  0.1938  0.0344 -0.1440
13673W        W27087   4.746   9.562   1.925  0.0311  0.1305  0.2817
13674W        W27088   1.650   0.870   5.414  0.2627  0.3165 -0.0622
13675W        W27089   7.274  13.488  11.445 -0.0011  0.0016  0.0652
13676W        W27090  12.504   8.966   4.838  0.2813  0.4442  0.1696
13677W        W27091  17.222  11.494  12.968  0.1440 -0.2273 -0.2494
13678W        W27092   8.790  14.063  11.711 -0.1343  0.1250 -0.0919
13679W        W27093   7.093  15.253  16.220  0.1178 -0.1503  0.1481
13680W        W27094  11.467   5.790   2.839 -0.4368  0.2253  0.0615
13681W        W27095   3.978  16.279   1.603 -0.0241  0.0797  0.3014
13682W        W27096  14.508  10.253   9.999  0.0416  0.1563  0.3479
13683W        W27097  16.374   9.914  11.107 -0.0642  0.1104  0.3358
13684W        W27098   6.177  14.080  10.604 -0.1825 -0.3014  0.0072
13685W        W27099  11.709   5.661  15.645  0.0081  0.1644 -0.2018
13686W        W27100   8.652   7.591   4.918  0.2563  0.1957  0.2328
13687W        W27101   8.466   7.828   3.582 -0.1632 -0.2934 -0.2198
13688W        W27102   7.633  14.257  12.059  0.4239 -0.1197  0.2173
13689W        W27103  11.486   5.281   4.333 -0.2623  0.0891  0.1429
13690W        W27104   9.827   1.875  13.167  0.2194  0.0032 -0.1605
13691W        W27105  14.317  16.736   1.691 -0.0436  0.2984  0.0741
13692W        W27106   8.120   2.843   1.105  0.0048  0.0820 -0.0401
13693W        W27107   8.184   2.355  15.608 -0.1409  0.2009 -0.1404
13694W        W27108  17.932  13.240  12.047  0.2308 -0.2347 -0.0455
13695W        W27109  17.587  13.573  12.266 -0.0099 -0.2087  0.1070
13696W        W27110   2.233   2.633   2.562 -0.1057 -0.0329 -0.1451
13697W        W27111  14.512  15.239  16.555  0.0900  0.0616 -0.4232
13698W        W27112   7.817   7.768  11.448 -0.0185 -0.1293  0.3565
13699W        W27113  12.512   3.195  12.717 -0.1419 -0.3362 -0.1398
13700W        W27114   5.662  11.093   4.731  0.4322  0.0625 -0.0746
13701W        W27115  14.754  12.530   2.500 -0.2944  0.1409  0.1361
13702W        W27116  13.401   9.345   4.631  0.0018  0.4317 -0.1126
13703W        W27117  10.309  13.682   4.137 -0.3811 -0.0231  0.0587
13704W        W27118   8.736  17.322  11.261 -0.0489 -0.3355 -0.1106
13705W        W27119   9.231   7.436  12.712 -0.2794  0.1699  0.1884
13706W        W27120   2.375   0.615  13.674 -0.1639 -0.0232 -0.2559
13707W        W27121  17.538  14.896  14.235  0.1827 -0.0986 -0.3534
13708W        W27122  16.241   7.136  14.879 -0.3841  0.0273 -0.0597
13709W        W27123   7.417  14.072   0.551  0.0115 -0.2984  0.1439
13710W        W27124   3.266  16.031  16.156  0.2154  0.2278  0.1319
13711W        W27125   5.621   8.482  11.574  0.3194 -0.2191  0.0498
13712W        W27126   5.947   7.983   3.310  0.0031 -0.2249 -0.0088
13713W        W27127  10.657  11.526  14.481 -0.3704  0.2699 -0.0316
13714W        W27128   4.091   4.554   5.272  0.2191  0.0835  0.0594
13715W        W27129  14.486   3.377  15.895 -0.0978  0.0081 -0.2992
13716W        W27130   1.251   3.792  13.370 -0.0380 -0.1025  0.2250
13717W        W27131  14.609   7.890   4.940 -0.1254 -0.1594 -0.0547
13718W        W27132   8.525  10.210  15.336 -0.0477  0.4468  0.0794
13719W        W27133   6.162   6.192  16.252  0.2394 -0.0704  0.1295
13720W        W27134   3.796   5.112  13.011 -0.2073  0.2578 -0.1009
13721W        W27135  15.952  14.564   2.366 -0.0984  0.0743 -0.0591
13722W        W27136   7.910   4.842   2.904  0.1910  0.1003  0.1418
13723W        W27137  16.634   7.927  11.272  0.2299  0.0180  0.4012
13724W        W27138  11.052  17.505   9.731 -0.3231 -0.2339  0.0982
13725W        W27139  10.139  11.671  12.811 -0.4233 -0.0983  0.0184
13726W        W27140  12.360   0.581   2.837 -0.3427  0.1154  0.3323
13727W        W27141   3.048  14.879  13.474  0.0269 -0.3238 -0.0603
13728W        W27142  16.177  17.672  12.924 -0.5106 -0.0545  0.0294
13729W        W27143   1.046  10.104  11.755  0.1160  0.2256 -0.0433
13730W        W27144  13.155  17.335  11.622 -0.2950 -0.4442  0.1773
13731W        W27145  14.020   6.750  14.985 -0.0551 -0.2190 -0.0779
13732W        W27146   6.550   3.453   1.423  0.2526 -0.2888 -0.0412
13733W        W27147  16.488   8.427  11.348 -0.1746  0.1895 -0.1573
13734W        W27148   3.448  14.565   6.343 -0.1345  0.0794 -0.0780
13735W        W27149  16.782   0.929   2.245  0.0641 -0.3211 -0.2532
13736W        W27150  15.742   0.062  13.846 -0.1279  0.0933  0.1766
13737W        W27151   5.216  12.442   3.158 -0.3801  0.0298  0.0068
13738W        W27152  10.436  14.168  10.754  0.2490 -0.0336 -0.4546
13739W        W27153   5.808  12.699   5.414 -0.1555 -0.0035 -0.3298
13740W        W27154   9.590  12.127  14.815 -0.2678 -0.1585  0.1551
13741W        W27155   3.873   3.142  14.122  0.2757  0.1719  0.0673
13742W        W27156   5.703   1.746   1.852  0.0616  0.0678  0.0004
13743W        W27157  17.244   3.814   0.854  0.1148 -0.4203 -0.0375
13744W        W27158  14.127   9.395  15.053 -0.2701  0.0101  0.2393
13745W        W27159   1.857   9.701  16.108  0.1200 -0.3041  0.0554
13746W        W27160   7.601  14.124  15.275 -0.2743 -0.0994 -0.1182
13747W        W27161  13.657  15.796   5.204 -0.0131  0.2928  0.0538
13748W        W27162   6.226   7.816   4.664  0.3747 -0.1173 -0.1389
13749W        W27163   3.622   7.006   3.079  0.2488  0.1257 -0.1055
13750W        W27164   5.078   7.165  15.086  0.2086 -0.2153  0.0637
13751W        W27165  17.399   0.521  15.741  0.0288 -0.1584 -0.1175
13752W        W27166   0.802   8.062   0.224 -0.1645 -0.0399 -0.0357
13753W        W27167   0.155  16.139  16.298 -0.2236  0.0337  0.1870
13754W        W27168   2.080  12.915   2.003  0.2139 -0.0291  0.0499
13755W        W27169   4.036   0.242  15.148 -0.1928 -0.0012 -0.0124
13756W        W27170   3.197   2.560   6.540  0.1561 -0.1609 -0.1807
13757W        W27171  14.658   1.653  15.495 -0.1730 -0.2403  0.0141
13758W        W27172  15.780   2.466   3.640 -0.0025  0.0859 -0.2420
13759W        W27173   7.198   8.203  11.528  0.2457  0.0829  0.0831
13760W        W27174  17.933   0.412   1.274  0.1806  0.0070 -0.1234
13761W        W27175  12.332   6.827  16.549 -0.2626 -0.2348 -0.1644
13762W        W27176   1.688   9.342   3.249 -0.0148  0.1952 -0.0563
13763W        W27177  11.017   9.892  13.737  0.1638 -0.0168  0.1186
13764W        W27178  16.145   2.852   6.024  0.1111  0.0277  0.2489
13765W        W27179   6.873  17.466   5.412  0.1466 -0.1752 -0.1556
13766W        W27180   6.995   8.831   1.079  0.0108  0.1164  0.3059
13767W        W27181  17.665  16.680  15.795 -0.0945  0.2783 -0.2231
13768W        W27182  12.555   0.800   2.042  0.2993 -0.2757 -0.3310
13769W        W27183  14.923  16.223   5.355  0.2233 -0.0617  0.1954
13770W        W27184   1.205  11.727  13.165 -0.1146  0.4009  0.3852
13771W        W27185   2.646  16.845  11.796 -0.1775  0.2738 -0.0620
13772W        W27186   6.159   1.165  11.419 -0.0319 -0.0528  0.0471
13773W        W27187   5.049   2.801   3.249  0.5408  0.0980 -0.1416
13774W        W27188   4.270   1.043   2.059 -0.0778  0.1887  0.1773
13775W        W27189  13.186   3.247   1.986 -0.0019 -0.1954 -0.0004
13776W        W27190  10.999  13.058  15.692 -0.1186  0.1108 -0.1770
13777W        W27191  10.535   2.101  16.202 -0.0754 -0.1720 -0.0578
13778W        W27192   4.208  10.520  15.130  0.0255 -0.0758 -0.0667
13779W        W27193   3.804  16.599  14.605  0.0909  0.0330  0.2229
13780W        W27194   5.313   0.359   3.907 -0.2407 -0.0931 -0.3101
13781W        W27195  13.463  13.353   1.679  0.2260 -0.0776 -0.0741
13782W        W27196   8.036  16.435   3.630  0.0866  0.0514  0.0836
13783W        W27197   4.470   6.808  10.934  0.0784 -0.1731  0.0183
13784W        W27198   8.035   2.107   4.601  0.0175 -0.0478  0.0433
13785W        W27199  10.391   1.947  13.943 -0.1774 -0.2059 -0.2342
13786W        W27200   6.190   9.961  12.538  0.0971  0.0443  0.1479
13787W        W27201  10.452  10.100  16.314  0.0305  0.0821 -0.2349
13788W        W27202  14.497   1.689  15.948  0.1864  0.1530 -0.0053
13789W        W27203  13.772   3.094   1.023  0.0065 -0.1000  0.2299
13790W        W27204   6.825   1.941  15.023  0.0188  0.1668 -0.1630
13791W        W27205   4.256  17.846   1.000  0.2587 -0.0407  0.0142
13792W        W27206   5.819   1.261   0.106  0.0948  0.3915  0.1438
13793W        W27207  14.728  12.447   0.643 -0.2388 -0.1129 -0.0974
13794W        W27208   9.804  13.217   0.781  0.0619  0.1942  0.1355
13795W        W27209   7.123  11.927  12.402 -0.0663 -0.1210  0.0929
13796W        W27210   6.885  15.913  15.228  0.1931  0.1274 -0.1861
13797W        W27211  15.453   7.082  12.324 -0.0045 -0.0239  0.0056
13798W        W27212   1.985  15.688  10.696 -0.3350  0.3275  0.2031
13799W        W27213   6.326   0.390   1.433 -0.0813 -0.1072 -0.0229
13800W        W27214   9.187   9.713  12.870  0.2173 -0.0940  0.5026
13801W        W27215  17.238  14.099   2.536 -0.1626  0.0027  0.0088
13802W        W27216   1.573   5.359   0.533  0.0636 -0.1289 -0.1600
13803W        W27217   9.720  10.138   0.687  0.1161  0.1165 -0.2165
13804W        W27218  10.917   0.069   0.776  0.0927 -0.0464 -0.0733
13805W        W27219   0.922   1.272  12.329 -0.0810 -0.0612  0.2834
13806W        W27220  13.988  11.894  16.375  0.2190 -0.2170 -0.1359
13807W        W27221   8.155   3.885   1.061 -0.1194 -0.2427  0.2781
13808W        W27222   9.173  17.763   0.018  0.0632 -0.3334  0.0499
13809W        W27223   1.791   2.447   5.555 -0.0747  0.0080 -0.0967
13810W        W27224   2.688   4.273   1.635 -0.2932  0.0619  0.1705
13811W        W27225   1.293  16.538   3.547  0.0011  0.2368  0.0815
13812W        W27226   6.227   3.003  14.743  0.2201 -0.0044  0.1539
13813W        W27227  16.581  16.281   5.750 -0.0743 -0.1584  0.1769
13814W        W27228   4.089  16.705   2.632 -0.1288 -0.2945  0.0027
13815W        W27229   0.755   4.018  15.426 -0.2069 -0.1740 -0.0016
13816W        W27230   3.611  14.841  15.314 -0.0013 -0.0997  0.0554
13817W        W27231   9.800  10.522   3.419  0.0340  0.1624 -0.1155
13818W        W27232  13.477  15.480  13.588  0.1560 -0.1291 -0.0568
13819W        W27233  12.387  12.779   5.448  0.1228  0.3524  0.0171
13820W        W27234   8.615  12.478  11.642 -0.0290 -0.1583  0.1765
13821W        W27235   7.323   3.529  16.462  0.2817  0.0266 -0.1156
13822W        W27236  16.312  14.201   3.263  0.4300  0.0323  0.2113
13823W        W27237   9.979   5.212   1.532 -0.1700 -0.1038  0.3620
13824W        W27238  17.971  15.649   5.586  0.1488 -0.0627 -0.0297
13825W        W27239   8.664  10.294   4.480  0.0318 -0.2936 -0.0964
13826W        W27240   6.332  16.072  14.532  0.1605  0.3547  0.1459
13827W        W27241   8.153  13.145  15.346 -0.2914  0.1391  0.1029
13828W        W27242  10.803  10.909  13.489 -0.4271 -0.0056 -0.5104
13829W        W27243   6.727  12.571  10.743 -0.1339 -0.4773 -0.0778
13830W        W27244  12.168  12.493  15.375  0.1698 -0.2076  0.1305
13831W        W27245   9.168   4.688   2.913 -0.0215  0.2949  0.2862
13832W        W27246  13.429  10.624  14.832  0.0602  0.2376  0.0863
13833W        W27247   2.886   5.976  15.141 -0.2915 -0.0043  0.1934
13834W        W27248   4.475  13.851   2.849 -0.0792  0.3897  0.2797
13835W        W27249  13.133   2.137   3.641  0.2481  0.1827  0.3785
13836W        W27250   9.927   8.078   0.506  0.0466 -0.1558  0.0710
13837W        W27251   4.864   5.261   3.690  0.2149 -0.1362 -0.1323
13838W        W27252   2.470   0.155   4.816  0.1604  0.1618 -0.0366
13839W        W27253   1.948   0.408   3.723  0.2245  0.1518  0.0098
13840W        W27254   9.200   2.688   1.453  0.0605 -0.0183  0.2806
13841W        W27255  16.739   3.012   1.330  0.1192 -0.0703  0.0901
13842W        W27256   7.952  14.825   1.554  0.0501  0.2734  0.0554
13843W        W27257   8.157   1.448   5.696 -0.0372 -0.4056  0.2709
13844W        W27258   1.640   8.976  11.036 -0.1997  0.2208 -0.4619
13845W        W27259   4.090  17.872   6.065 -0.0025  0.1777 -0.0427
13846W        W27260  16.895  13.799   2.707  0.2363  0.0665  0.1005
13847W        W27261   8.080   0.886  14.403 -0.1398 -0.0793 -0.1456
13848W        W27262  16.230  17.179  14.028  0.2051 -0.1200  0.0746
13849W        W27263   6.764  11.102  12.494 -0.1886 -0.1539 -0.0338
13850W        W27264   4.630   1.545   4.967 -0.0268 -0.1947  0.0388
13851W        W27265   1.062   5.291   0.627  0.0035 -0.1931 -0.1588
13852W        W27266  13.393   5.019   3.874 -0.1592 -0.0259  0.0070
13853W        W27267   5.183   1.258  11.648  0.4017 -0.0627 -0.1454
13854W        W27268  14.557  13.675  15.014  0.1450  0.1647  0.0752
13855W        W27269  14.348   5.689   4.906  0.0991 -0.0463  0.2404
13856W        W27270   5.622  10.970  10.884 -0.1681 -0.1423 -0.3128
13857W        W27271   3.776  12.655  15.475  0.0376 -0.0229  0.3127
13858W        W27272   5.530   5.608  12.770  0.0855  0.2059  0.1375
13859W        W27273  12.081  10.587  11.027 -0.4023  0.1947  0.1135
13860W        W27274   4.389   8.905   5.469 -0.0011  0.2754  0.0041
13861W        W27275  13.762   7.788   4.443  0.3227  0.0469  0.0240
13862W        W27276   2.820   7.570  10.356 -0.0854 -0.2498  0.1000
13863W        W27277  14.089  15.587   4.095 -0.1008 -0.0612 -0.4916
13864W        W27278  11.388  11.512  15.127  0.1159  0.1355 -0.1324
13865W        W27279   3.144   9.660   0.372 -0.0944 -0.0514 -0.3533
13866W        W27280   4.626  13.606   0.392  0.0237  0.0988 -0.0571
13867W        W27281  11.764   3.045   4.103 -0.1616 -0.2842  0.1199
13868W        W27282  13.311   3.854  15.092  0.0741  0.1727  0.3090
13869W        W27283   3.540  16.172  11.403  0.1746 -0.0835 -0.0594
13870W        W27284   4.085  10.947   4.933  0.2786  0.1625  0.0515
13871W        W27285   4.430   2.051  14.704 -0.0178  0.2696 -0.1889
13872W        W27286  12.703  13.821  12.025  0.2748 -0.0236  0.0035
13873W        W27287  17.979   9.940  13.775  0.0345  0.0200  0.1190
13874W        W27288  17.499  17.347  11.599  0.0999 -0.1791 -0.0394
13875W        W27289   3.425   9.612  12.408  0.0264  0.2285  0.2855
13876W        W27290  13.610  12.102  15.974 -0.1430  0.2686 -0.3076
13877W        W27291  15.430   4.747   2.477  0.0241 -0.0801 -0.1330
13878W        W27292  11.652   8.174  13.286  0.0827 -0.1931 -0.1883
13879W        W27293   2.054  16.351  12.290  0.0219  0.2873  0.0544
13880W        W27294   6.467  11.582   4.965 -0.5017 -0.0777 -0.3012
13881W        W27295   8.672  12.174  11.238 -0.2283 -0.0699  0.0201
13882W        W27296  13.581   5.409   3.607  0.3007  0.2640  0.1751
13883W        W27297   6.664   2.776   0.205 -0.0328  0.3473 -0.3441
13884W        W27298  12.527   4.779   3.053  0.0123  0.0640 -0.3580
13885W        W27299   0.461   9.510   2.505 -0.0699 -0.1015 -0.1155
13886W        W27300  17.815   1.284  12.740  0.0745 -0.0897 -0.1028
13887W        W27301   6.420  12.530   0.269  0.0465  0.0117 -0.0014
13888W        W27302   5.071   5.670   0.662  0.0874  0.1178  0.0389
13889W        W27303  11.413   4.416  10.932 -0.0350  0.2912  0.1783
13890W        W27304  11.942   8.897  12.185  0.0539  0.1755  0.0169
13891W        W27305  10.219   1.872   0.772  0.1048 -0.0560 -0.0775
13892W        W27306  15.302   1.191   6.899 -0.1451 -0.1578 -0.0879
13893W        W27307   3.821  16.484   1.083  0.0243  0.2996  0.0894
13894W        W27308   6.662   5.074  12.436  0.0886 -0.2229  0.1562
13895W        W27309  11.582  12.841  16.421 -0.2504  0.0598  0.0559
13896W        W27310  10.784   1.838   0.810  0.1109 -0.0827 -0.3229
13897W        W27311   7.116  10.645  12.454 -0.0419 -0.2190 -0.0840
13898W        W27312  10.632   9.050   2.543  0.0478 -0.0720 -0.1495
13899W        W27313   9.512  10.011   2.690 -0.2805  0.1288 -0.2960
13900W        W27314  16.978   3.438  14.603 -0.0308  0.0201  0.0046
13901W        W27315  15.509   3.275   5.910  0.1819  0.0408  0.0188
13902W        W27316   7.325   7.208   5.267 -0.1280  0.3249 -0.0519
13903W        W27317  15.655   3.720   0.685  0.0065 -0.0033  0.0368
13904W        W27318  13.987  16.182   5.212  0.0579  0.0174  0.0789
13905W        W27319  17.159   3.823  14.318 -0.1416  0.4485  0.1463
13906W        W27320   0.700   7.856  10.559 -0.1706  0.0412  0.0681
13907W        W27321  10.692   5.101   3.651 -0.0660  0.0627  0.2527
13908W        W27322  12.162   4.699   4.233  0.0990 -0.0714  0.1254
13909W        W27323   9.091   0.462  12.240 -0.2254 -0.1224  0.1638
13910W        W27324   3.808   3.425   5.242 -0.1785  0.1055 -0.2831
13911W        W27325   2.500   2.474  15.623  0.1380 -0.1641 -0.0609
13912W        W27326   8.268   5.286  16.419  0.1111  0.0314 -0.1793
13913W        W27327  17.965  13.497  13.543  0.0967 -0.1423  0.2228
13914W        W27328  17.903  17.391   2.896 -0.2501  0.1061  0.0565
13915W        W27329  13.919  16.558  14.471 -0.1394 -0.0249  0.1524
13916W        W27330   4.361   1.823  15.240 -0.1480 -0.1089 -0.3275
13917W        W27331   3.731   3.386   3.996  0.1177  0.1221  0.2766
13918W        W27332  17.248  15.618   1.465  0.2310 -0.1020 -0.1412
13919W        W27333  13.421   7.906  11.841  0.1413  0.0333  0.1755
13920W        W27334  10.544   6.808   4.277 -0.2239  0.0855 -0.3193
13921W        W27335  16.414  11.523  10.791 -0.1687 -0.1826  0.0737
13922W        W27336  12.276  10.287  14.276 -0.3196 -0.2605  0.3412
13923W        W27337   2.985   7.653  13.123  0.0293 -0.3779 -0.2942
13924W        W27338  17.620   9.358  11.405 -0.0133  0.0192 -0.3380
13925W        W27339   3.267   9.781  16.386  0.2442  0.0263  0.3829
13926W        W27340  16.143  12.018  11.036  0.0096  0.1451  0.2863
13927W        W27341   3.920   8.500   1.934 -0.1682  0.3344  0.1419
13928W        W27342   3.243  11.645   2.471  0.1916  0.0944 -0.2483
13929W        W27343   5.924   1.917  11.183 -0.1970 -0.0924 -0.0868
13930W        W27344  12.466   9.288  15.657  0.1178  0.1294 -0.0802
13931W        W27345  12.661  15.723  13.665 -0.0074 -0.0918  0.0295
13932W        W27346   7.437   0.667  11.183  0.2477  0.0258 -0.0688
13933W        W27347  11.581   8.871  14.605 -0.2805  0.2551 -0.0243
13934W        W27348   3.633   6.849   3.612  0.1075  0.2702  0.1866
13935W        W27349   7.497  17.525  15.353 -0.0208  0.0564  0.0833
13936W        W27350   2.225   9.677  15.245 -0.0782  0.0839  0.1125
13937W        W27351  15.659   6.513  13.481  0.1367  0.2810 -0.0392
13938W        W27352   0.552   3.303   4.719 -0.0233  0.1040  0.0905
13939W        W27353  15.275  14.196  13.078  0.0774 -0.0384 -0.2160
13940W        W27354  10.999  10.362  13.686  0.0345 -0.2196  0.3237
13941W        W27355   2.579   1.381   0.170 -0.1629  0.3161  0.1055
13942W        W27356   4.033   1.535  13.316 -0.0520  0.5271  0.2614
13943W        W27357  16.595   9.353   3.108 -0.0365 -0.1206  0.1515
13944W        W27358   1.102  15.184  13.370  0.0003  0.0055  0.0856
13945W        W27359  11.606  16.849   1.991 -0.0665  0.0116 -0.0333
13946W        W27360  13.563  13.848  15.155  0.0562  0.0953  0.1650
13947W        W27361   5.640  10.013  10.469 -0.0697 -0.0842 -0.1389
13948W        W27362   7.490   8.658   0.844 -0.0244 -0.1176  0.0935
13949W        W27363  13.287   1.888   6.485  0.0592 -0.0309  0.0063
13950W        W27364   7.063   2.057   3.701 -0.0069 -0.2264  0.0111
13951W        W27365  15.367   1.492   0.955 -0.0691 -0.0058  0.2909
13952W        W27366  17.149  13.552  15.222 -0.1087 -0.1630 -0.0998
13953W        W27367  12.670   4.949   5.488  0.2785 -0.2139 -0.1819
13954W        W27368   2.968   3.346   1.140  0.2663 -0.0703  0.0315
13955W        W27369   9.602   3.177  10.684 -0.1517  0.4095 -0.1246
13956W        W27370   2.061  10.480   0.593 -0.4259 -0.0172 -0.0706
13957W        W27371   1.130   3.096   5.448 -0.3849 -0.0373 -0.4410
13958W        W27372   7.865  13.124  12.897  0.3563  0.0990 -0.0963
13959W        W27373   6.226   3.312  12.501  0.0339 -0.1462  0.1861
13960W        W27374   1.692   8.114  16.219  0.1088  0.1783 -0.0096
13961W        W27375   9.059   2.760   0.131  0.1452 -0.1268  0.2197
13962W        W27376   9.703   3.630   3.105  0.4047  0.3284 -0.1128
13963W        W27377   9.237   4.017  13.346  0.0695 -0.0195 -0.0778
13964W        W27378  14.397   7.918  11.847 -0.1198  0.0027 -0.1775
13965W        W27379  15.326   6.730   3.704  0.0902  0.1760 -0.0962
13966W        W27380   1.919  16.252  13.909  0.0306 -0.2191  0.1596
13967W        W27381   0.611   7.166   4.997  0.1173 -0.1349  0.1785
13968W        W27382  15.295   4.264   2.298 -0.1878  0.0950  0.1666
13969W        W27383  15.171  10.757   3.417 -0.1751 -0.1088 -0.0700
13970W        W27384   9.857  11.009   1.232 -0.2117  0.1168  0.2347
13971W        W27385   4.538   7.148  13.768  0.0427 -0.1956 -0.0437
13972W        W27386  16.355  16.906   3.248  0.0069 -0.0664 -0.0724
13973W        W27387  12.349  17.264   5.606  0.2531  0.0568 -0.0832
13974W        W27388   1.369  17.237   1.362 -0.1992  0.0598 -0.1930
13975W        W27389  11.550   2.158   5.401 -0.4175  0.2160  0.0049
13976W        W27390  13.348   2.118   0.344 -0.1061  0.0922 -0.0925
13977W        W27391   9.453   6.100   4.546 -0.0002 -0.0555  0.2987
13978W        W27392   2.327   8.915  16.505  0.0328  0.0099 -0.1859
13979W        W27393  10.465  17.164   1.397 -0.0830  0.4007  0.1317
13980W        W27394  18.010   2.612   5.475 -0.2501 -0.0429  0.0543
13981W        W27395   2.933  16.152  13.643  0.1800 -0.0535  0.3385
13982W        W27396   0.455   6.690  11.274 -0.1290  0.1516  0.0925
13983W        W27397  14.420  13.345  16.700 -0.2113 -0.0790 -0.0405
13984W        W27398   8.278  11.436  15.654  0.1435 -0.0164  0.0811
13985W        W27399  13.269  13.737  14.715  0.1913 -0.0078  0.3736
13986W        W27400   9.502  10.851   3.696 -0.0514 -0.2436  0.1033
13987W        W27401   9.602   4.122  14.883  0.1099 -0.0838  0.0557
13988W        W27402  12.928  17.968  12.485 -0.0920  0.0679 -0.0575
13989W        W27403   0.153  16.597  11.776 -0.2558  0.0475  0.0662
13990W        W27404  17.102   6.923   3.974 -0.0364 -0.1395 -0.2979
13991W        W27405  10.007  16.851   0.539  0.0430  0.0312 -0.0492
13992W        W27406   5.285  15.589   3.931  0.2277 -0.0254  0.0632
13993W        W27407   8.408   0.090   4.380 -0.0832  0.0173 -0.3296
13994W        W27408   1.262   2.454   4.008 -0.0848 -0.1379 -0.0906
13995W        W27409  14.681  13.672   2.718 -0.1289  0.0611 -0.0710
13996W        W27410  14.247   4.090   1.462 -0.0085  0.3037 -0.1555
13997W        W27411   3.914  15.035  13.396  0.0212  0.0056  0.0714
13998W        W27412  15.493  10.486  13.405 -0.2799  0.0220  0.1502
13999W        W27413   4.975  16.874  15.953 -0.1063  0.0716  0.1173
14000W        W27414  10.193   5.914  16.517 -0.0666  0.2951 -0.3148
14001W        W27415  12.118  16.546  14.691 -0.2481 -0.0880  0.0874
14002W        W27416   4.697  10.871  14.374  0.2955  0.1696  0.0121
14003W        W27417   1.262  14.856  16.286  0.0663  0.0686 -0.1732
14004W        W27418  15.304   4.976  14.409  0.0370  0.1747  0.2017
14005W        W27419  16.523  13.746   3.070  0.1333 -0.2148  0.1953
14006W        W27420  16.713   4.381   5.364 -0.1110  0.0145  0.1829
14007W        W27421  11.503   2.135   0.578 -0.1831  0.0880  0.0531
14008W        W27422  14.525  17.606  15.579 -0.1943 -0.0500  0.2062
14009W        W27423   7.101  11.973  15.664 -0.1003 -0.1170  0.0464
14010W        W27424   6.601  15.762   6.217 -0.1300 -0.4804  0.3540
14011W        W27425  14.161  12.284  16.150 -0.2467 -0.0414  0.0439
14012W        W27426   8.924   5.479   5.001 -0.2603 -0.2971 -0.0936
14013W        W27427  12.579   7.524  10.968  0.1184 -0.1061 -0.0699
14014W        W27428   5.763  13.765  11.405  0.1604 -0.0447  0.0578
14015W        W27429  18.030   3.241  11.279  0.2122 -0.2591  0.2530
14016W        W27430   7.970   9.397  16.048 -0.1333 -0.1404 -0.4254
14017W        W27431   2.638   2.809   3.506 -0.0530  0.0146  0.2822
14018W        W27432  13.673   3.445   1.695 -0.1996 -0.4346 -0.0199
14019W        W27433  11.938   0.842  12.671  0.0157  0.2366  0.2264
14020W        W27434   4.008  17.137   2.204  0.4033  0.1066 -0.1185
14021W        W27435   0.830   8.926  14.167  0.1105 -0.1362 -0.1456
14022W        W27436   1.278   4.188   2.415 -0.0950 -0.0307 -0.2091
14023W        W27437  10.544   3.441  12.354 -0.2144  0.0590  0.1694
14024W        W27438   8.434   0.054  11.798  0.2613 -0.1608  0.0669
14025W        W27439   6.667  15.107  12.799  0.0565 -0.1062 -0.1215
14026W        W27440  16.704  10.660  10.962  0.1811 -0.2402  0.1769
14027W        W27441  15.082   5.141   3.900  0.0249  0.3002 -0.0530
14028W        W27442   8.572  16.898   0.001 -0.0098 -0.0217 -0.0732
14029W        W27443   8.953  11.438   2.057  0.2834  0.4203  0.0098
14030W        W27444  16.803   4.738   3.045 -0.2096 -0.0291  0.0935
14031W        W27445  11.563  14.281   1.808 -0.4225  0.1328 -0.0166
14032W        W27446   2.385   2.074  11.054 -0.1076  0.2158  0.0527
14033W        W27447   7.773   8.747   3.743  0.1887 -0.3393 -0.1675
14034W        W27448   9.704  16.723   4.363 -0.0963 -0.1859  0.0132
14035W        W27449   0.493   9.884  13.852 -0.1812  0.1217  0.0812
14036W        W27450  10.082  11.946   1.056 -0.0741  0.0197 -0.0991
14037W        W27451  11.180  13.172  16.502  0.1892  0.0841  0.0594
14038W        W27452   4.140   1.670   3.726  0.1222 -0.1287 -0.2965
14039W        W27453  13.278  13.245  15.624 -0.0270  0.0922 -0.0546
14040W        W27454   2.446   8.806  11.000 -0.4047  0.1816 -0.2854
14041W        W27455   4.486   9.591   0.656  0.0503 -0.0422  0.0176
14042W        W27456   2.971   1.736   0.601 -0.0727 -0.2147  0.1642
14043W        W27457   6.082  12.633  10.021  0.0768  0.2561 -0.1293
14044W        W27458  15.115  17.500  13.075  0.1688 -0.2545  0.0733
14045W        W27459   6.362  14.729  11.315 -0.0238  0.0270 -0.0635
14046W        W27460   1.388  17.666  12.584  0.1246  0.0536  0.1291
14047W        W27461  15.125   4.866  12.653  0.2965  0.1215 -0.3155
14048W        W27462   7.719   7.471   3.969 -0.2033 -0.2405  0.2385
14049W        W27463   2.375   7.402   3.790 -0.3292 -0.1473  0.0828
14050W        W27464   3.119  12.524  12.746 -0.1173  0.2350 -0.1890
14051W        W27465  11.439  17.867  15.689  0.1290  0.1892 -0.1423
14052W        W27466   8.406  11.094   4.049 -0.2238  0.0320 -0.2900
14053W        W27467   1.197   5.964   2.642 -0.0502 -0.1730  0.1109
14054W        W27468   5.726   0.110   1.394 -0.2081  0.1522 -0.3473
14055W        W27469   5.972  17.429  14.650  0.1702 -0.1028 -0.1127
14056W        W27470   7.807  12.242  11.975  0.2419 -0.0196 -0.0590
14057W        W27471  13.815  16.497  15.008  0.0632 -0.3578  0.3081
14058W        W27472  11.684   5.405  10.644  0.1795 -0.3597 -0.1895
14059W        W27473  11.720  12.405  15.530 -0.1337 -0.0156  0.1761
14060W        W27474   1.176   0.684   5.253  0.1141  0.1290 -0.0611
14061W        W27475   7.083   3.082   4.193  0.0239 -0.0211 -0.3538
14062W        W27476  16.643  12.974   1.076 -0.1165  0.0096  0.1918
14063W        W27477   1.342   2.147   5.861  0.0697 -0.0917  0.1041
14064W        W27478  14.027   0.767  16.300 -0.1375  0.2914  0.0574
14065W        W27479   2.246  12.000   2.437 -0.1683 -0.2261  0.0442
14066W        W27480  13.532   4.687  14.518  0.1230  0.1069  0.1684
14067W        W27481   3.335   8.179   5.284  0.1151  0.0221 -0.0716
14068W        W27482   7.883   9.660   4.785 -0.0386  0.1989  0.0211
14069W        W27483   2.212   8.664   2.917  0.0614 -0.0902 -0.0229
14070W        W27484   8.385   5.115  11.270 -0.3559 -0.1476  0.0252
14071W        W27485  14.843   8.322   6.183  0.2230 -0.2184  0.2698
14072W        W27486   4.679  11.302   5.376  0.0119 -0.1171 -0.0430
14073W        W27487   1.548  15.076  13.166 -0.0793 -0.0950 -0.0157
14074W        W27488   7.577   0.883  10.531  0.1875  0.1898  0.1210
14075W        W27489   7.847   6.572   5.438  0.0253  0.0456  0.1833
14076W        W27490   9.226   5.010   5.515  0.1386 -0.0022  0.1441
14077W        W27491   3.309   1.391  15.539 -0.1907 -0.1602 -0.1746
14078W        W27492   0.343   4.054  13.959 -0.0167 -0.0155  0.2555
14079W        W27493  15.022   0.140   1.999 -0.2428  0.0051  0.0996
14080W        W27494  16.386   7.220   4.621  0.0728  0.0826  0.0810
14081W        W27495  15.252  13.931  12.322  0.3245  0.0292  0.0510
14082W        W27496  10.722   6.355   5.532 -0.4360  0.1370  0.0881
14083W        W27497   0.167  12.838   0.867  0.1070 -0.0647  0.0661
14084W        W27498   0.903  13.171  11.949  0.1538  0.0271 -0.0040
14085W        W27499  16.718  15.328  15.367  0.1490 -0.2797 -0.1320
14086W        W27500   0.510   7.818   6.356 -0.1622  0.0535  0.1503
14087W        W27501   8.198  16.507   0.134  0.2911 -0.0882 -0.0624
14088W        W27502  12.151   9.121  13.230 -0.0076  0.2096  0.0524
14089W        W27503   8.657   1.414   0.354 -0.0366 -0.1834  0.2383
14090W        W27504   2.645   4.745   2.275 -0.0252  0.1108 -0.1558
14091W        W27505   4.780  11.341   0.355  0.2696 -0.0257 -0.1778
14092W        W27506  15.304   5.313  10.899  0.1056  0.2139  0.0025
14093W        W27507   9.889  13.252   1.569 -0.2521  0.1422 -0.1554
14094W        W27508   2.796  14.560   1.509 -0.0182  0.1628  0.0363
14095W        W27509  15.192   5.225  14.894 -0.0458 -0.0167 -0.0209
14096W        W27510  17.503   3.200  11.345  0.1551  0.0724 -0.1070
14097W        W27511   0.896  16.556  16.424  0.2229 -0.1838  0.0129
14098W        W27512   6.122   3.897  14.865 -0.1274 -0.0111 -0.0630
14099W        W27513   0.583   1.819   5.503  0.0179 -0.0269  0.0527
14100W        W27514   6.954   7.669  10.888  0.0578  0.1429  0.1219
14101W        W27515   7.399   5.234  10.850 -0.1019  0.0865  0.0378
14102W        W27516  17.857  10.452   2.873 -0.2144  0.1282  0.0435
14103W        W27517   9.853   2.458  15.070 -0.0090  0.1748 -0.0503
14104W        W27518  14.911  10.847   0.789  0.2625  0.2382  0.2912
14105W        W27519   4.371   2.923   2.425  0.0302 -0.2148  0.2267
14106W        W27520   1.616  17.383   4.921  0.1865 -0.0083 -0.0032
14107W        W27521   8.693   5.382   0.062 -0.1722 -0.0968  0.0008
14108W        W27522  17.656   0.872  16.483 -0.2014  0.0259  0.0204
14109W        W27523   6.955  12.751  16.096  0.2959  0.0915 -0.2055
14110W        W27524   4.135   8.504   5.680  0.1654  0.1168  0.2101
14111W        W27525  15.097   2.900  14.867  0.0781 -0.0391  0.0930
14112W        W27526   2.162  17.055   0.720  0.4781 -0.3666  0.3215
14113W        W27527   5.552   6.471  11.197 -0.0309  0.0849  0.0513
14114W        W27528   5.793   0.585  14.048 -0.0634 -0.1568  0.2118
14115W        W27529   7.679   2.293  15.603 -0.2412  0.0179 -0.0117
14116W        W27530  16.809  12.042   5.155 -0.1545  0.2001 -0.1146
14117W        W27531   6.082   6.546   4.870  0.1421  0.0325 -0.1389
14118W        W27532  13.298   3.432   0.877  0.1448 -0.2545 -0.0861
14119W        W27533  13.960  13.654   0.054  0.1734  0.4731  0.1172
14120W        W27534  17.050   2.470   0.097 -0.0708  0.1828 -0.0828
14121W        W27535   4.691   9.267  15.048 -0.0395 -0.0584 -0.1376
14122W        W27536   8.949   5.648   5.547  0.1268 -0.0596 -0.2161
14123W        W27537   9.759  14.663   1.837  0.1562  0.1660  0.0569
14124W        W27538   0.267  15.261  10.176  0.0235 -0.0091 -0.1961
14125W        W27539  16.156   4.368  13.314  0.1325 -0.1519  0.4696
14126W        W27540   4.216   1.254  11.976  0.1142 -0.1032 -0.3300
14127W        W27541  16.181  10.309  15.252  0.0492 -0.1991 -0.3801
14128W        W27542  16.240  11.601  12.378  0.3088  0.1297  0.0544
14129W        W27543   1.710   2.711  13.441  0.1752  0.1671  0.3161
14130W        W27544  10.017  13.024  15.387 -0.0253 -0.3288  0.2423
14131W        W27545   0.933  10.642  16.636 -0.0091 -0.1211  0.0444
14132W        W27546  12.975  18.001  10.920  0.3132  0.0384 -0.3319
14133W        W27547   6.902  11.615   4.675  0.0994  0.0673  0.1476
14134W        W27548   1.450  15.500  15.191  0.0060  0.0845 -0.1812
14135W        W27549   2.852  12.342   1.676  0.1569  0.0156  0.1465
14136W        W27550   3.256   5.000   4.898 -0.2745 -0.2722 -0.2760
14137W        W27551  17.500   2.921  13.616 -0.1972  0.1975 -0.0626
14138W        W27552   0.893  17.885   3.327  0.1360 -0.1524 -0.0212
14139W        W27553   0.706  14.477  11.784 -0.0158 -0.0417 -0.0670
14140W        W27554   8.394  15.027  12.890  0.0835 -0.3532 -0.2430
14141W        W27555   3.482  10.205  11.168 -0.1428  0.0934 -0.2725
14142W        W27556   5.612   5.502   3.107  0.2166  0.0222  0.0254
14143W        W27557  16.914   0.287   4.146  0.2722 -0.2673  0.0746
14144W        W27558  11.469   9.530  15.965 -0.1334 -0.1589 -0.2335
14145W        W27559   3.299  11.275  10.617  0.0706 -0.1595 -0.1796
14146W        W27560  16.466  16.569   6.135  0.0154  0.2084  0.0109
14147W        W27561   0.953   2.981   2.769 -0.0883 -0.2693 -0.0479
14148W        W27562  14.679   8.691  15.048  0.3014  0.0961  0.0053
14149W        W27563   0.993  10.994   2.545 -0.1231 -0.0847 -0.1646
14150W        W27564  14.039   6.458   1.856  0.3587  0.0197  0.2294
14151W        W27565  10.083   7.548  15.136  0.2413  0.0233 -0.0460
14152W        W27566   3.476  11.758  11.750  0.1511 -0.0053  0.0240
14153W        W27567  15.597  13.840  15.792  0.0088  0.0769 -0.0140
14154W        W27568   3.944   9.370  10.177 -0.0843 -0.1736 -0.4170
14155W        W27569   3.341   9.355   3.559 -0.2146  0.0191  0.1873
14156W        W27570  13.573  12.251   2.971  0.4564 -0.1360  0.2514
14157W        W27571  16.345  11.443   3.309 -0.0363  0.2031 -0.1490
14158W        W27572   4.891   2.355   2.090 -0.0564  0.3426 -0.2557
14159W        W27573   8.334  14.844  11.884  0.0647  0.3087 -0.5677
14160W        W27574  10.648  10.170   3.783 -0.0578  0.2297 -0.2157
14161W        W27575  12.294   3.666  12.467 -0.0944  0.1297 -0.1551
14162W        W27576   7.016  14.900  14.049 -0.1389  0.2147 -0.2419
14163W        W27577   4.268  12.261  13.030 -0.2313 -0.0596  0.0168
14164W        W27578   1.064  14.834   4.336 -0.0071 -0.3531 -0.0396
14165W        W27579   8.263  17.104   3.571  0.0455  0.2841 -0.2787
14166W        W27580   3.046   0.060   1.795 -0.1214  0.0189 -0.1329
14167W        W27581   2.711  17.912  14.069  0.5462 -0.1214 -0.1733
14168W        W27582  14.077   2.646  13.985  0.2861 -0.1007  0.2622
14169W        W27583   9.359  17.175   4.656  0.1894  0.4089  0.0429
14170W        W27584  17.380   5.958   4.937 -0.0318 -0.0907  0.0098
14171W        W27585  13.980  12.344  14.225  0.3694 -0.1805  0.0249
14172W        W27586   4.689  14.172  11.903 -0.1669 -0.1968  0.1391
14173W        W27587   2.202  10.282   5.552 -0.0297  0.0527 -0.1190
14174W        W27588   3.594   5.215   6.164 -0.0317  0.1053 -0.0346
14175W        W27589  11.322   1.687   0.220  0.0993 -0.0284  0.3366
14176W        W27590   1.568   2.704   0.353 -0.0554  0.0275  0.1396
14177W        W27591  17.288   0.441  11.452  0.1026 -0.0368 -0.4866
14178W        W27592   6.421   6.240  14.380 -0.0571  0.2556 -0.1598
14179W        W27593   9.962   3.632   4.480  0.1597 -0.2571 -0.1033
14180W        W27594   3.362  15.784   1.197 -0.1019  0.2580 -0.1154
14181W        W27595   7.768  13.810  14.487 -0.1636 -0.1726 -0.1021
14182W        W27596  14.393  16.331   4.783  0.1632  0.1100 -0.1363
14183W        W27597  14.854  14.687  14.395  0.0045  0.3529 -0.0361
14184W        W27598   9.261  17.847  11.602  0.0758 -0.0621  0.0408
14185W        W27599   8.320   3.495   0.772  0.1333 -0.1398 -0.1202
14186W        W27600   0.450   3.574   3.478  0.3444  0.0891 -0.0061
14187W        W27601  14.908   3.708   5.964  0.0339 -0.0128 -0.0300
14188W        W27602   4.752   5.339   0.252  0.0521  0.0562  0.1443
14189W        W27603   4.049  11.292   4.142  0.3071  0.0388  0.1724
14190W        W27604   1.415   7.340   5.698 -0.1734  0.1185  0.1339
14191W        W27605   4.111  17.836   4.463  0.1634 -0.1440 -0.2750
14192W        W27606  16.238  12.815  10.841  0.0366 -0.3947 -0.0237
14193W        W27607  12.840   8.881  14.127  0.2917 -0.3931  0.0037
14194W        W27608  12.572   9.872  14.381 -0.0778 -0.2505  0.0757
14195W        W27609   2.241   1.485   5.714 -0.3487 -0.0221 -0.1020
14196W        W27610   1.466   1.828  15.458  0.0503 -0.0788 -0.0405
14197W        W27611   6.244   2.647   4.499  0.1790 -0.1664  0.0270
14198W        W27612   5.168  16.397   1.508  0.5598 -0.1295  0.0169
14199W        W27613  12.639   0.950  10.899  0.0975  0.0392 -0.2359
14200W        W27614   5.075  14.547   2.281 -0.1244 -0.0138  0.0445
14201W        W27615  14.052   9.425  12.737 -0.1342 -0.1011  0.0781
14202W        W27616   2.449   9.066   1.603 -0.3271 -0.2735  0.3045
14203W        W27617  16.563  10.757   1.033  0.0723 -0.0319  0.0101
14204W        W27618   3.512   3.916   0.623  0.0890  0.0374  0.0370
14205W        W27619   9.271  10.268   0.787  0.0752  0.1325 -0.1309
14206W        W27620  17.755  10.789  15.022 -0.2708 -0.0702  0.2378
14207W        W27621   2.629   8.021  12.295 -0.0382  0.0003 -0.1415
14208W        W27622   9.798   1.872  12.057 -0.1354  0.2126  0.1082
14209W        W27623   5.878   3.152   0.872  0.2444 -0.2752  0.1040
14210W        W27624  16.917   0.243   3.654  0.2142 -0.1346 -0.0250
14211W        W27625  13.289  16.641  16.508  0.1205 -0.0563  0.1056
14212W        W27626   9.507  16.341   9.917  0.0973 -0.0357  0.2304
14213W        W27627   0.813   8.863  12.005 -0.1060  0.2174  0.0185
14214W        W27628  16.096  10.703  11.877  0.0947  0.1297  0.0861
14215W        W27629  18.009  17.931  13.706 -0.2247 -0.0543 -0.0816
14216W        W27630  11.761   5.104   0.181 -0.0708 -0.0156  0.1387
14217W        W27631   9.591   4.602  12.865 -0.0981  0.1074 -0.1726
14218W        W27632  13.391   0.966   5.140  0.2703  0.0751  0.0936
14219W        W27633   2.715  11.663  12.017 -0.2319 -0.1128 -0.2486
14220W        W27634   3.386   8.250  15.520  0.1614 -0.1858 -0.1388
14221W        W27635   6.171  11.376  14.873  0.0223  0.1747 -0.0636
14222W        W27636   6.723  15.692  14.373  0.2149  0.0770 -0.0985
14223W        W27637   5.546   7.201  12.403 -0.1185  0.0237 -0.0770
14224W        W27638   6.286   4.441  12.944 -0.2784  0.1038  0.2189
14225W        W27639  11.456   6.966   1.498  0.1245  0.0220 -0.0438
14226W        W27640   2.465  15.002  14.377  0.0275  0.2808 -0.2707
14227W        W27641   3.000   7.274  15.390  0.0872  0.1320  0.1319
14228W        W27642   9.574   2.627  12.894  0.0930  0.2691  0.0103
14229W        W27643  14.872   6.961  14.987  0.1627 -0.0735 -0.3551
14230W        W27644  14.497  10.271  13.294  0.0059  0.0689 -0.2050
14231W        W27645   6.180   4.838  14.730  0.0587 -0.1419 -0.0055
14232W        W27646   8.131  14.249  12.786  0.3327 -0.2295 -0.0816
14233W        W27647  15.801  16.696  15.681  0.2831 -0.1121  0.0703
14234W        W27648   6.669   3.816  14.807  0.1612 -0.2570  0.0399
14235W        W27649  10.013   9.855  16.151  0.2638 -0.0258 -0.0397
14236W        W27650   9.635   1.521  14.747  0.1508  0.1809  0.1750
14237W        W27651   3.396   7.405  13.149  0.1665  0.0180 -0.2297
14238W        W27652  15.053  17.663   3.451  0.2131  0.3603 -0.2834
14239W        W27653  10.812  14.365  12.484 -0.2684  0.1975  0.2311
14240W        W27654   3.405  12.509   2.789  0.0819  0.1758  0.2935
14241W        W27655  17.365   7.946  14.151  0.3878  0.0807  0.3394
14242W        W27656  14.294   0.021   4.615  0.3510 -0.3668 -0.0167
14243W        W27657  14.923   9.452   0.065  0.0496  0.0633 -0.1731
14244W        W27658   9.795   3.510   1.634  0.4755 -0.1771 -0.0037
14245W        W27659  15.769  17.933   4.487  0.0282 -0.2936 -0.0417
14246W        W27660   9.415  10.122   4.073  0.1449  0.1063 -0.3649
14247W        W27661   4.458  11.710  14.670  0.0687  0.2170  0.1272
14248W        W27662  17.109   2.722   1.321 -0.0111  0.4213  0.0983
14249W        W27663  17.910   5.058  11.131  0.0621 -0.0930  0.0977
14250W        W27664   7.963  11.845   2.919 -0.1356 -0.0050  0.2622
14251W        W27665   9.007   0.465   1.313  0.0465  0.5601  0.0400
14252W        W27666   8.656  15.871  14.032 -0.0736 -0.2974 -0.0487
14253W        W27667   8.914   3.678   5.057  0.0510 -0.0979  0.0109
14254W        W27668  11.338   1.314  13.769 -0.3935 -0.0776  0.0744
14255W        W27669   3.216  12.166   2.381  0.1210 -0.2787 -0.0233
14256W        W27670   4.561  10.411  12.319  0.1509  0.0724  0.0751
14257W        W27671   3.670  16.834  10.689 -0.0847  0.2959 -0.0742
14258W        W27672  11.368   8.029   0.075  0.0941 -0.2481 -0.2010
14259W        W27673   1.959   0.664   3.277 -0.4258 -0.1030 -0.0596
14260W        W27674  12.350   5.288  13.854 -0.1724  0.0645  0.0349
14261W        W27675  17.572   8.667   5.261  0.0298 -0.4619 -0.0031
14262W        W27676   8.512  11.651   5.734  0.1086  0.1144  0.1075
14263W        W27677  10.220  15.360   1.849  0.1175 -0.1248  0.0295
14264W        W27678  10.119  14.017  11.141 -0.4094  0.3036 -0.2641
14265W        W27679  17.318  10.622   0.372  0.0943 -0.0904 -0.1450
14266W        W27680  11.542   8.457  12.858 -0.6417 -0.0926 -0.1314
14267W        W27681   5.820  15.098   0.415  0.3852 -0.0622  0.2865
14268W        W27682  13.000   8.214  15.607  0.0688 -0.0718  0.1064
14269W        W27683  12.559  16.768   5.454  0.0101 -0.3860 -0.0359
14270W        W27684   5.118   5.281  11.506 -0.1785 -0.2281 -0.0264
14271W        W27685  11.203   2.441   1.310 -0.0168 -0.0367  0.1574
14272W        W27686   2.739  13.604   0.071 -0.0937 -0.1167 -0.2503
14273W        W27687  16.087   0.204   4.190  0.0646  0.0005  0.3867
14274W        W27688   7.121  14.314   1.466 -0.0824 -0.1134  0.4766
14275W        W27689   9.079   6.742  12.650 -0.1316 -0.0598 -0.0018
14276W        W27690   5.574  15.178  16.136 -0.1671  0.2335  0.1199
14277W        W27691   5.446   1.583   4.339 -0.0769  0.2759  0.0056
14278W        W27692   9.112   6.869   2.164  0.1067 -0.4198 -0.0339
14279W        W27693   7.479   6.647  14.829 -0.0582 -0.3232  0.0097
14280W        W27694  12.372  13.072  15.411  0.0124 -0.0156 -0.1426
14281W        W27695  14.668  14.929   5.645  0.0805  0.1750 -0.3924
14282W        W27696   3.973   9.718   0.320 -0.0475  0.2051 -0.1166
14283W        W27697   2.989   4.368   2.104 -0.0934 -0.0121 -0.1380
14284W        W27698   4.225   8.847  15.812 -0.2179  0.0755  0.0169
14285W        W27699   5.058   8.894   2.887 -0.2119 -0.0975  0.0206
14286W        W27700   7.126  16.396  12.595  0.0838  0.2217  0.1419
14287W        W27701  15.220  12.875   2.598  0.0968 -0.0104 -0.0273
14288W        W27702   6.014  11.142  14.154  0.0015  0.2085  0.0381
14289W        W27703   3.917   9.297  12.285 -0.0479 -0.1511 -0.4083
14290W        W27704   2.254   7.363  11.642  0.1601 -0.1380  0.1374
14291W        W27705  12.955   6.221   4.021 -0.1499  0.2102 -0.0902
14292W        W27706  13.878  11.249   5.072 -0.0349  0.2253 -0.2562
14293W        W27707  14.115  11.111   1.431  0.1889 -0.0663  0.2175
14294W        W27708  18.025  15.589   5.050 -0.0309  0.1628 -0.0556
14295W        W27709   6.603   6.829  12.078  0.0069 -0.0327 -0.1603
14296W        W27710  11.107   7.052  11.684  0.0515 -0.2865  0.0543
14297W        W27711  10.482   6.052   1.955 -0.0266  0.1218 -0.0443
14298W        W27712   2.529   5.558  16.070 -0.1802 -0.4248  0.1529
14299W        W27713   8.201  14.458  15.550 -0.1632 -0.2334 -0.1086
14300W        W27714   3.494  17.876  13.696  0.1436 -0.3807  0.0123
14301W        W27715   7.338   9.437  15.230  0.0271 -0.2084 -0.0262
14302W        W27716  11.839  10.427   2.180  0.2055  0.0217 -0.0522
14303W        W27717  10.504  16.490  14.566  0.0705  0.0124  0.0668
14304W        W27718  15.966   0.728   1.144  0.1662 -0.0037 -0.1881
14305W        W27719   4.289  13.110   5.432 -0.0192  0.1414 -0.0653
14306W        W27720   3.852   3.892  10.369  0.0750  0.1373 -0.2272
14307W        W27721   1.903   4.066  10.985 -0.1082 -0.0462  0.1905
14308W        W27722  12.083  17.364  16.328  0.2764 -0.3426  0.5540
14309W        W27723   2.731   1.346  11.984  0.0115  0.0606  0.0586
14310W        W27724  12.882   6.002  14.781  0.2207 -0.1657 -0.0827
14311W        W27725  10.543   2.347   0.086 -0.0418 -0.1415  0.1872
14312W        W27726   4.132   0.317   0.850 -0.1075  0.1559  0.1202
14313W        W27727   8.380   8.365  16.009 -0.0833 -0.2366 -0.0429
14314W        W27728  11.114   4.777   3.573 -0.1825 -0.2526 -0.0881
14315W        W27729  15.425   1.448  12.851  0.0869 -0.0973  0.0137
14316W        W27730   5.267  11.057   3.095 -0.0976 -0.3419 -0.1413
14317W        W27731   5.418  13.379  15.583  0.0132  0.2679  0.1408
14318W        W27732   1.083   0.387   3.280 -0.4187 -0.1322  0.0156
14319W        W27733   9.169   3.275  14.820  0.2350 -0.0764 -0.1796
14320W        W27734   5.916  12.783   3.468 -0.2619 -0.0976 -0.2990
14321W        W27735  14.146  13.158   3.976  0.3127  0.1007 -0.2841
14322W        W27736   5.515  12.438  14.090  0.3544  0.0641 -0.0974
14323W        W27737   9.553   8.461   4.798  0.4299  0.2940 -0.1678
14324W        W27738  17.057  16.738   4.771  0.1438 -0.1274  0.2209
14325W        W27739  10.760  12.965   4.133  0.0903  0.2582  0.3396
14326W        W27740   7.647   9.908  16.443  0.1135  0.2331 -0.0622
14327W        W27741   8.568   8.380   1.753  0.1031  0.2887  0.0026
14328W        W27742   6.368   0.089   3.823  0.0399  0.1227 -0.2744
14329W        W27743   0.781  15.498   0.382 -0.0967  0.0526 -0.3096
14330W        W27744  16.450  12.132  10.497  0.0499 -0.0916  0.0708
14331W        W27745  10.378   1.074  11.694  0.1358 -0.1036 -0.0114
14332W        W27746   2.568  15.568  15.035 -0.1143 -0.0762  0.0914
14333W        W27747   1.550   4.747  13.412 -0.0751  0.0063  0.0428
14334W        W27748   8.022  16.997   4.963  0.0015  0.2487 -0.0298
14335W        W27749   3.389   1.960   0.432  0.2527 -0.2581 -0.1960
14336W        W27750   6.439   4.561  14.240 -0.0696 -0.1670  0.0281
14337W        W27751   7.547  17.349  13.644 -0.1878  0.3206  0.0188
14338W        W27752   8.042   5.111  14.509 -0.0155 -0.0357 -0.0280
14339W        W27753   4.986  13.680  12.027  0.0249 -0.1952  0.0854
14340W        W27754   5.542  16.260  15.831  0.0021  0.2088  0.0239
14341W        W27755  16.782  10.192  10.927  0.0716 -0.2365 -0.1598
14342W        W27756  11.929   4.366  11.503  0.2103  0.1643 -0.0413
14343W        W27757  13.915  10.220  14.934  0.0199  0.0658 -0.3002
14344W        W27758   8.878   4.750  10.470 -0.0067 -0.2412 -0.2133
14345W        W27759   5.548   4.428   3.322 -0.6485 -0.0725  0.0708
14346W        W27760   4.581   3.249  10.412 -0.0793  0.3000  0.1510
14347W        W27761   4.884  16.866   6.251  0.0691  0.0136  0.1759
14348W        W27762  10.719   5.970  12.578 -0.1326 -0.0621 -0.0584
14349W        W27763   4.322  14.116  13.595  0.1671 -0.0585 -0.1849
14350W        W27764  17.955   7.852   3.740 -0.0133 -0.2105  0.0759
14351W        W27765   4.723   4.800   3.480  0.0633 -0.1849 -0.1732
14352W        W27766  11.070  14.264  12.938 -0.2739 -0.0315  0.0586
14353W        W27767  11.910   3.831   5.580 -0.3333  0.1025  0.0424
14354W        W27768   3.963   6.304   4.287  0.2214  0.1591  0.3601
14355W        W27769  16.783  16.471  15.571 -0.3140  0.2671 -0.0817
14356W        W27770   4.508   7.913  15.871 -0.4521  0.0714 -0.1729
14357W        W27771  15.872  14.140  13.040  0.0145 -0.1073  0.2326
14358W        W27772  11.043  17.036  13.341  0.2738 -0.2831 -0.2557
14359W        W27773  17.866  17.909   2.057 -0.1500 -0.1309  0.3469
14360W        W27774  16.372  13.563   0.206  0.0458  0.0870  0.1881
14361W        W27775   9.666   8.869   4.467  0.1486 -0.2144  0.2884
14362W        W27776   2.042  16.428  11.411  0.0787 -0.0706 -0.1735
14363W        W27777  11.199   6.778   1.943  0.0024 -0.0930  0.1041
14364W        W27778  17.959   6.905   5.091 -0.1163 -0.1683  0.0890
14365W        W27779  15.554  12.486  11.317 -0.0191  0.0050  0.1510
14366W        W27780   3.159  16.120   3.501  0.0646 -0.1485 -0.0905
14367W        W27781  17.010  13.930   2.028  0.2504 -0.0205  0.2782
14368W        W27782   1.075   0.584  13.319 -0.1865 -0.1365  0.0158
14369W        W27783   2.648  11.881   0.872 -0.0841  0.0679 -0.2105
14370W        W27784   6.759  13.403   1.710  0.1482 -0.5103 -0.1328
14371W        W27785  14.514  12.877   0.897 -0.0156  0.4038 -0.0015
14372W        W27786   8.798   7.073   0.105 -0.2203 -0.1777 -0.1987
14373W        W27787  11.536  11.549   0.408  0.0578  0.0076 -0.3321
14374W        W27788  10.456   9.098  10.992 -0.1059 -0.1058  0.2576
14375W        W27789  13.618  13.555  10.858  0.0369 -0.2224 -0.0032
14376W        W27790   9.213   0.207  16.575  0.1730  0.1970 -0.1327
14377W        W27791   3.958   8.504   1.381  0.3002  0.1415  0.2321
14378W        W27792  16.699  16.880   0.388 -0.0375 -0.1687 -0.0097
14379W        W27793  11.726  14.443  11.153  0.1252  0.0451  0.1883
14380W        W27794  10.589   2.654  11.161  0.1370 -0.0735  0.1536
14381W        W27795  16.607   7.525  13.949  0.3122  0.2066 -0.1479
14382W        W27796   4.342  15.076   5.577  0.2568  0.1471  0.2038
14383W        W27797  15.478  13.350   2.684  0.0664 -0.4153  0.0011
14384W        W27798   1.573   5.072   3.812 -0.3160 -0.0843  0.1570
14385W        W27799   1.484   0.409   1.368  0.3090  0.2175 -0.2356
14386W        W27800  15.901  15.359   3.054 -0.1192  0.1411  0.3248
14387W        W27801   0.036   8.539   1.902  0.0903  0.4152 -0.2059
14388W        W27802   8.805   2.393   0.373  0.0370 -0.0999  0.0646
14389W        W27803   3.394   9.097   6.267  0.0293 -0.3175  0.0620
14390W        W27804   8.561   7.345  13.508 -0.1628  0.1404 -0.1073
14391W        W27805  13.654   5.979   0.748 -0.2302  0.4394 -0.4599
14392W        W27806  16.531   3.604   3.496 -0.0380  0.3076 -0.0617
14393W        W27807   2.226   3.808  13.934 -0.3021  0.1467 -0.0553
14394W        W27808  13.198  13.376  13.747  0.0431  0.0401 -0.1627
14395W        W27809  17.995  15.786   1.938  0.0195 -0.0836 -0.1009
14396W        W27810  12.789   5.353  13.048 -0.0511  0.0619 -0.0349
14397W        W27811   0.835  11.745  16.401  0.0859 -0.0995 -0.3416
14398W        W27812  17.592   3.657  15.260 -0.0566  0.1794 -0.0691
14399W        W27813   9.797   7.840   4.036  0.1896  0.1032 -0.1134
14400W        W27814   2.279   1.387   1.841 -0.0298  0.0010  0.1433
14401W        W27815   9.271   5.854   1.969  0.0400  0.0649 -0.1630
14402W        W27816   6.363  15.585   2.392  0.1645  0.1456 -0.0215
14403W        W27817  11.774   1.963  10.860  0.0898 -0.0094 -0.0031
14404W        W27818  16.575  14.473   1.232 -0.0796  0.1814  0.2538
14405W        W27819   2.344   1.033  13.343 -0.0892  0.0881 -0.1545
14406W        W27820   4.958   6.334   0.506  0.0253 -0.0168 -0.2857
14407W        W27821   9.828  14.719  10.902 -0.0797 -0.0637  0.1946
14408W        W27822   0.049  17.897   5.315 -0.2673  0.1550 -0.2209
14409W        W27823   3.912   5.170   4.076  0.0954  0.0814  0.1492
14410W        W27824   8.803  13.684   1.056 -0.0270  0.0161 -0.0900
14411W        W27825   5.492   3.080  11.753  0.1520  0.2586 -0.1249
14412W        W27826   0.084   6.357  12.230 -0.3764  0.2050 -0.3002
14413W        W27827  14.274  14.964   4.124  0.0518  0.0429 -0.1644
14414W        W27828   0.407   7.645  11.875 -0.3494 -0.0237  0.0795
14415W        W27829  16.038   6.870   1.587  0.0983 -0.2672  0.0263
14416W        W27830  14.563  15.430   1.366  0.3006 -0.1853  0.1365
14417W        W27831   0.762   1.827  14.112  0.1418 -0.0850  0.0397
14418W        W27832   8.380  10.693   2.050 -0.1453  0.0443  0.1099
14419W        W27833   5.678  14.621  14.798 -0.0002  0.0324  0.1978
14420W        W27834   2.110   4.651   2.223  0.2132  0.1701 -0.0710
14421W        W27835   2.226   8.509  12.286 -0.3568 -0.0728  0.0374
14422W        W27836   4.323  15.855   3.633  0.0706 -0.2121  0.2771
14423W        W27837   7.012   8.372  12.562  0.1030  0.3321  0.0360
14424W        W27838   3.151  16.662   4.327 -0.1610 -0.0033 -0.0874
14425W        W27839  16.416  16.541  16.111 -0.1412  0.3517  0.1114
14426W        W27840   9.545  11.156  10.329  0.1720 -0.2579 -0.2705
14427W        W27841   3.484  14.391  13.215  0.2237  0.2982 -0.1935
14428W        W27842   3.209   4.983   6.548 -0.1465 -0.0385 -0.1958
14429W        W27843  17.809  10.329   1.636  0.1512 -0.0510 -0.3898
14430W        W27844   6.145   3.189  12.031 -0.2116 -0.1470  0.1613
14431W        W27845   0.204   8.568  11.464  0.0247  0.2293  0.2133
14432W        W27846  12.092  10.168  10.137  0.0825 -0.0955  0.3419
14433W        W27847   8.392   2.809  12.818 -0.5158 -0.3179 -0.0259
14434W        W27848  10.676   8.398   3.287  0.3803  0.0835 -0.0487
14435W        W27849  17.544   5.876  16.273  0.1362 -0.0282 -0.1638
14436W        W27850  11.527  10.239  12.628 -0.1113 -0.0293  0.1439
14437W        W27851  16.040  16.087  11.629  0.2651 -0.2387  0.0585
14438W        W27852  11.108   6.801  14.446  0.1482 -0.2010  0.0190
14439W        W27853  17.686   1.727   5.533 -0.1012  0.0555 -0.3271
14440W        W27854   5.327   5.996  15.559 -0.0263 -0.0812 -0.0413
14441W        W27855   4.269  11.078  10.992 -0.1074  0.2243 -0.2075
14442W        W27856  13.348   1.506   2.072  0.3054  0.1462 -0.2976
14443W        W27857  10.881  10.481  13.203 -0.0551 -0.0283  0.1353
14444W        W27858  12.860   9.865  14.853 -0.0725  0.0312 -0.2269
14445W        W27859  14.811  10.808  15.595 -0.1823  0.0240 -0.2093
14446W        W27860  16.904  17.185   1.678  0.0149  0.1947  0.1809
14447W        W27861  10.832   4.105  12.038  0.0916 -0.1145 -0.1372
14448W        W27862   1.946   7.210  12.440  0.2403  0.0627  0.0526
14449W        W27863   6.792   7.453   1.053 -0.2230 -0.3822  0.0919
14450W        W27864   3.710   7.495  12.405  0.3529 -0.0319  0.0232
14451W        W27865  15.108   1.444  15.401  0.2415 -0.2784  0.4114
14452W        W27866   8.922   1.337  13.254  0.1226  0.1176  0.1994
14453W        W27867  12.312  10.810  13.247 -0.0317 -0.0437 -0.1588
14454W        W27868  11.670  11.744   3.281  0.1728 -0.1704  0.1029
14455W        W27869   7.153  14.039  12.169 -0.1730 -0.0864  0.0791
14456W        W27870   7.949   7.758   2.894 -0.0456  0.1073  0.0317
14457W        W27871   2.513   4.220   2.114  0.1997  0.2301  0.1094
14458W        W27872  17.894   9.794   3.218  0.2961  0.1214  0.1855
14459W        W27873  14.257   5.796   4.044  0.1498 -0.0621 -0.0298
14460W        W27874   5.045  10.218   0.174 -0.1929  0.0762 -0.0741
14461W        W27875  14.660  11.455   0.195 -0.1299  0.2834  0.0061
14462W        W27876   0.146  16.076   1.471 -0.0101 -0.0607 -0.2531
14463W        W27877  11.176   1.575  11.674 -0.0322  0.3353 -0.0428
14464W        W27878  14.170   6.628   1.269  0.0968  0.2075 -0.0365
14465W        W27879   4.536   0.486  12.805  0.2489 -0.1748  0.1107
14466W        W27880  17.109  14.190  16.442 -0.0400  0.0639  0.0869
14467W        W27881   2.061  13.521  15.758 -0.4522 -0.2864  0.1795
14468W        W27882   2.721   2.688   0.310 -0.0301  0.0606 -0.0843
14469W        W27883   3.893  15.794   2.799 -0.0424  0.2746 -0.1526
14470W        W27884   6.519  12.526  13.910  0.2887  0.0542  0.2170
14471W        W27885   5.342  10.368   4.044 -0.1356  0.0522  0.0900
14472W        W27886   9.889  10.720  13.485 -0.2301  0.2509 -0.1715
14473W        W27887   3.598  10.049   5.368 -0.4945  0.0901 -0.2337
14474W        W27888   0.828   8.404   2.360 -0.0625  0.1268  0.1062
14475W        W27889  13.504  17.956   0.393 -0.0422  0.2775 -0.1284
14476W        W27890  10.383   9.727  10.139 -0.1662 -0.0867  0.1306
14477W        W27891  13.741   0.547  15.452  0.0743  0.0442  0.1182
14478W        W27892   2.031   7.731   3.979 -0.1103  0.5021 -0.0360
14479W        W27893  12.804   4.971   2.711  0.1253 -0.1561  0.3859
14480W        W27894   6.453   3.158   1.036  0.0145  0.3138  0.1474
14481W        W27895   0.302  12.271  12.365  0.1457 -0.0874  0.0554
14482W        W27896   2.732   7.543   3.456 -0.0153  0.0332  0.4419
14483W        W27897  14.998   3.364   5.588 -0.2220  0.2169  0.1525
14484W        W27898   0.921   5.250   3.000 -0.0010 -0.0572 -0.3363
14485W        W27899   0.439  15.023  11.052  0.0752 -0.1501  0.2186
14486W        W27900   5.200   6.940  14.537  0.2212  0.0238  0.0768
14487W        W27901  16.238   8.231   5.220  0.1418 -0.4030 -0.3452
14488W        W27902   5.328  17.056   3.441 -0.0188  0.1929 -0.1346
14489W        W27903  15.192   3.862   0.580  0.1693 -0.1676 -0.0710
14490W        W27904  10.474   9.111   3.989  0.1340  0.1989  0.2668
14491W        W27905  11.367  14.363  16.621 -0.3791 -0.1315 -0.0703
14492W        W27906   4.158   8.721  16.312 -0.3803  0.2549  0.1180
14493W        W27907  13.518   3.217  16.395 -0.2124  0.0552 -0.1978
14494W        W27908  17.994   8.214  11.204 -0.1243 -0.0636 -0.1185
14495W        W27909  16.368   6.359   0.253  0.1844 -0.2661  0.2974
14496W        W27910   0.623   8.744   4.157 -0.1997 -0.0117  0.0533
14497W        W27911  16.532   6.515  11.802 -0.1369 -0.2655 -0.0513
14498W        W27912   0.734   6.320   3.198 -0.0942  0.0909 -0.1626
14499W        W27913   7.718  11.813  11.723  0.2744  0.0573 -0.2210
14500W        W27914   9.648  17.426  14.096  0.1718  0.0335  0.1449
14501W        W27915  12.696   3.338  12.297  0.0321  0.0501 -0.0248
14502W        W27916  14.971  13.700   4.387 -0.0080  0.1254  0.0214
14503W        W27917   8.243   6.506  14.109 -0.0936  0.2025  0.2945
14504W        W27918   8.372   7.855   5.239  0.1069 -0.1736  0.3154
14505W        W27919  17.812  16.032   4.422  0.1085 -0.0002  0.1649
14506W        W27920  10.972  12.407   1.303 -0.1927 -0.2032 -0.0455
14507W        W27921  11.656  11.105  12.168  0.0791 -0.1050  0.0223
14508W        W27922  11.008  13.701  11.202 -0.3157  0.1802  0.0954
14509W        W27923  16.661  17.125   5.957 -0.2366 -0.0417  0.0880
14510W        W27924  15.024   9.697  12.903 -0.2536  0.1495  0.1524
14511W        W27925  11.641  12.954   4.871  0.0013  0.1416  0.2275
14512W        W27926  10.475  16.488  15.081 -0.2287 -0.1919 -0.0787
14513W        W27927  13.418  11.845  13.291  0.0031 -0.2517  0.0361
14514W        W27928  11.221   9.567  13.380  0.1891  0.0357  0.1330
14515W        W27929   0.663  14.242  14.746 -0.0886  0.1022 -0.1547
14516W        W27930  17.671   3.826   5.898  0.0252  0.0628  0.1364
14517W        W27931   2.350   0.721  12.122  0.2472 -0.2365  0.0478
14518W        W27932  11.787  17.920  14.123 -0.0513  0.0850  0.0045
14519W        W27933  12.527   6.822  16.077  0.1797 -0.2321  0.1590
14520W        W27934   5.844   3.630   3.055 -0.2693 -0.0273  0.0436
14521W        W27935   9.975   0.130   5.263 -0.0755 -0.0520 -0.1026
14522W        W27936  10.614  17.291   3.083 -0.2492  0.3381 -0.2390
14523W        W27937   6.629   4.240  15.299  0.1668  0.1132  0.0592
14524W        W27938   4.819  15.125   2.890  0.6284  0.1075  0.3055
14525W        W27939  10.542  15.713  12.852 -0.3953  0.2500  0.3092
14526W        W27940  12.063  15.973  12.619 -0.0998 -0.1696  0.0015
14527W        W27941   7.932  11.638  16.202  0.0363  0.0169  0.2703
14528W        W27942  11.945  11.285   2.300  0.3459  0.0665  0.0856
14529W        W27943   3.468   8.560  12.341 -0.0110  0.0097  0.0623
14530W        W27944   1.893   3.232   4.342  0.2400 -0.0062 -0.0511
14531W        W27945  14.164   8.378   2.285  0.0437 -0.1074 -0.4570
14532W        W27946  17.695   7.322   4.916 -0.0116 -0.1618  0.2403
14533W        W27947   4.234  15.169  12.959  0.0883 -0.1583  0.4797
14534W        W27948  14.889   1.893   2.456 -0.0884  0.0881 -0.1028
14535W        W27949   2.869  13.669   4.663  0.0291 -0.3186  0.0040
14536W        W27950  13.913   8.641   1.962  0.0963 -0.2352 -0.1972
14537W        W27951  17.370   5.183   4.424  0.1094 -0.0093  0.1869
14538W        W27952  10.585   7.219  13.211  0.1036 -0.0941 -0.0651
14539W        W27953   3.497   7.121  13.903 -0.0510  0.3462 -0.0323
14540W        W27954   3.128  13.960  11.750  0.0431 -0.0777 -0.2410
14541W        W27955  16.940   7.990  15.073  0.1798 -0.2326 -0.2252
14542W        W27956   0.147   4.960  13.405 -0.1547 -0.0803  0.1458
14543W        W27957   4.185  12.376   2.708 -0.1231 -0.2899 -0.0657
14544W        W27958  16.226   6.574   1.215  0.2216 -0.0862  0.1788
14545W        W27959  11.245   7.341   1.224  0.1429  0.0670  0.1225
14546W        W27960   4.896   9.832  15.824 -0.1793  0.2796  0.1416
14547W        W27961   7.946   5.155   1.010 -0.0305 -0.0713  0.2070
14548W        W27962   7.551   9.602   4.250  0.1991  0.1579  0.1722
14549W        W27963   1.676  15.392   5.470  0.1527 -0.0734  0.1094
14550W        W27964  11.716   3.066  12.151  0.0314  0.0785 -0.0665
14551W        W27965  13.067  13.717   2.534 -0.4365  0.1152 -0.0008
14552W        W27966   2.335  13.860  12.240  0.0759  0.0869 -0.0486
14553W        W27967  16.522  16.862  15.384  0.1763 -0.4074 -0.2805
14554W        W27968   6.026  12.366   2.640  0.0034  0.1687  0.0553
14555W        W27969   0.611  16.047   2.777  0.2701 -0.1478 -0.2926
14556W        W27970  17.280  11.564  10.239  0.4218 -0.0692 -0.1175
14557W        W27971   2.719   4.393  12.423 -0.2403  0.2516 -0.1503
14558W        W27972  12.286   0.245  12.204  0.0475 -0.1353  0.1943
14559W        W27973  16.078   1.888   6.175 -0.1042 -0.1926  0.0538
14560W        W27974   9.369  15.706  12.468 -0.0094 -0.1118  0.0609
14561W        W27975   0.125  12.926   3.636  0.2206 -0.0468 -0.0238
14562W        W27976   6.566   8.528  12.532  0.0027  0.0510  0.2306
14563W        W27977   6.042  13.828  13.460  0.2184 -0.0364  0.1044
14564W        W27978  14.639  11.945   3.296 -0.1924 -0.0699 -0.2348
14565W        W27979  13.838   9.256   4.347 -0.3324  0.1401  0.0143
14566W        W27980   9.026   7.702   1.626 -0.0260 -0.1592  0.0677
14567W        W27981   4.631   9.242   2.901  0.0385  0.1078 -0.0345
14568W        W27982   2.355   6.600  13.583 -0.0802  0.3488  0.0799
14569W        W27983  16.996  15.253   5.790 -0.1248 -0.0797 -0.1183
14570W        W27984  12.333   8.818   4.224 -0.0108  0.3433 -0.1252
14571W        W27985   0.602  13.321  11.565 -0.0894 -0.0952  0.1269
14572W        W27986  11.735  17.244  14.504 -0.0929  0.0667 -0.1265
14573W        W27987   1.638   0.735   4.052 -0.1408  0.0959 -0.2310
14574W        W27988   9.020   7.446  11.790  0.0528  0.2964  0.1637
14575W        W27989   2.301   3.289  16.446  0.2388 -0.0641 -0.1108
14576W        W27990   0.837   6.390  15.178  0.0088  0.1517 -0.1871
14577W        W27991   8.646   5.994  12.252 -0.0236 -0.2153  0.1069
14578W        W27992  13.282   7.132   0.338 -0.0293  0.5288 -0.2513
14579W        W27993   5.603   5.070  10.027 -0.0574 -0.2311 -0.1498
14580W        W27994  14.301   2.310   2.047 -0.1222 -0.3396  0.5642
14581W        W27995   5.415  13.434   4.276 -0.0328 -0.0472 -0.0115
14582W        W27996   7.522  15.990  16.491 -0.0444 -0.0742 -0.0148
14583W        W27997  15.583   3.037   3.689 -0.2188 -0.1156  0.1247
14584W        W27998  17.551   5.647   0.615 -0.1919  0.0238 -0.2639
14585W        W27999   0.958  10.582   0.681  0.1220 -0.1351  0.1936
14586W        W28000  12.734   6.938  10.965  0.1987  0.0547  0.1823
14587W        W28001   2.613  13.422  10.765 -0.2057  0.0649 -0.0715
14588W        W28002  16.999  14.479  14.829 -0.1006 -0.1165  0.0487
14589W        W28003   1.989  17.741  14.511  0.2642  0.1315  0.1441
14590W        W28004  11.854   8.415  11.455  0.0012 -0.0067 -0.2196
14591W        W28005   7.894   3.028  12.545  0.2664  0.0266  0.1318
14592W        W28006   2.619  11.955   3.038 -0.1385 -0.0703  0.0992
14593W        W28007   2.286   4.882   0.063 -0.0741  0.2936  0.3538
14594W        W28008   0.468  12.675  16.330 -0.0800  0.2059  0.0345
14595W        W28009  14.027   1.745   5.246 -0.1423  0.1970  0.0006
14596W        W28010  12.722   2.604   1.469 -0.0518 -0.0704  0.0038
14597W        W28011   6.798   4.597   1.687 -0.1439 -0.2092  0.3357
14598W        W28012   4.311   4.527  11.416 -0.0711 -0.1187 -0.2107
14599W        W28013  15.379   8.970  14.407 -0.3207 -0.3534  0.1657
14600W        W28014  14.404   7.937   2.699 -0.1492  0.0222 -0.0500
14601W        W28015  12.956  17.883  13.269  0.3695 -0.1209 -0.0707
14602W        W28016   8.222   8.087  15.041  0.1500 -0.1060 -0.0717
14603W        W28017  15.818   5.079  16.700 -0.1219  0.0700  0.1751
14604W        W28018  14.703  14.712  12.074  0.1854  0.0501 -0.0323
14605W        W28019  13.075   3.655  12.418  0.0240 -0.3123 -0.1314
14606W        W28020  15.418   5.219   2.642  0.3778  0.1779 -0.1405
14607W        W28021  15.520   5.872  15.406 -0.0687 -0.2259 -0.2275
14608W        W28022  16.440  11.958  16.030 -0.0214  0.0560  0.0932
14609W        W28023   3.360   5.507   3.541 -0.1090 -0.0818 -0.0985
14610W        W28024   3.375  12.967  12.593  0.2471  0.1925 -0.1016
14611W        W28025  17.598   9.822   0.298 -0.0521  0.2704  0.0145
14612W        W28026  14.543  16.461  15.144 -0.0518  0.1297 -0.2345
14613W        W28027   1.013   0.952  15.130 -0.0179  0.2090  0.0779
14614W        W28028  13.679   8.820   5.724  0.4600  0.0547 -0.0874
14615W        W28029   6.625   3.376  12.127  0.1305  0.2415 -0.2104
14616W        W28030  16.103   7.736   7.090 -0.0621 -0.1424  0.1783
14617W        W28031   2.213   3.338  15.780 -0.0479  0.0598  0.1244
14618W        W28032  16.124   6.104   3.367  0.2098  0.1369  0.1455
14619W        W28033   7.680   5.861   3.555 -0.0128  0.1315 -0.1839
14620W        W28034   1.885  15.188   0.345  0.1689  0.3931  0.0382
14621W        W28035  15.039  16.530  16.219  0.1656 -0.0396  0.0985
14622W        W28036   6.554   6.404   3.434 -0.0049 -0.2180 -0.1545
14623W        W28037   8.893   8.366   1.290 -0.0308  0.3067  0.0451
14624W        W28038   7.436  13.651   3.069  0.0323 -0.0342 -0.3565
14625W        W28039   2.216  13.011  14.845 -0.0152  0.2059 -0.1731
14626W        W28040   4.531   6.526   4.681  0.2015 -0.1845  0.3011
14627W        W28041  17.070  11.911   4.713 -0.1474  0.0628  0.1218
14628W        W28042  10.232  17.698   5.379 -0.2231 -0.1924 -0.2914
14629W        W28043   6.721  16.157  12.789  0.0083  0.0639 -0.2676
14630W        W28044   4.919  15.440   0.310  0.0214 -0.1305  0.0160
14631W        W28045   5.162  10.840   4.842  0.1889  0.1316  0.0012
14632W        W28046   4.114   4.513  14.289  0.2752  0.2134 -0.0194
14633W        W28047  17.090   1.067   0.548  0.0211  0.3008 -0.0078
14634W        W28048   0.325  15.485  15.694  0.0720 -0.1900 -0.0434
14635W        W28049   6.221   7.618   3.072  0.0843 -0.3048 -0.1984
14636W        W28050   1.719  12.833   0.219  0.0006 -0.3359  0.0839
14637W        W28051   0.983   7.347   3.133 -0.0781 -0.1502  0.0350
14638W        W28052  13.576  11.167  14.979 -0.1326 -0.0641  0.1274
14639W        W28053  10.843  10.813   5.476  0.2457  0.0458  0.0745
14640W        W28054   2.466   5.310   0.977  0.1460 -0.0501 -0.0828
14641W        W28055   5.253   6.894  15.539 -0.0020  0.0094  0.0534
14642W        W28056  14.565  14.142  14.922  0.0451  0.0120  0.0009
14643W        W28057  11.307   7.147  11.193  0.0488  0.0258  0.3443
14644W        W28058   3.288  13.920   3.525 -0.0805 -0.1337  0.3099
14645W        W28059   4.809  14.837  15.002 -0.0232 -0.2967 -0.2322
14646W        W28060  13.557   9.778   0.795 -0.1346  0.0773  0.3034
14647W        W28061   2.293   7.803  11.360  0.1518  0.0662 -0.0416
14648W        W28062  11.585   7.986  14.206 -0.1743 -0.0162 -0.2641
14649W        W28063  10.293   4.563   3.091  0.0275 -0.3658  0.1527
14650W        W28064   5.363  14.588  10.481 -0.0010 -0.0566  0.1735
14651W        W28065  13.624   3.237  12.634  0.0497  0.0955 -0.0657
14652W        W28066   3.733   4.573   5.770 -0.0263 -0.0520  0.0097
14653W        W28067   9.528   5.835   1.088  0.1382 -0.0619  0.0633
14654W        W28068  14.367  16.239  12.950 -0.0579 -0.0567  0.0179
14655W        W28069   0.515  16.909  10.873 -0.0781  0.3433 -0.1116
14656W        W28070  13.021  10.710   4.106 -0.0564 -0.2313 -0.0254
14657W        W28071   3.719  14.970  14.737 -0.3164  0.0395 -0.1927
14658W        W28072  10.877  11.931   5.267 -0.0648 -0.0201 -0.2434
14659W        W28073  12.499  11.381   3.657 -0.2493  0.1155 -0.2044
14660W        W28074   8.357   5.956  12.703 -0.0984  0.1689 -0.0763
14661W        W28075  13.840  15.155  11.219 -0.1593  0.0020 -0.1870
14662W        W28076   2.003  12.264   3.320 -0.1347  0.0840 -0.2711
14663W        W28077   0.952  13.555   1.761 -0.0239  0.2719 -0.2683
14664W        W28078  11.833  11.258   3.123  0.1512  0.0901  0.0221
14665W        W28079  12.249  12.203  14.956  0.1136  0.2560  0.3587
14666W        W28080  13.126   2.316   3.163  0.0484 -0.1902  0.4205
14667W        W28081   2.280   8.294  11.713 -0.1424  0.0281  0.2233
14668W        W28082   7.729  12.321  13.700  0.6279  0.1376 -0.3799
14669W        W28083   9.440  17.873   2.286 -0.0957 -0.0622 -0.0214
14670W        W28084  18.039  17.597   3.633  0.2891 -0.0865 -0.2888
14671W        W28085  10.207  12.587   1.191 -0.1052 -0.2727  0.0747
14672W        W28086   0.573   2.541   1.928  0.1604  0.1371  0.3207
14673W        W28087  11.643  11.012  11.696  0.0136  0.0559 -0.1370
14674W        W28088   8.657   5.438   2.899  0.0613 -0.3065  0.1661
14675W        W28089  14.968   6.333   1.648  0.2613 -0.1884 -0.0400
14676W        W28090   3.361   3.614   6.571 -0.0500 -0.0909  0.0675
14677W        W28091  12.108   0.221   3.122  0.0042 -0.2163 -0.2870
14678W        W28092  13.505  12.069   1.376  0.0966 -0.0192  0.2310
14679W        W28093   7.438   0.415  15.145 -0.0274  0.0572 -0.0699
14680W        W28094   6.647  11.252   4.224 -0.1128 -0.0876 -0.0551
14681W        W28095   5.911   9.614   4.681  0.0582 -0.0141 -0.1259
14682W        W28096   8.009   1.135  12.792 -0.4068  0.0943  0.0693
14683W        W28097  13.860  16.893  10.975 -0.0234 -0.0501  0.0996
14684W        W28098  12.214  10.572  12.477  0.0345 -0.1440 -0.1429
14685W        W28099   5.337   5.090   0.523 -0.0556 -0.5849 -0.1698
14686W        W28100  10.253  17.442   0.474  0.0768  0.2520 -0.0366
14687W        W28101  10.981  16.565   3.612  0.2915 -0.0380 -0.1639
14688W        W28102  16.773  13.595   1.670  0.0130  0.0050 -0.1992
14689W        W28103  13.315  15.801  11.591 -0.0637  0.1698 -0.2847
14690W        W28104   8.960  13.912   4.255 -0.0896 -0.1987 -0.1197
14691W        W28105  16.180   5.864  15.517 -0.0663  0.1250  0.0129
14692W        W28106   6.960  11.584   0.022 -0.1770 -0.0185  0.0222
14693W        W28107   0.546   9.175   3.387  0.2483 -0.2682  0.0168
14694W        W28108  10.821  17.885  11.776  0.2047  0.0232 -0.1627
14695W        W28109   1.167  11.531  15.668  0.2813 -0.1328 -0.0259
14696W        W28110   3.692   1.362   5.323  0.4729 -0.1445 -0.2031
14697W        W28111  14.151  16.217  14.732  0.0176 -0.1968 -0.1403
14698W        W28112  10.311   8.853   1.956  0.0300 -0.0027 -0.0041
14699W        W28113   2.163   8.310   0.290  0.3294 -0.2308  0.0095
14700W        W28114  10.243  12.153   4.356 -0.0909  0.2525 -0.3298
14701W        W28115  15.546  10.228   6.152  0.1228 -0.2882 -0.1588
14702W        W28116   1.839   8.488  12.954 -0.1215  0.1758  0.0792
14703W        W28117  16.436  13.587  11.910  0.1886  0.1954  0.0411
14704W        W28118  16.840  16.026   3.447 -0.0765 -0.1712  0.0368
14705W        W28119  15.884  13.569  16.658  0.1574  0.0860  0.1392
14706W        W28120   9.820  16.374   0.538  0.1377 -0.2568 -0.1558
14707W        W28121  11.335   9.748  15.421 -0.1697  0.0380  0.0556
14708W        W28122   1.707   2.071  12.028 -0.0194  0.2433 -0.0418
14709W        W28123  13.228   4.152   3.174 -0.3577  0.0016 -0.1810
14710W        W28124   8.130   0.126  13.445  0.1090  0.2929 -0.0392
14711W        W28125  17.418  14.789   0.502 -0.1451  0.0729  0.0372
14712W        W28126  14.374  11.633  11.625  0.1352  0.2195 -0.0244
14713W        W28127   1.673   1.268   1.863  0.1731 -0.1150  0.0670
14714W        W28128  15.838   8.368   4.106 -0.0425 -0.0174 -0.0097
14715W        W28129  17.279   4.398   5.453  0.0707 -0.0724 -0.0937
14716W        W28130  16.489   6.677  16.595 -0.0354 -0.2366 -0.1941
14717W        W28131  17.885  10.610  10.528  0.1249  0.0464  0.0597
14718W        W28132  12.221  11.368   1.850  0.0332  0.0245  0.1262
14719W        W28133  15.174   6.155  13.380  0.0133  0.0030  0.0217
14720W        W28134   7.461   3.640  11.286  0.2998 -0.2512  0.2892
14721W        W28135   3.925   8.250   2.329 -0.0440  0.3043 -0.1728
14722W        W28136  15.031   5.623  12.662  0.0627 -0.4596 -0.1061
14723W        W28137   7.264   8.784   5.777  0.1299 -0.1483  0.0078
14724W        W28138  14.116   3.139   0.041 -0.1236 -0.0972 -0.2337
14725W        W28139  13.433  11.322   2.356 -0.0316  0.4213  0.3323
14726W        W28140   5.440   3.491   0.931  0.1387 -0.0449 -0.3369
14727W        W28141  15.075  15.629   4.591  0.0225  0.1046 -0.1848
14728W        W28142   0.549   6.202  12.242 -0.4948  0.0063  0.0212
14729W        W28143   4.839  16.144   3.805  0.2230  0.2392 -0.0332
14730W        W28144  15.808   3.690   1.712  0.2494 -0.1736 -0.2296
14731W        W28145   3.188  14.829  10.863  0.1129  0.3580 -0.0004
14732W        W28146   6.725  11.435   1.996 -0.1276 -0.4149 -0.4463
14733W        W28147   1.898   1.729   4.852 -0.2199 -0.0187 -0.0848
14734W        W28148   3.689   7.335   2.677  0.3460  0.0484  0.2649
14735W        W28149  13.431   9.093  12.857 -0.0264 -0.0608 -0.2101
14736W        W28150  13.738   5.675   4.813 -0.1061  0.0144 -0.2897
14737W        W28151   1.031  12.487   0.322 -0.1697  0.0790  0.2468
14738W        W28152   5.431  15.238  10.922  0.0075  0.1235  0.1675
14739W        W28153   0.771   8.379   3.699  0.0681 -0.1484 -0.0723
14740W        W28154  15.913   8.817   6.397  0.4139 -0.1341  0.1754
14741W        W28155   6.006  16.064  15.752 -0.0485  0.2260 -0.0985
14742W        W28156  10.764  13.019   1.878  0.1482  0.0670 -0.1258
14743W        W28157   6.795   0.003   2.638 -0.1072  0.0825  0.0398
14744W        W28158   9.507  16.398  10.478 -0.3878 -0.0873  0.2376
14745W        W28159   2.280   5.170  14.167 -0.2662 -0.1270 -0.0099
14746W        W28160  11.227  17.671   3.402 -0.0726 -0.0368 -0.2233
14747W        W28161   6.641   9.676  10.541 -0.2529  0.2658 -0.1956
14748W        W28162  14.447   3.485   6.167 -0.1138 -0.0229 -0.0629
14749W        W28163   2.302   7.037   3.427 -0.1806 -0.0092 -0.0781
14750W        W28164  15.136   1.799   4.627 -0.1654 -0.0093  0.0008
14751W        W28165   5.764   6.870   1.930 -0.1138 -0.0080  0.2980
14752W        W28166   1.825   2.297   2.059  0.0548  0.0133 -0.0602
14753W        W28167   8.331  14.096  13.749 -0.0001 -0.1022  0.1146
14754W        W28168  17.223  10.846  15.254  0.0904 -0.0744  0.0020
14755W        W28169  14.343   9.024  16.247 -0.0861  0.1975  0.1714
14756W        W28170   7.805   3.192  10.925  0.1080  0.1847 -0.1627
14757W        W28171   4.913  11.156  14.032  0.1671  0.2587 -0.0137
14758W        W28172   2.349  11.881   1.792  0.2514 -0.2502 -0.1261
14759W        W28173  18.051  10.582  11.623  0.0060  0.0203 -0.2054
14760W        W28174   1.503   5.011   5.221  0.0029  0.2382 -0.1537
14761W        W28175  15.767   6.820   3.367  0.1526  0.2724  0.0152
14762W        W28176  14.421  14.256  14.452 -0.3065 -0.0631  0.1720
14763W        W28177   3.243   7.164  14.417  0.0494  0.2174  0.3917
14764W        W28178  15.326   0.944   3.357  0.1014  0.0177  0.0072
14765W        W28179   2.856   0.387   5.709 -0.1521 -0.0124  0.0304
14766W        W28180  13.815  15.137   4.102 -0.1619 -0.2569 -0.1501
14767W        W28181   4.113  10.695   3.317  0.0479 -0.0532  0.2504
14768W        W28182   6.494   9.213  15.100  0.0983  0.2507  0.0172
14769W        W28183  12.950  13.411   2.938 -0.0252  0.0392  0.3524
14770W        W28184   0.330   6.246   5.778 -0.3072 -0.0153  0.0841
14771W        W28185   4.894  14.277   3.358  0.0817 -0.0233  0.1131
14772W        W28186  12.851  17.384   4.094 -0.0682 -0.2009 -0.0672
14773W        W28187   9.433   6.222   6.449  0.1998  0.2548  0.0508
14774W        W28188  12.484  14.197   0.847  0.2643 -0.0065 -0.3871
14775W        W28189   8.606   8.773   0.127  0.0754  0.2452 -0.1243
14776W        W28190  15.732  12.096   4.336 -0.1802 -0.2049  0.0192
14777W        W28191  13.784  11.002  12.979 -0.2418 -0.0518 -0.1819
14778W        W28192  15.496   5.083   1.607 -0.0667  0.1415 -0.0354
14779W        W28193  12.090   7.018  15.970  0.0030  0.0524  0.0709
14780W        W28194  16.703  15.652  12.464 -0.0448  0.2178  0.3643
14781W        W28195   1.065   7.722  14.080  0.1584 -0.2324  0.2054
14782W        W28196   3.898   9.765  15.193  0.0240 -0.1142 -0.0359
14783W        W28197   9.709  17.870  10.890  0.1882  0.0664  0.0146
14784W        W28198   3.747   8.080  14.517  0.0413 -0.1536 -0.2747
14785W        W28199   8.256  14.936   0.425  0.0858 -0.1889  0.2397
14786W        W28200  13.314   3.604   2.950 -0.2446 -0.0877  0.0780
14787W        W28201   3.384   7.916   0.985  0.0061 -0.2004  0.1038
14788W        W28202   4.480  12.952   0.526  0.0424 -0.2317  0.0224
14789W        W28203   4.058  11.907  15.927 -0.1719  0.2203 -0.0001
14790W        W28204   2.496   3.345  15.360  0.0049  0.3603 -0.2071
14791W        W28205  14.810  12.222   1.068 -0.0171  0.1561  0.1754
14792W        W28206   3.948  11.284  12.820  0.3398 -0.1171 -0.0661
14793W        W28207  17.141  13.307  12.178 -0.0545 -0.1350 -0.0022
14794W        W28208   7.653  10.477   1.334  0.3554  0.2449 -0.2798
14795W        W28209  10.491   3.419  13.927 -0.2558  0.0167  0.1059
14796W        W28210  17.438   1.688   3.635  0.2054  0.0664  0.2403
14797W        W28211   0.617  17.669  13.076 -0.4753  0.1691  0.3345
14798W        W28212  12.385  17.177   1.485 -0.0266 -0.0034  0.0302
14799W        W28213  13.003  10.216  16.134 -0.0191 -0.0506  0.0638
14800W        W28214   1.842  13.150  12.905  0.2484 -0.0392  0.0239
14801W        W28215  12.189   4.748   5.329 -0.0569 -0.4874 -0.0124
14802W        W28216   1.225   6.885  12.839  0.0925  0.4270  0.1729
14803W        W28217   1.971  13.982  13.362  0.2968  0.1369  0.0038
14804W        W28218  14.252   9.601  14.074 -0.0807 -0.0418 -0.0626
14805W        W28219  12.830  13.712   5.610  0.2189  0.1143 -0.2131
14806W        W28220  10.804   4.218  15.599 -0.0517  0.1302 -0.0533
14807W        W28221  15.349   8.646  15.672  0.0308  0.0131 -0.1927
14808W        W28222   2.592   3.319   3.623  0.2748 -0.0838  0.0954
14809W        W28223   1.378  17.732  11.102  0.1310  0.2130 -0.1037
14810W        W28224   3.508   5.235  14.050 -0.0928  0.3537  0.3184
14811W        W28225  15.635   1.967   5.951 -0.0129 -0.1311  0.1906
14812W        W28226  17.322   2.710   4.808  0.0065  0.0093  0.1426
14813W        W28227  17.450   7.760  16.518  0.2794 -0.1057  0.0070
14814W        W28228  13.736  17.696  14.488 -0.1818 -0.0336  0.3868
14815W        W28229  12.086  13.734  15.660 -0.2166 -0.0422 -0.0870
14816W        W28230   1.671   8.906   2.342 -0.0644  0.0157 -0.1439
14817W        W28231  13.244   2.013  11.395 -0.0769 -0.3204 -0.0287
14818W        W28232  15.983   9.326  15.507 -0.2027 -0.0252 -0.1341
14819W        W28233   7.982   2.769   0.379 -0.0451 -0.2008 -0.2733
14820W        W28234   3.912  11.449  16.021  0.2287  0.1804 -0.1525
14821W        W28235  17.998   8.134   4.599 -0.0979  0.0715 -0.3985
14822W        W28236   4.505   6.787  14.909  0.2227  0.3057 -0.1236
14823W        W28237   8.012  10.541   5.224  0.0574 -0.0396 -0.0565
14824W        W28238  17.521  15.401   5.834  0.2017  0.0993 -0.0457
14825W        W28239   8.163  10.439  14.290  0.0223 -0.0974  0.0327
14826W        W28240   3.793   3.423   0.736  0.2127  0.1664 -0.2023
14827W        W28241   5.016  12.680  11.785 -0.0502  0.2052  0.2196
14828W        W28242  11.087   7.055   2.891 -0.0695 -0.0754  0.0628
14829W        W28243  13.563   2.789   4.297  0.2036 -0.0915 -0.2320
14830W        W28244  12.141  11.119  11.028 -0.3462  0.1358 -0.1624
14831W        W28245  16.638  12.081   1.268  0.1046  0.1784 -0.0061
14832W        W28246   3.710  15.244  11.585  0.0148  0.2889 -0.3080
14833W        W28247   6.265  12.996  11.174  0.0503 -0.0001 -0.2970
14834W        W28248  16.277  15.632   1.040  0.0861  0.0727  0.0389
14835W        W28249   4.030  14.124   3.078  0.0181 -0.2511 -0.2367
14836W        W28250   5.389  16.627  11.229  0.1373  0.0238 -0.2684
14837W        W28251  14.653   8.660  16.165 -0.0790  0.1500  0.2020
14838W        W28252   4.850   7.864  11.763  0.0058 -0.0807 -0.1435
14839W        W28253   2.074   0.462  14.525 -0.2611  0.1377 -0.0035
14840W        W28254  11.142   3.992  16.056 -0.1417  0.0622 -0.0280
14841W        W28255  11.413   0.268  10.410  0.1417 -0.2072  0.2308
14842W        W28256  17.424   5.173  16.063 -0.5371 -0.4485 -0.0423
14843W        W28257  10.932  10.313   5.145  0.2402  0.1499 -0.1577
14844W        W28258   7.775   7.256  11.284 -0.2953  0.3193 -0.2218
14845W        W28259   4.620  11.166   0.834  0.3216  0.0253  0.0147
14846W        W28260   9.972  17.106   4.545  0.0529  0.0525  0.2751
14847W        W28261   2.646  12.794   3.512 -0.1171  0.1624 -0.1112
14848W        W28262   5.696   8.952  11.709 -0.0078 -0.0312 -0.0307
14849W        W28263  12.145   9.375  10.780  0.2521 -0.4440 -0.0534
14850W        W28264  15.897  10.075  16.135 -0.0037 -0.2363 -0.0808
14851W        W28265   7.513   1.190  10.090 -0.0709 -0.0012 -0.1151
14852W        W28266  12.346  18.040  13.146  0.1218 -0.3281 -0.0219
14853W        W28267  13.229   6.545  13.427  0.1697 -0.1859 -0.2487
14854W        W28268  17.635   9.279   4.517  0.1900  0.0479 -0.3432
14855W        W28269   4.062   2.322  11.374 -0.0235 -0.2626  0.0757
14856W        W28270   8.757  17.818   4.287  0.0519 -0.3309 -0.1606
14857W        W28271   2.636   2.690   1.750 -0.0256 -0.3584 -0.0892
14858W        W28272  16.391   2.637   2.297  0.1133  0.1784  0.0304
14859W        W28273   0.377  10.299  15.527 -0.1663 -0.2790  0.1140
14860W        W28274   4.930   5.429  16.396  0.0008  0.2050  0.1820
14861W        W28275  10.228   6.522   4.676  0.2381 -0.4697  0.3049
14862W        W28276   5.048  14.351   5.712 -0.0501 -0.1569  0.1045
14863W        W28277  15.176  17.930  11.686 -0.3215 -0.0286 -0.1204
14864W        W28278  15.486  12.494   2.966  0.1003  0.1971  0.2455
14865W        W28279  16.654  12.312   2.660 -0.1523 -0.1128 -0.1532
14866W        W28280   4.894   1.079  14.242 -0.0664  0.4841 -0.2535
14867W        W28281   8.821   0.473   2.734  0.0901 -0.3144 -0.0182
14868W        W28282  17.838  12.981   3.943  0.0531 -0.0545 -0.2007
14869W        W28283  11.595  10.741   3.621 -0.2173 -0.1440  0.0506
14870W        W28284   5.614  14.768   3.371  0.0730  0.0045 -0.0106
14871W        W28285  10.323  12.364   2.215  0.0439  0.0994  0.1593
14872W        W28286   7.381  11.468  15.475  0.0297 -0.2479 -0.1460
14873W        W28287  12.543  11.703  13.428  0.2096  0.0969 -0.0511
14874W        W28288   3.100  16.427  11.432 -0.0045  0.0410  0.0641
14875W        W28289   2.412  15.610  10.281  0.1074 -0.0732 -0.0726
14876W        W28290  11.363   3.234  12.484  0.0003 -0.2447 -0.0000
14877W        W28291  10.715   8.367  14.482 -0.0558  0.0060 -0.2220
14878W        W28292   1.187  11.722  14.594 -0.0478 -0.0874  0.4266
14879W        W28293  11.707   5.235  15.941  0.2420 -0.0715 -0.0513
14880W        W28294   0.921   0.583  13.797 -0.1540  0.1050  0.3753
14881W        W28295  15.411  15.545  14.838  0.1906  0.1927 -0.2145
14882W        W28296   5.544  11.697   0.910 -0.2276 -0.0961  0.3475
14883W        W28297   8.447  11.680  13.201  0.0147 -0.0447  0.2664
14884W        W28298   7.075   6.160  11.292  0.1288  0.2605 -0.0741
14885W        W28299  11.229   5.805  16.516 -0.0365 -0.2104  0.1332
14886W        W28300  16.998  12.012   3.013 -0.0907  0.0163 -0.1458
14887W        W28301  15.379   1.832   0.535 -0.2656 -0.3157 -0.1851
14888W        W28302   4.773   2.523   6.003  0.0013 -0.3359  0.1059
14889W        W28303   3.340  15.388   1.615  0.2215  0.1684  0.1579
14890W        W28304  14.258  16.277  12.463 -0.3410  0.1140  0.0418
14891W        W28305  12.344   1.539  13.397 -0.1881 -0.1713  0.0150
14892W        W28306  10.942  11.310   3.468  0.0069  0.2857  0.3891
14893W        W28307   8.462   6.415  12.565  0.1776 -0.1021 -0.1944
14894W        W28308   8.749   9.057  11.816 -0.1198  0.1481  0.2310
14895W        W28309   1.780   8.571   1.041 -0.1459 -0.1363 -0.3023
14896W        W28310   8.388   1.179  14.121 -0.0135 -0.1475 -0.4494
14897W        W28311   2.249  12.328  10.396  0.1031  0.2093  0.0942
14898W        W28312  13.671  12.305  13.356  0.0461 -0.1163  0.0418
14899W        W28313  17.807   3.179   5.285 -0.2181 -0.1579 -0.0260
14900W        W28314  11.447   2.167   1.671  0.2946  0.1712  0.4458
14901W        W28315   6.887   4.928  16.468 -0.2760  0.0091 -0.1532
14902W        W28316   6.970  12.031   2.477 -0.0137 -0.0056 -0.2501
14903W        W28317  13.965   6.901  16.473 -0.0502  0.0195  0.1494
14904W        W28318   4.338   8.409  12.291  0.2793  0.4180  0.0106
14905W        W28319   0.943  10.541  11.502  0.0989  0.0653  0.1383
14906W        W28320  13.909   9.420   1.148  0.2126 -0.0726  0.1422
14907W        W28321  17.918  11.652  15.228 -0.1434  0.0743 -0.1556
14908W        W28322   0.139  10.371   0.464  0.1846 -0.0518  0.3099
14909W        W28323  12.390  11.318   6.054  0.0249  0.2768  0.1801
14910W        W28324  11.963  17.884   0.162 -0.0275  0.0044  0.1160
14911W        W28325   9.332  12.515  15.875 -0.0875  0.0608  0.1141
14912W        W28326  17.018  12.810   0.725  0.3532  0.0005  0.1848
14913W        W28327   5.729  11.251   3.880  0.1820 -0.1271 -0.1736
14914W        W28328   4.730  16.236  12.252  0.1663  0.4632 -0.0030
14915W        W28329   7.183   2.205  15.511  0.2041 -0.3052  0.0913
14916W        W28330  10.604   0.814  15.464 -0.0455 -0.0323 -0.0720
14917W        W28331  15.878   5.872  11.819  0.0634  0.0962 -0.3023
14918W        W28332   6.230   5.698  16.600  0.1421 -0.3635  0.0204
14919W        W28333   6.020  10.452  12.581  0.1258 -0.0179 -0.1044
14920W        W28334  14.288  12.608  16.500 -0.3344 -0.2442  0.3084
14921W        W28335   1.869   8.313  14.415  0.0313  0.0005  0.0409
14922W        W28336  13.680   6.415   0.536  0.1120 -0.2286  0.1148
14923W        W28337  16.236  11.801   1.419  0.1006  0.1665 -0.0540
14924W        W28338   6.744   6.767   1.956  0.0155  0.0299 -0.0607
14925W        W28339  15.891  17.397  16.324  0.2954  0.1273 -0.1174
14926W        W28340   4.298   2.154  13.470  0.1713 -0.0545 -0.3195
14927W        W28341   0.141   3.404   3.783  0.1041  0.0089 -0.3095
14928W        W28342   4.519  14.096   0.465 -0.3554  0.2421  0.1132
14929W        W28343   4.370   9.676   5.438 -0.0944  0.0973 -0.1111
14930W        W28344   0.638   8.614  16.300  0.0636 -0.0994 -0.2927
14931W        W28345   1.078  12.433   3.437 -0.0962  0.4211  0.1352
14932W        W28346   0.837   8.664  15.191 -0.0589 -0.2595  0.0119
14933W        W28347  12.131  15.612  13.714  0.0840  0.0814 -0.1198
14934W        W28348   3.283  11.784   0.341 -0.0027  0.0848  0.1585
14935W        W28349   2.707  13.272   1.599 -0.0048  0.0500  0.0789
14936W        W28350  11.318  17.812  10.408 -0.1874  0.0675  0.2524
14937W        W28351   8.584   5.451  13.375  0.1532 -0.1254  0.2607
14938W        W28352   8.676   0.743   3.407 -0.0866 -0.1479  0.0343
14939W        W28353   3.682   0.961  12.800  0.0046  0.0010 -0.0545
14940W        W28354   6.622  16.303   0.552 -0.1819 -0.1495  0.2280
14941W        W28355   7.777  14.049  11.605 -0.0855 -0.3106 -0.2337
14942W        W28356  13.688   5.629  15.956 -0.0304  0.2003 -0.3918
14943W        W28357   9.105  13.749  12.928 -0.2203  0.0651  0.0627
14944W        W28358   5.509  14.021  12.098  0.1580 -0.2780  0.0459
14945W        W28359   1.873  17.022   4.602  0.1903  0.1233 -0.3526
14946W        W28360   1.755   9.567  15.377 -0.0302 -0.1903 -0.1322
14947W        W28361   8.004   6.690   3.612 -0.1220  0.3585 -0.0359
14948W        W28362   1.468   3.180   0.389  0.1989 -0.1919  0.0563
14949W        W28363  10.659  13.403  11.342  0.1492 -0.2618 -0.1478
14950W        W28364  10.526  12.327  13.567 -0.0097 -0.2409 -0.0865
14951W        W28365  16.035   9.591  16.156 -0.1002  0.1727  0.0098
14952W        W28366   6.772   5.654   1.208  0.1118  0.2508  0.1376
14953W        W28367   7.252   0.597   3.479 -0.0015  0.1636 -0.0364
14954W        W28368  14.811  15.549  14.786  0.0280  0.2966  0.0972
14955W        W28369  12.578  15.471   3.680 -0.1534  0.1568 -0.2221
14956W        W28370  11.566  11.161   6.014 -0.0484  0.1670 -0.3063
14957W        W28371  11.812  16.643  12.875  0.3217  0.0978 -0.0228
14958W        W28372   9.050   2.269   3.618  0.0904 -0.2759  0.2145
14959W        W28373   0.025   2.840  12.813  0.0161 -0.2132  0.0354
14960W        W28374  11.638  11.620  12.834 -0.1485  0.1743  0.0184
14961W        W28375  16.116  15.511   4.175  0.3275  0.1725 -0.0297
14962W        W28376   1.624   8.181   1.209 -0.3662  0.2712  0.1200
14963W        W28377  15.296   4.479   0.390  0.3108 -0.0483 -0.2999
14964W        W28378  10.307   3.026   2.679 -0.0273  0.0632 -0.3499
14965W        W28379   9.771  12.204   1.685  0.2627  0.0197 -0.0439
14966W        W28380   7.402   2.178   0.527 -0.0052  0.0232  0.2334
14967W        W28381   0.259  16.882  14.449  0.1191  0.0877  0.2556
14968W        W28382   7.145  16.223   2.833  0.0905  0.1977 -0.1624
14969W        W28383  13.040  16.428  14.373 -0.2908  0.0085 -0.0225
14970W        W28384   0.283  15.942   6.246 -0.1545  0.0337 -0.4752
14971W        W28385  14.145  11.903  11.972 -0.1721  0.3263  0.0567
14972W        W28386   8.287  15.357   0.797  0.2542 -0.0513  0.0716
14973W        W28387   3.275  10.838  15.972  0.1951 -0.2569 -0.0309
14974W        W28388   0.821  17.220  13.284  0.1971  0.0603 -0.1562
14975W        W28389  17.916  12.118  10.903  0.2586 -0.3375  0.3340
14976W        W28390  17.582   7.684   5.390  0.3209  0.2873 -0.0282
14977W        W28391  10.193  14.379   1.855 -0.0491  0.0181 -0.0954
14978W        W28392   8.443   7.826   6.065 -0.0886 -0.2211  0.0324
14979W        W28393  13.841   3.758  12.719 -0.0644  0.0378  0.2518
14980W        W28394   1.787  11.705   0.063 -0.2564 -0.0172  0.0312
14981W        W28395   5.068   4.546  13.460 -0.0962 -0.2340 -0.0963
14982W        W28396   8.923  11.857  10.894 -0.0363 -0.1794  0.1647
14983W        W28397   8.433   1.753   1.962  0.0961 -0.0500 -0.0563
14984W        W28398   1.670  11.679  13.386 -0.1032 -0.1546  0.1168
14985W        W28399   9.143  14.336   5.357 -0.1051  0.1584  0.3666
14986W        W28400  11.076  17.911   4.308  0.0759 -0.0123  0.4460
14987W        W28401   7.937  10.950   2.536 -0.0441  0.2096 -0.0394
14988W        W28402  17.022  15.037  14.197 -0.1928 -0.0266  0.0465
14989W        W28403   2.382  17.637  16.508 -0.0033  0.1346 -0.0069
14990W        W28404  16.476  14.775  16.073 -0.2918  0.3665 -0.1147
14991W        W28405   0.953  11.477   3.665  0.2202  0.0684  0.0843
14992W        W28406  14.457   3.133  12.322  0.0976  0.3476  0.1336
14993W        W28407  11.853   0.612   2.850 -0.0249 -0.1204 -0.2115
14994W        W28408  17.406   0.140   2.142  0.0645 -0.0872  0.0801
14995W        W28409  13.089   8.128  13.657  0.1577  0.2897 -0.2407
14996W        W28410   5.717  14.446   1.625  0.0324  0.1286  0.0089
14997W        W28411   3.975   7.804  15.392 -0.3934 -0.0200  0.1783
14998W        W28412  13.861  14.957  15.336  0.1611  0.1034  0.0815
14999W        W28413   0.803  17.963   0.137  0.2348  0.1514 -0.1915
15000W        W28414   2.006   0.469   0.063 -0.0488 -0.0464 -0.0688
15001W        W28415   3.159   7.169  13.512  0.1800  0.2588  0.1072
15002W        W28416  16.532  10.998  13.498  0.1329 -0.1299  0.0699
15003W        W28417   7.907   7.331  12.313  0.0258  0.0041  0.1210
15004W        W28418   8.557  14.669   4.604 -0.2930 -0.0529  0.0963
15005W        W28419  14.897   9.443   5.120 -0.0408  0.1528  0.0656
15006W        W28420  15.490  17.631  13.968 -0.0451 -0.1932 -0.0757
15007W        W28421   8.294   2.680  13.795  0.0453 -0.5522  0.1836
15008W        W28422   3.639   5.670   5.695 -0.0011  0.2034 -0.0465
15009W        W28423   8.758   4.055  12.951  0.3875 -0.0764 -0.1364
15010W        W28424   1.035   4.746  14.151  0.0544  0.1041 -0.2185
15011W        W28425   2.995  12.117   0.647  0.0462 -0.1837  0.3011
15012W        W28426   8.880   5.238   3.556  0.2907 -0.2327  0.3336
15013W        W28427  14.082  16.778  13.544 -0.1417  0.1734  0.3832
15014W        W28428  10.322   2.505  15.326 -0.0020  0.0120  0.3364
15015W        W28429  17.396  12.744  10.666 -0.1140 -0.1014  0.1684
15016W        W28430   2.859   1.790  12.238  0.2027 -0.0293 -0.0855
15017W        W28431   9.747   7.897  15.344  0.0058 -0.0402  0.0495
15018W        W28432   3.303  17.394   4.884  0.0078  0.0262 -0.1534
15019W        W28433  12.031  11.161   4.025  0.0081  0.1973 -0.4268
15020W        W28434   0.161   4.391  12.618 -0.0385  0.3956  0.0954
15021W        W28435   4.749  15.519  13.601  0.2423 -0.4254 -0.0320
15022W        W28436  15.711   4.939   6.068 -0.2480  0.2460 -0.3879
15023W        W28437  16.865  15.426  12.014  0.0690 -0.0003 -0.0106
15024W        W28438   0.788   6.883  11.604 -0.0856  0.1129  0.0243
15025W        W28439   1.569   3.963   0.704 -0.0115 -0.1971  0.0006
15026W        W28440   1.130  13.000  14.638 -0.1642 -0.0069  0.2171
15027W        W28441  12.498   4.529   3.599  0.3785 -0.1986  0.1428
15028W        W28442   9.556   5.231  16.371  0.3524  0.0057  0.1794
15029W        W28443   0.195  15.564  11.154  0.0263  0.2142 -0.1553
15030W        W28444  15.736   3.502  13.576  0.0787  0.0732 -0.2375
15031W        W28445   8.010  13.926  11.171 -0.1160 -0.1127  0.1199
15032W        W28446   8.612  14.229  13.336 -0.0244  0.2992 -0.0196
15033W        W28447   8.787   1.405   5.393 -0.0101  0.1197  0.1901
15034W        W28448   9.080   4.259  10.420  0.1120  0.0136  0.1737
15035W        W28449   1.062   0.042   1.329  0.0488 -0.1526  0.0511
15036W        W28450  14.661   5.907   6.353 -0.0830  0.1244 -0.0540
15037W        W28451   3.643   9.547  10.486  0.1644 -0.0087 -0.0453
15038W        W28452  10.104   9.972  11.352 -0.4745 -0.4558 -0.1651
15039W        W28453  17.914   8.722   2.376 -0.0244 -0.0069 -0.2177
15040W        W28454  10.471   0.167  16.194 -0.5814 -0.2207 -0.2466
15041W        W28455   3.979   9.233   0.067 -0.3544  0.1025  0.0602
15042W        W28456  12.038  13.783  12.306  0.0015 -0.2935 -0.1651
15043W        W28457   2.350   6.864  16.225  0.0018  0.2122 -0.0662
15044W        W28458   6.702   6.120  14.024  0.1783  0.0488  0.1302
15045W        W28459  14.710   1.459  14.205  0.1380  0.1063 -0.1617
15046W        W28460   0.987  14.425   1.026  0.0233  0.1472  0.1552
15047W        W28461   2.837   1.662   6.483 -0.0413  0.2270 -0.1356
15048W        W28462   5.044   0.804   4.649  0.0275  0.3430  0.2873
15049W        W28463  11.287  10.357  10.680 -0.0917 -0.0718  0.1906
15050W        W28464   3.734   3.943  11.552 -0.0556 -0.4483  0.0306
15051W        W28465  15.881   3.366  11.700 -0.0724  0.1895 -0.0106
15052W        W28466   6.594  12.092  12.929  0.1949  0.2583 -0.2057
15053W        W28467   8.748  10.296   1.954 -0.1806  0.2251  0.1981
15054W        W28468  12.253  12.851  14.639 -0.4525 -0.1708  0.0734
15055W        W28469  13.252   2.544   5.675  0.1321 -0.0731 -0.0715
15056W        W28470   1.562  18.041  16.081  0.1597 -0.1529 -0.0909
15057W        W28471  13.233   0.312   0.504 -0.1556  0.3488 -0.3279
15058W        W28472   5.222   2.512  10.404 -0.2206  0.1538  0.3573
15059W        W28473  13.203  12.823  14.378  0.0147 -0.1458  0.1828
15060W        W28474   9.948  14.407   5.480  0.1945 -0.0882  0.0292
15061W        W28475   4.659   0.000   2.794  0.2686  0.2740 -0.0965
15062W        W28476   2.320  10.192   2.360 -0.3165  0.0223 -0.0606
15063W        W28477   2.275   8.623   1.322  0.1097  0.2719 -0.0101
15064W        W28478   8.810   1.216   3.824 -0.1565  0.1292 -0.2335
15065W        W28479   1.584   5.387   4.820  0.1295  0.2140 -0.2386
15066W        W28480   4.144   3.404  16.011 -0.0039  0.0041  0.0780
15067W        W28481  13.336   1.735  15.594 -0.0509  0.3742 -0.1336
15068W        W28482  16.013   3.260  12.196 -0.0935 -0.1633 -0.0137
15069W        W28483  12.239   1.692   3.704  0.1064  0.0875  0.2074
15070W        W28484   2.229   6.766  12.483 -0.1884  0.0034 -0.0775
15071W        W28485   3.356   9.778  13.832 -0.0707 -0.0545 -0.3755
15072W        W28486   3.365   2.944  11.854  0.0668  0.0554  0.2258
15073W        W28487  12.109  11.888  11.555 -0.0130  0.0493 -0.0556
15074W        W28488  13.490   6.516  14.281 -0.0841  0.2554  0.2717
15075W        W28489   3.102  10.499  11.120 -0.0369  0.0606  0.3320
15076W        W28490  17.640   7.625  14.430 -0.3482 -0.1635  0.1270
15077W        W28491   0.123   5.327   2.805 -0.0943  0.3674 -0.0465
15078W        W28492   6.037   2.507   5.441  0.0899  0.2190 -0.3630
15079W        W28493   8.426   3.075  11.683  0.1146  0.2778  0.1683
15080W        W28494   2.997   6.426   3.925 -0.0800 -0.0357 -0.5826
15081W        W28495   2.355   5.219  15.773  0.0147 -0.2302 -0.4988
15082W        W28496   1.330   5.631  13.117  0.0632 -0.0632 -0.0178
15083W        W28497   4.626   5.582   4.473  0.0247 -0.2208 -0.1384
15084W        W28498  17.758   5.501  12.173 -0.2664 -0.2703 -0.0608
15085W        W28499  16.910   5.343   5.525 -0.1894 -0.1181  0.2062
15086W        W28500   2.962   3.329  16.388 -0.2609 -0.1851  0.0154
15087W        W28501  11.444   2.295   4.412 -0.0617  0.1904  0.0131
15088W        W28502  15.255   9.101  12.999  0.0218 -0.2926  0.1345
15089W        W28503  17.992  12.740  14.468  0.0851  0.0871  0.0618
15090W        W28504  13.567   3.728   6.078  0.3752 -0.2050 -0.0971
15091W        W28505   9.166   6.459   4.418  0.2623  0.1490  0.2100
15092W        W28506   9.715  10.318  11.162  0.0831 -0.4224  0.1120
15093W        W28507   7.916  13.121   3.474  0.0360  0.0007 -0.2227
15094W        W28508  14.192  17.613   5.310 -0.1509 -0.0303 -0.1830
15095W        W28509  10.384  15.690   0.476 -0.1135 -0.1320  0.0849
15096W        W28510  13.194  12.765  15.632 -0.0537 -0.3595 -0.2043
15097W        W28511  16.054   4.135  10.983 -0.1364  0.1613  0.3787
15098W        W28512   8.919  15.066  16.483 -0.1332 -0.0093  0.2224
15099W        W28513   4.229   4.412  11.990 -0.0296  0.2092 -0.2887
15100W        W28514   4.986   2.426   2.768 -0.4268  0.0385 -0.0184
15101W        W28515   5.004   7.163  12.798  0.0873  0.1000  0.1643
15102W        W28516   1.273  11.446  14.214  0.0107 -0.3815  0.2092
15103W        W28517   8.033  11.391  12.483  0.1854  0.2206  0.3626
15104W        W28518   8.402  17.369   5.224  0.1706 -0.0572  0.2110
15105W        W28519   8.778   3.935  10.726  0.1217 -0.0453 -0.3074
15106W        W28520  17.799  13.913   1.710 -0.0984  0.1929  0.2779
15107W        W28521   0.946   5.411   3.484  0.0203  0.0536 -0.0052
15108W        W28522  12.670  13.673   0.135  0.0244 -0.1275 -0.1445
15109W        W28523  11.926  14.055   0.515  0.1827  0.0265 -0.0368
15110W        W28524   4.671  15.279  16.450  0.1991  0.0700 -0.0262
15111W        W28525   8.677  13.541  11.718 -0.0265  0.3388  0.3323
15112W        W28526   9.236   1.675  15.025  0.0012  0.3125 -0.0197
15113W        W28527  17.795   7.382   3.630 -0.3024 -0.0032  0.0003
15114W        W28528   2.597   7.545  15.519  0.1802  0.0821 -0.3547
15115W        W28529   8.892  12.906  14.250  0.2051  0.1822 -0.3084
15116W        W28530   0.172  15.279   1.719 -0.1400  0.2107 -0.2599
15117W        W28531  10.770   0.768  12.591  0.2037 -0.2587 -0.3448
15118W        W28532   9.535  14.028  16.028  0.0291 -0.0084 -0.0858
15119W        W28533   1.592  11.001   3.137  0.1509 -0.0475  0.4249
15120W        W28534   2.597   4.998   5.931  0.2965  0.1432  0.0679
15121W        W28535  16.042  10.710   2.925  0.0583  0.1520  0.0124
15122W        W28536  13.746   4.581  10.853 -0.1033 -0.0161  0.2453
15123W        W28537  15.039  13.854  14.987 -0.1403  0.0701 -0.0260
15124W        W28538   5.282   7.423  11.721  0.0192  0.0448  0.0358
15125W        W28539   3.430  13.928  16.255  0.2956 -0.0784 -0.0242
15126W        W28540  10.516   5.079  16.693 -0.1977  0.0982  0.2413
15127W        W28541  16.714  12.798  16.555  0.2731 -0.3177 -0.2627
15128W        W28542   7.649   2.829  11.686 -0.1250 -0.2155  0.4170
15129W        W28543   5.009   0.150  14.603 -0.3716  0.2218 -0.0089
15130W        W28544  14.361  12.576  13.938 -0.1078 -0.1619 -0.0607
15131W        W28545   1.679   9.061   0.112 -0.1872  0.1191  0.1037
15132W        W28546   7.523   8.721   4.186 -0.1552  0.2024 -0.2465
15133W        W28547   7.908   4.644   5.329  0.0800  0.0162 -0.2153
15134W        W28548  16.777   6.102   0.415  0.0201 -0.1138 -0.0660
15135W        W28549   4.789  10.557  12.875 -0.0387 -0.0035  0.1373
15136W        W28550   3.785   5.823   5.211 -0.1282  0.0143 -0.1474
15137W        W28551   7.312  13.215  15.766  0.1061 -0.0665 -0.0263
15138W        W28552   6.639  18.005   3.298  0.2945 -0.1125 -0.2041
15139W        W28553  15.434   4.508  12.598 -0.1072 -0.3647  0.0403
15140W        W28554  14.912  10.625  14.997 -0.0723  0.1943 -0.2813
15141W        W28555  16.381   1.888  14.356  0.2572  0.2394 -0.0151
15142W        W28556   2.653   6.866   3.950  0.2716 -0.1919 -0.0564
15143W        W28557   9.122  12.940  10.893  0.3346 -0.1524 -0.2580
15144W        W28558   9.522  14.880   2.976 -0.1620 -0.0351  0.0014
15145W        W28559  10.355  13.317   6.059 -0.0298  0.0816  0.0143
15146W        W28560   3.633  11.530   3.444 -0.0352 -0.0979 -0.1189
15147W        W28561  15.556  14.255  13.542 -0.0012  0.0503  0.1680
15148W        W28562  16.660   9.944   1.042 -0.1036  0.2844 -0.0745
15149W        W28563  13.385   6.069   0.335  0.1628  0.0122 -0.3213
15150W        W28564  11.423   3.089  10.759 -0.0029 -0.0756 -0.3283
15151W        W28565   8.443  16.593   1.476  0.0213 -0.0158  0.0761
15152W        W28566   0.433  15.340  15.240  0.3262  0.1057  0.4942
15153W        W28567  17.189   9.664  13.587  0.0081  0.0170  0.3463
15154W        W28568  11.956   0.711  11.796  0.1992 -0.2450 -0.0017
15155W        W28569  11.684   3.177   0.269  0.3297  0.0366  0.1709
15156W        W28570   6.025   0.080   5.156  0.1522  0.1918  0.0718
15157W        W28571   6.006  14.441  16.688  0.0271  0.0019  0.1215
15158W        W28572   0.954   5.061   5.914  0.1056  0.0847 -0.0545
15159W        W28573   0.214   8.925  16.319  0.1261 -0.0532  0.3212
15160W        W28574   8.156   2.616  16.645  0.3701  0.2300  0.0453
15161W        W28575  15.760   9.948   0.826  0.0298 -0.1287 -0.0554
15162W        W28576  11.190   8.120  12.194  0.1339 -0.0011  0.4485
15163W        W28577  13.230  10.077   6.375 -0.0741  0.0736 -0.2160
15164W        W28578  13.422   9.203   0.907  0.1835 -0.2498 -0.1064
15165W        W28579   0.976   3.159   0.586 -0.0100 -0.0668 -0.1155
15166W        W28580   6.182  17.178   4.871  0.1102 -0.0751 -0.0966
15167W        W28581  12.016  16.082  11.534  0.2031  0.0256  0.0377
15168W        W28582   8.935   4.502  11.564  0.0756 -0.0517 -0.0158
15169W        W28583   9.805   0.397   1.480  0.1736 -0.3158 -0.1541
15170W        W28584   2.919  15.550  12.761 -0.0454 -0.0301  0.1647
15171W        W28585   7.791  13.777  16.452 -0.1642  0.1303 -0.0012
15172W        W28586   9.459   2.933  16.115 -0.1028  0.1143  0.2197
15173W        W28587  10.965  10.866   1.241 -0.1632 -0.1778 -0.0442
15174W        W28588  15.930   1.495  12.915 -0.3249 -0.2248 -0.2947
15175W        W28589   0.351  14.025   3.349  0.1152 -0.2201  0.1559
15176W        W28590  11.909  11.562  15.146  0.0329  0.0300  0.1535
15177W        W28591  10.922  13.229  12.145 -0.0191 -0.4891 -0.0175
15178W        W28592   1.867  12.395  14.501 -0.0518 -0.0482 -0.2155
15179W        W28593  17.167  15.849  11.836  0.1134  0.0991 -0.2583
15180W        W28594   4.938  16.816  15.446 -0.3182  0.0695  0.0797
15181W        W28595   8.102   9.597  14.209  0.3035 -0.0860  0.3865
15182W        W28596   0.913   4.387  12.085  0.2492 -0.3890 -0.0396
15183W        W28597   5.077  15.924  14.942  0.0816  0.0323  0.1575
15184W        W28598   2.390  13.898  13.657  0.1461  0.1347 -0.4938
15185W        W28599   6.088   7.496   4.320  0.2214  0.1271 -0.1322
15186W        W28600  15.228  11.310   2.164  0.0125  0.1061  0.0659
15187W        W28601  10.624  16.291   3.319 -0.1809 -0.0575  0.0170
15188W        W28602  11.348   0.574  14.739  0.1531 -0.3361  0.2607
15189W        W28603   5.398  14.880  13.779 -0.3292 -0.2132 -0.2595
15190W        W28604  16.138   1.588  12.409  0.1010  0.1074 -0.5592
15191W        W28605  15.168   0.857  10.488  0.1003  0.0567  0.1229
15192W        W28606   1.601  12.108   3.486 -0.1211  0.0248  0.0610
15193W        W28607   8.528   9.228  12.338  0.0594 -0.1319 -0.0111
15194W        W28608  14.222   8.647  14.396  0.1070  0.2350 -0.1817
15195W        W28609   8.310   0.212   0.908  0.0500 -0.2708  0.1634
15196W        W28610  12.055  12.826  14.185  0.0458 -0.0359 -0.0997
15197W        W28611  14.173   8.658   1.357 -0.1481  0.1817 -0.0287
15198W        W28612   3.085  15.304   3.902  0.2283  0.1709 -0.3052
15199W        W28613   9.657  14.669   0.735  0.0642  0.0715  0.2399
15200W        W28614  15.887   1.894  15.468 -0.2112 -0.2092  0.2470
15201W        W28615  14.926   6.668  13.193 -0.2717 -0.0389 -0.0016
15202W        W28616   8.962   8.999   1.039 -0.1125  0.0283  0.1129
15203W        W28617  13.040   3.329  10.913 -0.3293  0.3630 -0.0004
15204W        W28618  13.941  15.950  12.892  0.0913 -0.1274 -0.1562
15205W        W28619   0.709   2.511   4.271  0.1511  0.0954 -0.0465
15206W        W28620  12.770   2.953  13.031 -0.3205 -0.1246 -0.0042
15207W        W28621  17.204   6.410   3.972 -0.1419 -0.0744  0.0364
15208W        W28622   8.618  12.001   0.356 -0.1965 -0.1507 -0.1709
15209W        W28623   0.279  12.402  14.166  0.2227  0.0034  0.1597
15210W        W28624   1.157   5.193  14.857 -0.0450 -0.1026  0.0026
15211W        W28625  15.091  12.330  11.168  0.0875  0.1848 -0.0607
15212W        W28626   1.920  10.687   3.396  0.1929  0.0320 -0.0880
15213W        W28627  16.714  12.537   0.273 -0.0712 -0.2069 -0.0121
15214W        W28628   7.677   8.774   1.602  0.2200 -0.1113  0.1526
15215W        W28629   8.755  16.317   5.536 -0.1115 -0.0605 -0.0845
15216W        W28630   4.504  12.735   5.183 -0.3303 -0.0222  0.1493
15217W        W28631  17.446  18.055   4.275 -0.0030  0.2234  0.1417
15218W        W28632   5.053  17.962  15.029  0.1749  0.2886  0.0772
15219W        W28633   7.265  16.822  12.872  0.0822  0.0242 -0.1671
15220W        W28634   7.401  16.653   3.719  0.5238 -0.1634 -0.0701
15221W        W28635   1.378  14.452  15.349  0.1567 -0.1283 -0.1964
15222W        W28636  16.196  14.219  15.713 -0.2781 -0.0277  0.0169
15223W        W28637  17.261   4.455   0.249  0.0477 -0.0415 -0.0502
15224W        W28638  16.070  16.118  15.145  0.0026  0.1891 -0.0604
15225W        W28639   3.898   7.491   3.397  0.0759  0.0201  0.2216
15226W        W28640   4.172   6.296  11.745 -0.2262 -0.1629  0.0158
15227W        W28641   6.273   6.249   0.822 -0.1030 -0.4281  0.1210
15228W        W28642  12.237   9.055   3.560 -0.0440 -0.1096  0.2007
15229W        W28643   5.495   8.978   1.859 -0.2669 -0.1313  0.2690
15230W        W28644   2.858   0.970   1.363  0.4306  0.2312 -0.0277
15231W        W28645  12.728   0.438   5.503  0.1738 -0.0162 -0.0310
15232W        W28646   6.688   4.532  12.631 -0.1620  0.2139  0.0667
15233W        W28647   0.619  14.776   2.989 -0.0640 -0.1949  0.0553
15234W        W28648  10.957  11.249   5.211  0.0548  0.4075  0.1654
15235W        W28649  15.405  12.283  16.681  0.3464  0.0006  0.2424
15236W        W28650   3.895  13.100  11.418 -0.0997  0.0427  0.0414
15237W        W28651   1.983   7.521  10.646  0.0736 -0.1190 -0.0187
15238W        W28652  10.350   0.673  14.986  0.4533 -0.1868 -0.0903
15239W        W28653  13.105   0.026  11.961 -0.0140 -0.2672  0.4495
15240W        W28654   4.308  12.131  14.208 -0.3941  0.1662  0.0893
15241W        W28655  11.298   3.436   0.407 -0.2737 -0.2221 -0.0584
15242W        W28656   1.895  13.813   6.364 -0.1827 -0.2077 -0.2491
15243W        W28657   0.711  13.907  15.927  0.2307 -0.0264  0.1210
15244W        W28658  10.358  10.061  10.953  0.1394  0.0804 -0.0183
15245W        W28659   9.715  18.022   4.940 -0.1798 -0.0788  0.0839
15246W        W28660  10.319   8.453   3.576 -0.2577  0.2289 -0.1412
15247W        W28661   9.655   9.592  14.955  0.3333  0.1894 -0.2987
15248W        W28662  11.786  10.588  11.428  0.1388 -0.0277 -0.0874
15249W        W28663  13.330  14.491  13.817 -0.0051  0.0369 -0.0330
15250W        W28664   6.013   9.553  14.015  0.4045 -0.0908  0.1717
15251W        W28665  15.692   7.192   4.197  0.0058  0.0315  0.2459
15252W        W28666   5.457   9.016  15.221 -0.0181  0.1481 -0.1044
15253W        W28667  12.404  12.487  16.414  0.2434  0.2172 -0.1605
15254W        W28668  16.539  15.703   2.045  0.1016  0.1615 -0.0489
15255W        W28669   6.253   9.905  13.034 -0.0297  0.0940  0.0041
15256W        W28670   2.890   4.899  10.927 -0.0004 -0.1409 -0.1065
15257W        W28671  18.041   2.545  15.798 -0.1809  0.1860  0.0363
15258W        W28672  13.854   5.367   2.186 -0.0686  0.1546  0.0520
15259W        W28673  12.119   0.135   4.832  0.0518 -0.1490 -0.2411
15260W        W28674   1.945   0.110   5.115 -0.0025 -0.1633  0.1076
15261W        W28675  16.286   4.412  10.427  0.2442  0.1772 -0.2235
15262W        W28676   4.017  13.566  11.351  0.0002 -0.3280  0.0199
15263W        W28677   8.067   1.812  10.922  0.1535 -0.2182 -0.0012
15264W        W28678  16.329   3.987   3.010  0.2274  0.1340 -0.2065
15265W        W28679  11.388  13.968   4.267 -0.0603 -0.0493 -0.0614
15266W        W28680  15.201   8.232   2.250  0.2365  0.3725  0.1359
15267W        W28681   5.058  16.834   1.722 -0.4020  0.1296 -0.2348
15268W        W28682   0.090   8.399  12.163 -0.1779 -0.3984 -0.1724
15269W        W28683   0.535  13.129  10.391  0.0014 -0.3852 -0.3285
15270W        W28684   0.396  15.497   2.109 -0.1044  0.0140  0.1923
15271W        W28685  12.389   6.905  12.484  0.2084 -0.3274  0.1711
15272W        W28686  12.740  13.207  15.739 -0.0464  0.2462  0.0140
15273W        W28687  16.103  10.366   5.824  0.0440  0.0828  0.0033
15274W        W28688  14.525   5.755  10.858 -0.0300 -0.0113 -0.2381
15275W        W28689   8.715   8.608  15.626 -0.1287  0.2152  0.0867
15276W        W28690  12.650   3.879  16.101  0.1792 -0.0443 -0.0145
15277W        W28691   1.150  17.751  16.361  0.0842 -0.0413  0.0508
15278W        W28692   0.123   2.175  15.450 -0.0767  0.1580  0.3376
15279W        W28693   3.269  10.828   1.382  0.3027 -0.1502  0.2206
15280W        W28694   0.921  12.908   3.518  0.0816  0.2034  0.1176
15281W        W28695  17.874   7.834   5.018 -0.0926 -0.0385  0.1248
15282W        W28696   0.551  12.934  12.342  0.0681  0.1604 -0.1291
15283W        W28697  11.433  12.267  12.242  0.1314  0.1156  0.1994
15284W        W28698   6.788  17.224   2.653 -0.1104  0.3762  0.1037
15285W        W28699  14.513  13.453   4.120 -0.1833 -0.1233 -0.0343
15286W        W28700  14.914  16.076  15.780 -0.1728 -0.1483  0.0346
15287W        W28701  12.947  17.883  15.170  0.3040 -0.0672  0.0457
15288W        W28702   5.144   2.613  12.157  0.1282 -0.0313 -0.0411
15289W        W28703  13.017  16.831   4.004  0.3249  0.3099  0.0810
15290W        W28704  14.344  13.854  11.523  0.1063 -0.2221 -0.0679
15291W        W28705   6.385   6.100  10.524 -0.1659  0.1855 -0.2722
15292W        W28706  14.168   6.383  13.555 -0.0631 -0.1594 -0.2331
15293W        W28707   0.563   4.388  15.079 -0.0618  0.2855 -0.0866
15294W        W28708   8.870  17.071  13.547  0.0952  0.0015  0.2571
15295W        W28709  16.585   7.991  13.617  0.2008 -0.1805  0.1357
15296W        W28710  12.682   7.663  12.106 -0.0565 -0.1569  0.1905
15297W        W28711  14.728   9.266   0.869  0.2789  0.0105 -0.0072
15298W        W28712   6.105   8.605  11.563  0.3086 -0.2590 -0.0392
15299W        W28713   8.436  16.995   4.467 -0.0145 -0.2079  0.1933
15300W        W28714   0.821   3.307   1.564  0.0543  0.1003  0.0599
15301W        W28715  12.465   1.502  13.863 -0.0523  0.1151 -0.0875
15302W        W28716  11.028   6.262  16.120  0.1178 -0.0042 -0.4958
15303W        W28717   1.040   8.326  13.629  0.1356 -0.0932  0.2738
15304W        W28718  13.425   1.302  15.297 -0.0347 -0.2457  0.0876
15305W        W28719   8.229   1.962  15.344  0.0550  0.2692 -0.0733
15306W        W28720  11.677  12.281   9.932  0.0361 -0.2073 -0.2122
15307W        W28721   8.119   0.724  13.052  0.0760  0.1847  0.2593
15308W        W28722   0.597  15.913   4.520  0.0879  0.1131 -0.0030
15309W        W28723  13.790  11.816   4.361  0.2157  0.0439  0.3231
15310W        W28724   6.105  16.826   0.862 -0.1139  0.2139  0.1674
15311W        W28725   7.962  18.040   0.660  0.1643 -0.1873  0.1625
15312W        W28726  13.670   4.307  13.821  0.0463  0.0642  0.1847
15313W        W28727   9.857   3.255  15.411 -0.1529  0.0244 -0.2251
15314W        W28728   2.537  15.158   3.152  0.1373 -0.0759  0.0656
15315W        W28729  17.383   0.421   1.147  0.2458  0.4236  0.0674
15316W        W28730   2.711   8.448  12.589  0.1371 -0.1569 -0.0612
15317W        W28731   1.664   1.511  11.224 -0.0236 -0.2080 -0.1132
15318W        W28732   9.881   6.198   5.506  0.0240  0.2698  0.1079
15319W        W28733   8.499   1.553   9.917 -0.2312 -0.1902  0.0963
15320W        W28734   3.596  15.241   3.977 -0.0574 -0.0243  0.0440
15321W        W28735  12.718   5.609   3.396 -0.0321 -0.1142 -0.1081
15322W        W28736   3.720  11.995   0.186 -0.2831 -0.0851  0.2025
15323W        W28737   9.680   2.836   2.659 -0.1880 -0.2876 -0.0407
15324W        W28738   3.889   9.253  15.698 -0.0184 -0.1050 -0.0458
15325W        W28739  17.105  13.293  10.760 -0.1594  0.0920 -0.3204
15326W        W28740   2.937   5.749   2.834  0.1889 -0.0972  0.2728
15327W        W28741   9.396   5.444  15.934 -0.0172 -0.5216 -0.0003
15328W        W28742  13.857  10.097   2.615  0.1714 -0.0925  0.2195
15329W        W28743   5.228   0.859   3.826  0.1700 -0.1889 -0.0520
15330W        W28744   0.363   2.333   0.683 -0.0715  0.2019 -0.4315
15331W        W28745   1.188  16.706   0.123 -0.2123 -0.1944  0.0548
15332W        W28746  12.670   0.082  14.744  0.0481 -0.0542 -0.2040
15333W        W28747  11.569  11.960   5.606 -0.3143 -0.0529  0.0177
15334W        W28748   8.067  15.360   4.923 -0.0637  0.0190  0.2374
15335W        W28749   5.641   7.061   1.510 -0.3528  0.1324 -0.0822
15336W        W28750  12.833  11.698  14.705  0.1045 -0.1931  0.0714
15337W        W28751   5.425   5.996   3.190  0.1038  0.0137  0.2246
15338W        W28752  13.445  17.484   0.699 -0.0520  0.2364  0.2846
15339W        W28753   4.821   6.036  15.716  0.1600 -0.0711  0.0832
15340W        W28754  15.882  13.763   4.008  0.2245  0.2393  0.2268
15341W        W28755   4.410   2.094  12.185  0.2937 -0.4126 -0.0759
15342W        W28756  17.660  16.107  16.092  0.0622  0.0926 -0.0488
15343W        W28757  14.629   6.290   3.909  0.0921  0.2183 -0.0021
15344W        W28758   6.576   5.938  16.166 -0.0859 -0.2524 -0.1162
15345W        W28759   3.061   5.319  12.043 -0.1703 -0.0099 -0.2396
15346W        W28760  12.009   6.092  11.639  0.1823  0.2250 -0.0904
15347W        W28761   0.836  11.217  16.421  0.2758 -0.2143  0.0186
15348W        W28762   8.869  14.997   1.659  0.0640  0.1595 -0.1109
15349W        W28763  15.529   2.098   5.479 -0.0454 -0.1296  0.0179
15350W        W28764  15.938  10.770   5.527 -0.0324  0.1467 -0.4320
15351W        W28765  11.096  17.066  15.693 -0.1391  0.0637  0.0705
15352W        W28766  12.434   9.224   5.643 -0.0433 -0.0054 -0.1689
15353W        W28767   0.936   8.283   1.313  0.0502 -0.2884 -0.1272
15354W        W28768   3.652  15.728  11.602  0.0491 -0.2492 -0.2774
15355W        W28769   5.221  16.408  14.572 -0.0511 -0.0550 -0.0368
15356W        W28770   5.811  12.270  15.201 -0.0157 -0.1659 -0.2199
15357W        W28771   7.559  11.949   0.708 -0.0692  0.3322  0.0194
15358W        W28772  11.067  12.523  13.424 -0.3292 -0.4560 -0.1371
15359W        W28773   1.785  13.237   4.496  0.1516 -0.0123 -0.1179
15360W        W28774   6.434   2.488  16.409  0.0808  0.0315  0.0991
15361W        W28775   6.897   7.212  13.174  0.0527  0.2492 -0.0048
15362W        W28776  13.489  15.198  14.003 -0.2093 -0.1496 -0.0901
15363W        W28777   1.541   7.953  14.315  0.2715  0.1878 -0.0448
15364W        W28778   9.780   7.170  10.827 -0.0011  0.1113  0.0730
15365W        W28779   4.507  11.041   1.663  0.0334 -0.0787 -0.1996
15366W        W28780   1.285  15.244   1.747 -0.1199 -0.0305 -0.2265
15367W        W28781   0.205  10.374   3.218  0.2947  0.1017 -0.0850
15368W        W28782   0.753   0.148   5.688 -0.0847  0.1299 -0.0310
15369W        W28783   7.792  15.105   5.941  0.1032 -0.3015  0.0079
15370W        W28784   3.142   6.643  13.999 -0.2217  0.1047  0.0678
15371W        W28785  13.019   5.205   5.967  0.0315  0.2374 -0.2150
15372W        W28786   3.219   5.152   1.591  0.2132 -0.1838  0.1220
15373W        W28787  12.993  13.312  14.734 -0.2832  0.0378  0.1873
15374W        W28788   7.620  17.864   3.154 -0.1743  0.3229  0.1297
15375W        W28789   1.937   0.430   4.293 -0.0414 -0.0565 -0.4106
15376W        W28790   4.946   1.055   0.677  0.0226 -0.0692 -0.1982
15377W        W28791   4.191  14.393   5.314  0.0477 -0.0006 -0.0004
15378W        W28792  12.262   5.803   0.207  0.0014  0.0121 -0.0404
15379W        W28793   2.936  13.104  15.949 -0.0444 -0.0412  0.1749
15380W        W28794  13.518  16.361   1.919 -0.0094  0.1510 -0.1532
15381W        W28795  13.258  17.099  15.502 -0.4252  0.2365  0.0185
15382W        W28796  15.466  17.179  13.015 -0.1848  0.0105 -0.1330
15383W        W28797   4.861  12.579   2.678  0.1455 -0.0891 -0.0111
15384W        W28798   1.198   5.415   1.558 -0.2659  0.0058 -0.1107
15385W        W28799  12.611   6.250  15.259  0.0927 -0.0836  0.0786
15386W        W28800  11.080   6.757  13.375  0.0839 -0.0308 -0.1742
15387W        W28801   9.692   1.151   1.133  0.2377  0.1229  0.1321
15388W        W28802  15.372   6.888   5.016  0.1331 -0.0183 -0.1298
15389W        W28803   5.046  17.791  16.172 -0.2725  0.1323  0.1312
15390W        W28804  17.127   2.070   3.619 -0.0644  0.0451 -0.0120
15391W        W28805   5.225   5.753   2.274 -0.2392  0.0955  0.2041
15392W        W28806  12.100   8.526   0.398 -0.0216  0.0860 -0.0609
15393W        W28807  10.920   8.046  16.586 -0.0402 -0.1799  0.0592
15394W        W28808  15.918  11.070  16.505  0.2101  0.0230  0.1197
15395W        W28809  16.867   6.990  16.636 -0.2612 -0.0467 -0.2119
15396W        W28810  15.102  17.900   2.994  0.0443 -0.0323  0.0389
15397W        W28811   4.629   3.211  12.232  0.0002 -0.2267 -0.1321
15398W        W28812  17.895   5.577   3.820 -0.1766  0.2260  0.0290
15399W        W28813  15.096   1.696   1.792 -0.1151 -0.0894 -0.3393
15400W        W28814   3.004   7.239  12.828  0.0735  0.2869 -0.3872
15401W        W28815   4.537  10.034  16.356 -0.2834 -0.4802  0.0706
15402W        W28816  14.661  14.795  12.947 -0.0573  0.1382 -0.2819
15403W        W28817   0.592  14.020   4.141  0.2261  0.0168  0.2164
15404W        W28818  15.594   4.363   4.712  0.1970 -0.3575 -0.0521
15405W        W28819  14.109   4.522  12.120 -0.0400 -0.2666 -0.0038
15406W        W28820  12.136   7.394   0.898  0.0563 -0.4104  0.1591
15407W        W28821  11.511  14.305  11.566  0.1480  0.0566  0.1626
15408W        W28822  16.277   4.822   3.972 -0.0653  0.0610  0.4467
15409W        W28823  10.448   8.452  15.107 -0.1631  0.0096  0.1773
15410W        W28824  14.255  13.784  12.251  0.0204  0.0121  0.0457
15411W        W28825   9.739   0.759  15.295 -0.0737 -0.1631 -0.1295
15412W        W28826   2.087  13.092   4.856  0.0664  0.2187  0.2471
15413W        W28827   9.300   0.288  13.826 -0.0923  0.1011  0.0464
15414W        W28828   5.074   5.003  16.255 -0.0816 -0.2081  0.4422
15415W        W28829   5.033   5.647   1.246 -0.0787  0.0782  0.2734
15416W        W28830  13.807   6.776  13.707 -0.0032 -0.0033 -0.0608
15417W        W28831   5.562   1.210   4.754 -0.0326  0.1821 -0.1738
15418W        W28832   1.004  16.305   0.851 -0.0398  0.0439 -0.0211
15419W        W28833   1.420   3.867   4.264  0.0481 -0.2704  0.0401
15420W        W28834  11.537  10.372   3.905  0.2538  0.0327 -0.1685
15421W        W28835   1.615  11.895   3.960 -0.1011 -0.1093  0.1620
15422W        W28836  11.680  14.021  11.944  0.0406  0.3489  0.1131
15423W        W28837  17.844   4.094  15.079 -0.1197 -0.4289  0.1847
15424W        W28838  13.576   6.435   5.314 -0.0542  0.2216 -0.1215
15425W        W28839   1.255  15.810   3.404 -0.0477 -0.0718  0.2459
15426W        W28840   6.214   7.951   1.444  0.1059 -0.0523 -0.1444
15427W        W28841  13.014   6.963  11.742  0.3292 -0.1197 -0.0463
15428W        W28842   0.119   2.576   6.431  0.2670 -0.1352 -0.1828
15429W        W28843  17.942   1.015   4.869 -0.2684  0.1379  0.1240
15430W        W28844  17.871  10.790   2.529 -0.1535  0.1080 -0.0091
15431W        W28845   9.976   8.055   3.614  0.2097  0.0390  0.2939
15432W        W28846  15.932  13.805  16.151 -0.1762  0.0179 -0.1716
15433W        W28847  14.224  14.912   3.397  0.0243 -0.0343  0.2783
15434W        W28848   3.739  12.601   1.776 -0.0986  0.0558  0.0586
15435W        W28849  17.326  13.063  13.076 -0.0282 -0.0112 -0.1909
15436W        W28850   8.894   7.976   3.188  0.0262  0.3532 -0.0791
15437W        W28851  14.653  14.077   4.802  0.0021  0.3149  0.2481
15438W        W28852   2.530  13.526  14.473  0.1617  0.0643  0.2455
15439W        W28853   0.267   1.789   4.483  0.1724 -0.2567 -0.3023
15440W        W28854   5.845  16.695  16.687 -0.0371  0.1803 -0.0116
15441W        W28855   1.744  17.277   3.143 -0.0227  0.1866  0.2510
15442W        W28856   5.334   6.524   3.913 -0.2509  0.0665 -0.1162
15443W        W28857  16.189   2.112  11.568 -0.0659  0.0584 -0.2311
15444W        W28858   0.943   3.109  16.398 -0.0007  0.1115 -0.0252
15445W        W28859  10.600   9.110   5.507 -0.3205  0.1899  0.1176
15446W        W28860   9.230  16.460  12.955 -0.1980  0.0324 -0.1208
15447W        W28861  15.149  13.983  11.808 -0.0106  0.0808 -0.0094
15448W        W28862  15.826  11.340  13.289  0.2695  0.0353  0.0636
15449W        W28863  11.785   2.634  12.462 -0.0254 -0.1899  0.0119
15450W        W28864  15.250   1.732  13.654 -0.2048 -0.1339  0.0101
15451W        W28865   1.490  13.107  12.063  0.3047 -0.4070 -0.0261
15452W        W28866  12.363  15.165  10.683 -0.0159 -0.1588  0.1596
15453W        W28867  12.252   7.657  11.851  0.2492  0.1775 -0.1405
15454W        W28868   5.022  12.107   5.187  0.0188  0.2203 -0.0839
15455W        W28869  16.542  11.879   5.975  0.2081  0.0705  0.0625
15456W        W28870   1.505  17.116   0.110 -0.1855  0.0066 -0.2116
15457W        W28871  10.761   6.608  11.726 -0.1589 -0.1564 -0.1265
15458W        W28872  15.377  17.363   0.427  0.0213  0.0019  0.3611
15459W        W28873   1.900   1.301  12.334  0.1866 -0.0549 -0.0735
15460W        W28874   0.064   8.364   0.867 -0.0730  0.1412  0.1186
15461W        W28875  16.064   5.100  12.447 -0.2106 -0.0932 -0.1849
15462W        W28876  17.303   0.462   5.615 -0.1500 -0.0543 -0.0515
15463W        W28877   3.509  16.884   3.567 -0.1263 -0.1025  0.0620
15464W        W28878  14.646   7.449  11.418 -0.1588  0.0757 -0.4036
15465W        W28879   6.276   9.461   3.413 -0.1189  0.3736 -0.0422
15466W        W28880   8.741   1.279   3.270  0.1855 -0.1254  0.2553
15467W        W28881   3.467  13.503  16.670 -0.1399  0.0577  0.1636
15468W        W28882  14.092   6.167   1.105 -0.0875 -0.0995 -0.2076
15469W        W28883   7.589   9.205  14.361  0.0699  0.0097  0.0206
15470W        W28884   3.004  11.397   2.083  0.1476 -0.2521  0.1818
15471W        W28885  11.939  17.835   2.840  0.2675  0.0497 -0.1900
15472W        W28886   1.905  17.616  16.016 -0.4445  0.3133 -0.0152
15473W        W28887  16.634  13.432   3.425  0.0563 -0.1863 -0.2521
15474W        W28888   3.415   2.596   5.197 -0.0077  0.2701  0.0886
15475W        W28889  15.666  10.795  14.575  0.0476  0.0509 -0.1270
15476W        W28890   0.458   3.229  12.507 -0.1066  0.2008  0.0897
15477W        W28891   7.159   8.714   4.635  0.2076 -0.0120 -0.2863
15478W        W28892   0.459   1.761   6.014 -0.1203 -0.0418 -0.3801
15479W        W28893   5.147   4.618   4.470  0.4154  0.0080  0.0225
15480W        W28894   8.530   3.352   1.822 -0.0968  0.0710  0.0971
15481W        W28895   5.173   1.665  10.190  0.0092 -0.2416 -0.1053
15482W        W28896  15.639   7.468   5.813  0.1432 -0.1859  0.1375
15483W        W28897  12.101   9.944   5.493  0.0392 -0.0820  0.1421
15484W        W28898  10.835  16.635   4.129  0.1630 -0.1591  0.1326
15485W        W28899  15.299   7.518  12.132  0.1845  0.0083  0.1906
15486W        W28900   1.231  12.542  16.020 -0.0067  0.0737  0.2171
15487W        W28901   4.837   6.871   1.462 -0.0455  0.0411  0.1022
15488W        W28902   1.438  10.342   0.616 -0.0019 -0.1063 -0.1691
15489W        W28903   2.844  13.622   5.446 -0.2847  0.0429  0.4158
15490W        W28904   3.799  11.262  14.636  0.1284 -0.0424  0.3087
15491W        W28905  14.916   2.409   2.907  0.0157  0.0419 -0.0990
15492W        W28906  16.463   0.899  11.389 -0.0123  0.1100  0.3237
15493W        W28907   8.146  11.275  10.888  0.1353  0.1126 -0.2946
15494W        W28908  10.178   9.593   0.109 -0.0263 -0.1669  0.0749
15495W        W28909   6.276  15.685   5.889  0.0924  0.1182  0.1736
15496W        W28910   3.240   3.986  11.890  0.0933  0.2673 -0.1825
15497W        W28911  11.161  13.127   3.376 -0.0286 -0.0537  0.2295
15498W        W28912   1.001  14.033  11.909  0.4408  0.1986  0.0142
15499W        W28913  13.392   8.477   3.933 -0.1116 -0.1733 -0.1828
15500W        W28914  16.122   5.963   5.411  0.1150 -0.2867 -0.0936
15501W        W28915   7.459   1.629   4.900 -0.0698 -0.0930  0.2837
15502W        W28916   3.353  16.817  15.907  0.0623  0.2175  0.3175
15503W        W28917   6.818   5.595   5.975 -0.0341 -0.0267  0.0450
15504W        W28918   7.268   5.194   5.244 -0.1321  0.0382  0.0311
15505W        W28919  13.791  15.483   4.449 -0.0176  0.0902 -0.0521
15506W        W28920   4.196   6.330   2.112 -0.0871 -0.1469 -0.1622
15507W        W28921  12.319   5.195  10.599 -0.0203  0.1287  0.3097
15508W        W28922  14.011  17.037   5.886  0.3719 -0.0619 -0.0527
15509W        W28923  12.140  14.821  14.706 -0.1371  0.0692  0.0589
15510W        W28924   4.251  11.135   5.425 -0.2498  0.1538 -0.1108
15511W        W28925  17.071   8.143  15.626  0.1425 -0.0945  0.1353
15512W        W28926   8.708  15.395   5.655 -0.0532 -0.2693 -0.0270
15513W        W28927  16.450   6.641  12.931  0.0364 -0.0789  0.1166
15514W        W28928   8.725  12.340   1.802 -0.0254 -0.0320  0.0379
15515W        W28929  12.084  14.772  10.860 -0.0297  0.1006 -0.0596
15516W        W28930  10.699   7.534   3.678  0.1220  0.0273  0.0273
15517W        W28931   5.592  14.722  11.618 -0.0883  0.0079 -0.2264
15518W        W28932  11.205   0.155  14.994  0.0060  0.0312  0.1631
15519W        W28933  17.535   3.920   4.228 -0.0459  0.0383 -0.0049
15520W        W28934  11.464   3.201   0.847  0.0837 -0.0067  0.1241
15521W        W28935   5.998   1.084  12.173  0.2745  0.4004 -0.2644
15522W        W28936  14.347  14.461  11.776  0.2221 -0.0287 -0.0371
15523W        W28937   4.171   9.375   1.145  0.0929  0.0439  0.1435
15524W        W28938  13.591  16.841  11.383 -0.0615 -0.0258  0.2210
15525W        W28939  13.275   3.580   5.603  0.3260  0.1778  0.1148
15526W        W28940   2.594  13.275  12.974  0.3142  0.0065  0.0557
15527W        W28941  13.848  14.138  16.021 -0.2569  0.1480  0.3153
15528W        W28942   4.111  16.183  12.973  0.0370 -0.1910  0.1661
15529W        W28943  12.317  17.962   2.247  0.3883  0.0332  0.3215
15530W        W28944   7.087  15.861  12.635 -0.1159 -0.2199  0.2705
15531W        W28945   0.161   7.330   4.278  0.1310 -0.0657  0.1203
15532W        W28946  12.011  10.091   5.975 -0.0271  0.2213 -0.1483
15533W        W28947  17.140   0.861   3.418 -0.0564 -0.1108 -0.2126
15534W        W28948   8.258  17.043  11.198  0.0960 -0.1599  0.4326
15535W        W28949   9.882   1.532   0.848 -0.0002 -0.0124 -0.1470
15536W        W28950   2.612  11.442   4.704 -0.0626  0.0408 -0.2609
15537W        W28951   9.034   4.003   4.690  0.3374  0.0494 -0.2081
15538W        W28952  15.805  13.424   4.754  0.0217  0.0354 -0.0446
15539W        W28953   0.668  12.313   2.048  0.0463  0.0722 -0.2395
15540W        W28954   2.847   2.131  10.841 -0.1797 -0.3125 -0.0022
15541W        W28955   0.730   1.004   4.401 -0.0066  0.0826  0.1898
15542W        W28956   3.721   0.223   3.377  0.1332  0.1512 -0.1312
15543W        W28957  13.249   4.062  12.070  0.0106  0.1693 -0.2550
15544W        W28958   6.708  14.646  13.109  0.1853 -0.0213 -0.0057
15545W        W28959   5.117  12.716   4.618  0.2376 -0.0595 -0.0525
15546W        W28960  11.027   2.725  10.066  0.0283  0.0812 -0.1808
15547W        W28961   1.659   7.216  11.352  0.1794  0.1548 -0.0537
15548W        W28962  13.065   1.063  14.982 -0.2662 -0.2561 -0.0996
15549W        W28963  10.606  14.056   6.518  0.0419 -0.1245  0.0778
15550W        W28964  12.351  12.711  11.596 -0.0356 -0.0843  0.2594
15551W        W28965  10.216   9.755   3.665 -0.1833 -0.2149  0.1024
15552W        W28966  10.007   3.830  12.365 -0.0477 -0.1266  0.0266
15553W        W28967   0.604   7.810  14.337  0.3646  0.2820  0.0852
15554W        W28968   4.412   8.145  13.523 -0.0531 -0.1815 -0.0111
15555W        W28969  10.723   3.832  11.562  0.1014 -0.0557  0.0058
15556W        W28970   1.831   0.311   0.628  0.2389 -0.2886 -0.1775
15557W        W28971  16.192  13.517   4.309 -0.0434  0.1393 -0.1416
15558W        W28972   6.870  16.723   1.442  0.2868  0.2688 -0.2591
15559W        W28973   6.258   8.142   5.508  0.1243  0.3067  0.1325
15560W        W28974   4.792  11.529  12.647  0.1369  0.1243  0.1341
15561W        W28975   0.970  12.407  10.816  0.0274 -0.1038 -0.0336
15562W        W28976  17.778   9.073   0.094  0.0824 -0.0945 -0.2384
15563W        W28977   4.912   8.254  12.546  0.0333  0.3142 -0.0611
15564W        W28978   3.291   0.024  11.738  0.1111 -0.1785  0.0315
15565W        W28979  14.726   2.254  16.643  0.0517 -0.2702  0.1324
15566W        W28980  15.788   0.046  15.558 -0.0072  0.0765  0.2332
15567W        W28981   2.845   5.858  12.240  0.3317 -0.0538 -0.5175
15568W        W28982  10.969   6.111  15.640  0.3745 -0.2088 -0.0803
15569W        W28983   5.864   4.822  10.741 -0.0705  0.0701  0.0819
15570W        W28984   2.226   1.451   4.454 -0.3066 -0.3931  0.2636
15571W        W28985  16.140  12.362  12.324  0.2809 -0.1847 -0.1862
15572W        W28986  17.295  10.256  14.347 -0.0018  0.0728  0.1282
15573W        W28987   0.388   2.898  13.298 -0.0062 -0.2283  0.0683
15574W        W28988  16.808   6.999  14.182  0.0746  0.1667 -0.0165
15575W        W28989   7.030  14.498   5.382  0.3443  0.0347  0.3667
15576W        W28990   1.579  15.548  10.480  0.4404  0.0284 -0.1320
15577W        W28991   4.899   8.623  11.200  0.1596 -0.0379  0.0015
15578W        W28992   2.324   0.584  15.826 -0.1472  0.3062 -0.0008
15579W        W28993  11.783  10.133   1.780  0.0888  0.2370  0.1801
15580W        W28994  15.129  17.084  14.879  0.1159  0.2957  0.1267
15581W        W28995   0.297  11.106  11.839 -0.2172 -0.2287 -0.1292
15582W        W28996   9.891  11.754   1.731 -0.3046  0.0835  0.1293
15583W        W28997   8.354  13.035  12.993 -0.0748 -0.2854  0.0738
15584W        W28998  11.717   6.688   4.716  0.1038 -0.0108 -0.0048
15585W        W28999  11.835   3.275  16.474  0.1556 -0.0919 -0.0076
15586W        W29000  12.635  14.797  14.917  0.0362  0.0871  0.1365
15587W        W29001  12.481   6.067   0.650 -0.0447 -0.2400  0.0043
15588W        W29002  13.577   4.084  13.020 -0.2881  0.1187  0.0009
15589W        W29003   0.106   3.518   0.259 -0.2907 -0.0361 -0.0420
15590W        W29004   8.077  17.386  13.943 -0.0223 -0.1854 -0.0662
15591W        W29005   2.889  15.013  11.982 -0.0428  0.3539 -0.0948
15592W        W29006   5.400   3.755   0.424  0.0153 -0.0586 -0.3329
15593W        W29007  12.360  12.585   1.430  0.1247  0.1439  0.0575
15594W        W29008   6.544   1.121   0.759 -0.0446  0.0888  0.3129
15595W        W29009  16.374  12.183   1.680  0.0870 -0.3303  0.0395
15596W        W29010  14.566   7.598   1.976  0.0261  0.0982  0.1280
15597W        W29011  14.604   5.270   0.226 -0.0720  0.0296  0.2080
15598W        W29012  14.585   1.173  11.049 -0.0507  0.2217  0.0278
15599W        W29013   2.548   1.989   0.563  0.1885 -0.3446 -0.0435
15600W        W29014   5.529   2.743  12.497 -0.0532  0.0898 -0.0542
15601W        W29015  16.465   4.804  13.505  0.2261  0.1093 -0.3636
15602W        W29016   1.030   3.313   6.174 -0.2430 -0.2076  0.0561
15603W        W29017   2.917  14.362   2.851 -0.1519  0.2358  0.1840
15604W        W29018  12.644  16.684   5.996  0.0116 -0.0257 -0.1919
15605W        W29019  14.901  12.998   3.496 -0.1581 -0.0221  0.0262
15606W        W29020   5.947  10.324  13.093 -0.2269 -0.0192  0.0477
15607W        W29021  14.371   2.693  13.609  0.0499 -0.2976 -0.0239
15608W        W29022   7.601  15.997   4.790 -0.1657 -0.2067 -0.1284
15609W        W29023   6.350   9.156   6.323 -0.0615 -0.3502  0.0600
15610W        W29024   8.285   8.555   0.382  0.0846  0.1978 -0.4081
15611W        W29025   8.294   7.187   5.772  0.0083  0.0959 -0.0670
15612W        W29026   4.831  17.644   4.417 -0.3705  0.1511 -0.0665
15613W        W29027   8.980   4.557   6.218  0.4114 -0.1262 -0.1242
15614W        W29028  16.675   1.512   1.098  0.0687  0.0181 -0.1896
15615W        W29029   7.941   3.117   0.736 -0.1504  0.3259 -0.0003
15616W        W29030   0.857  13.357   3.326  0.1111 -0.2213  0.1068
15617W        W29031  13.860   9.526   2.894 -0.1563  0.1243 -0.2502
15618W        W29032  11.048  16.546  14.559  0.1373 -0.0205  0.1017
15619W        W29033  10.099  13.910  11.899 -0.0246 -0.3291 -0.2372
15620W        W29034   8.821   1.489  14.116  0.0133 -0.0637 -0.2098
15621W        W29035   8.102   6.084   0.935 -0.0976  0.2120  0.0058
15622W        W29036  11.565   5.313   4.817  0.1417  0.0891  0.0811
15623W        W29037   5.705  13.983  10.288  0.2597  0.1633  0.1138
15624W        W29038   7.267  17.562   2.760  0.0366  0.0776 -0.1094
15625W        W29039  12.828  16.108   1.365  0.0359 -0.0754  0.1780
15626W        W29040   3.597   1.615   1.166 -0.0746 -0.0242 -0.0878
15627W        W29041   1.616   2.940   1.275  0.1544  0.0079  0.3178
15628W        W29042  10.907  13.954   5.472  0.1642 -0.1936 -0.0918
15629W        W29043   2.953  12.182  13.957  0.1305 -0.3421 -0.0552
15630W        W29044  17.024  11.274  15.111 -0.1561 -0.1180 -0.2757
15631W        W29045   2.572   1.255   5.198  0.0092 -0.0921  0.0529
15632W        W29046   9.934   1.628   5.290  0.3088 -0.2184 -0.1710
15633W        W29047  12.436  13.199  13.962 -0.0963  0.0087 -0.2827
15634W        W29048  16.534  15.821  13.013  0.0094  0.0852 -0.0730
15635W        W29049  10.953   2.203  16.557 -0.0629 -0.1562 -0.1832
15636W        W29050  15.968   6.120  14.665 -0.2621 -0.0461  0.0028
15637W        W29051  13.255   0.598  15.295 -0.0870  0.0597 -0.0456
15638W        W29052  16.367   8.758  14.775  0.0520  0.2696  0.3852
15639W        W29053  13.537  15.699  13.078 -0.2075 -0.2330 -0.2675
15640W        W29054  10.955   1.352  16.067  0.0374 -0.2109  0.3571
15641W        W29055  14.311   7.238   3.883  0.3977 -0.0580 -0.0781
15642W        W29056  15.932  13.953   5.563 -0.0728 -0.0619 -0.1865
15643W        W29057   4.264   3.067  11.880 -0.2040 -0.1180  0.0810
15644W        W29058   7.177   8.993  13.291  0.0467 -0.3121 -0.4191
15645W        W29059   2.769  16.761   1.741  0.0754 -0.2077 -0.1964
15646W        W29060   5.432  15.859  16.137  0.2578  0.1202 -0.0896
15647W        W29061  13.923  15.264  14.784  0.1332  0.2994  0.1063
15648W        W29062  16.332   4.716  12.228 -0.0430  0.1141  0.2702
15649W        W29063   0.516  16.570  11.282 -0.1210 -0.1421  0.4110
15650W        W29064   6.749   4.544   4.651  0.2435  0.2614 -0.0965
15651W        W29065   8.418  18.007  10.883  0.1072  0.0670  0.0834
15652W        W29066   5.412  17.446   1.183 -0.0909  0.1148 -0.2915
15653W        W29067  13.942  16.775   3.658  0.0521  0.0268  0.0251
15654W        W29068  10.691   8.792  14.194 -0.0792 -0.1478  0.1198
15655W        W29069   5.984   9.904   4.253 -0.1674 -0.0797  0.0370
15656W        W29070  14.529   8.126   2.047 -0.1814  0.1216 -0.3038
15657W        W29071   4.161   0.649  14.394 -0.2177  0.1433  0.1901
15658W        W29072   7.625   3.258  13.882  0.1002 -0.0124  0.2263
15659W        W29073   0.507  12.963  14.777  0.1554  0.1468 -0.2309
15660W        W29074  15.915  13.203  10.788  0.1068 -0.1395 -0.2128
15661W        W29075  15.686  15.299  16.064 -0.0004 -0.1509 -0.1033
15662W        W29076   9.444   1.423  12.374  0.0039  0.1830  0.1135
15663W        W29077   8.010  12.436  12.328 -0.2133  0.1441  0.1327
15664W        W29078  14.893   6.591  15.456 -0.2123 -0.2953  0.0551
15665W        W29079  17.291   3.017   4.122  0.0813 -0.0964  0.1091
15666W        W29080  12.945  14.409   0.419  0.0259  0.0773 -0.2332
15667W        W29081   1.246   4.601   3.207 -0.3228 -0.2190  0.1236
15668W        W29082   5.164   4.394   5.666  0.2924  0.1036  0.1659
15669W        W29083   2.465   0.349   6.606 -0.1834 -0.0182  0.1748
15670W        W29084   2.543  18.012   5.677 -0.2452 -0.1881  0.0139
15671W        W29085  11.239   1.775   0.698  0.1161  0.1001 -0.1017
15672W        W29086  16.794   5.777  16.276 -0.0533 -0.0968  0.1470
15673W        W29087  12.476  10.133   2.733 -0.0850 -0.1497  0.0573
15674W        W29088   6.084  10.649   3.040  0.0002 -0.3476 -0.1948
15675W        W29089   7.657   5.423  13.509 -0.0975  0.0617 -0.0240
15676W        W29090  17.117   1.526   0.040  0.2530 -0.1958 -0.0487
15677W        W29091   3.410  12.965   2.578 -0.3066 -0.1650  0.2245
15678W        W29092   3.639   7.024   1.528 -0.0637  0.1362  0.1233
15679W        W29093   1.125   5.955   4.198 -0.1399 -0.2018 -0.1778
15680W        W29094  11.977   7.257   5.895 -0.1201  0.3822  0.1283
15681W        W29095  12.497   8.062  13.912 -0.1526  0.1966  0.1960
15682W        W29096   9.102  11.525   1.507 -0.0268  0.2079 -0.2942
15683W        W29097  10.111   2.372   4.714 -0.0768  0.0066 -0.2462
15684W        W29098   0.877  14.398   4.589  0.2651  0.1735  0.0391
15685W        W29099   1.416  18.002  12.979 -0.3446  0.2555 -0.1899
15686W        W29100   6.172   8.691   4.796  0.1072 -0.3049  0.0653
15687W        W29101   0.012   2.919   3.641  0.2363 -0.2283 -0.1841
15688W        W29102   1.113   2.027  13.269  0.1225 -0.0580  0.1785
15689W        W29103  15.996   3.745  13.158 -0.0623 -0.2194  0.0698
15690W        W29104   5.529  14.055  14.851  0.1790 -0.0142  0.4298
15691W        W29105   1.243   7.893   1.224  0.0803  0.1215 -0.0739
15692W        W29106   4.673  15.745  16.557 -0.0942  0.0884 -0.0692
15693W        W29107  11.868  15.248  14.592 -0.1667 -0.0114 -0.0957
15694W        W29108   9.950  17.702   3.632  0.1186  0.1410 -0.1214
15695W        W29109  11.385   8.652  15.949  0.1965  0.0021 -0.1243
15696W        W29110   9.482  17.255   0.059  0.0013  0.0959 -0.0573
15697W        W29111   7.822  16.853  16.643 -0.2057 -0.0190  0.1533
15698W        W29112   3.150   2.293   6.110  0.1879  0.0477  0.1744
15699W        W29113   6.678  16.499   0.080 -0.0590  0.0252 -0.1637
15700W        W29114  13.766   8.306   0.535 -0.0485 -0.0636  0.0738
15701W        W29115   4.497  12.692  15.494  0.3308 -0.1992 -0.1310
15702W        W29116   0.418   4.872   1.467  0.1324  0.0049 -0.1497
15703W        W29117   2.874  17.522   4.437  0.0967 -0.1935  0.2514
15704W        W29118   1.705   8.709   2.881 -0.2858 -0.0911  0.0368
15705W        W29119  14.884  14.979   6.139 -0.1802  0.2308  0.0690
15706W        W29120  12.851   9.503  11.972  0.3258  0.2312  0.2485
15707W        W29121  15.411   4.257   5.254  0.3107  0.1948  0.2795
15708W        W29122   9.273   9.386  15.716  0.0041  0.0916 -0.0150
15709W        W29123  14.022   0.533   1.051  0.0105  0.0304  0.0835
15710W        W29124  13.922  10.527  14.025  0.2209 -0.2447 -0.1082
15711W        W29125  16.789   6.393  15.725 -0.1655  0.2386 -0.0782
15712W        W29126   0.513   5.905   6.149 -0.2812  0.0274  0.0064
15713W        W29127  11.127  10.788   3.178 -0.1398  0.0391 -0.0519
15714W        W29128   5.751  14.281   3.743 -0.0337  0.0872  0.1825
15715W        W29129   4.407  11.686  11.504  0.2704 -0.1835  0.0999
15716W        W29130  10.147  16.573   1.004  0.3394 -0.0451  0.0731
15717W        W29131  14.582  11.610  12.773 -0.0535 -0.0462 -0.0173
15718W        W29132  12.496  16.625   0.195 -0.0209  0.0134  0.1011
15719W        W29133   0.930   1.800   2.420  0.1352  0.2833 -0.0734
15720W        W29134   0.262   6.928   0.371  0.0141 -0.0750  0.0728
15721W        W29135   8.210   2.370  14.780  0.0639  0.1477  0.1505
15722W        W29136  17.052   0.800   2.748 -0.4557 -0.0485  0.3717
15723W        W29137   8.641   3.750  14.721  0.0806 -0.0566 -0.0820
15724W        W29138  14.896   0.922   1.539  0.1351 -0.0750  0.1167
15725W        W29139  16.739   3.440  15.495 -0.2811 -0.2035  0.2243
15726W        W29140  15.867  17.020  11.648  0.1392 -0.0701  0.0106
15727W        W29141  17.401   0.322  10.995 -0.3871  0.2169 -0.0155
15728W        W29142   8.735   1.918  13.786  0.2109  0.2523 -0.0545
15729W        W29143   9.626  10.397   6.466 -0.2349  0.1034 -0.1424
15730W        W29144   7.438  13.457  14.527  0.0630  0.0696  0.0124
15731W        W29145  10.718  10.960   2.515 -0.3539  0.2428  0.0992
15732W        W29146   2.769   8.610   3.579  0.0081 -0.0813  0.0200
15733W        W29147  10.856   1.484   5.199  0.0214 -0.1145 -0.0498
15734W        W29148  13.840   7.964  11.554  0.0796 -0.2671  0.0710
15735W        W29149   3.276   5.196  12.519 -0.0529 -0.0939 -0.3240
15736W        W29150  15.176  12.797  11.425 -0.1384  0.2118  0.0720
15737W        W29151  17.769  14.443  11.050 -0.2363 -0.2780  0.1953
15738W        W29152   3.650   4.351  12.074  0.0586 -0.3538  0.1011
15739W        W29153   5.559  13.764  13.686  0.0561 -0.3437 -0.2101
15740W        W29154   7.080  15.984   4.560 -0.1640  0.0356  0.0479
15741W        W29155   1.008  12.136   4.182 -0.2121  0.2015 -0.1057
15742W        W29156   4.384   7.649  13.914 -0.1476  0.1944  0.2445
15743W        W29157  16.714  16.526   3.333  0.2161 -0.1801 -0.2399
15744W        W29158   8.201  10.714  14.764  0.0067 -0.0102 -0.2470
15745W        W29159  10.525  17.863   0.515  0.2008  0.1406  0.1129
15746W        W29160   7.680  12.079  16.359  0.2729  0.0579  0.0757
15747W        W29161  13.514   1.906   2.903 -0.0610 -0.1927  0.4634
15748W        W29162   4.583   2.016  13.939  0.1585 -0.0769  0.2869
15749W        W29163   8.520   2.830   0.234  0.0378  0.2258  0.2147
15750W        W29164   3.956  15.914  15.489  0.3195  0.0050 -0.2498
15751W        W29165  13.591   9.116   5.359 -0.0803  0.0612 -0.1731
15752W        W29166   7.527   0.890  15.243  0.2748  0.1683 -0.0114
15753W        W29167   1.521   1.264   6.929 -0.1217 -0.0329  0.4618
15754W        W29168   0.399   2.678   3.415 -0.1415  0.0275 -0.0027
15755W        W29169  15.463  13.109   0.434  0.1118  0.2525  0.2257
15756W        W29170  11.859   3.965  12.594  0.1602  0.0816  0.2861
15757W        W29171   0.168   6.556  14.371  0.2329 -0.0403 -0.2521
15758W        W29172   0.689   9.717  11.716 -0.3119 -0.0641 -0.0098
15759W        W29173  12.267  13.254  11.463 -0.0005  0.0612 -0.0542
15760W        W29174   9.250  12.004   6.295 -0.0148 -0.0441 -0.1370
15761W        W29175   7.218   1.934   1.965  0.2648  0.2372  0.0756
15762W        W29176  15.638   6.255  11.626  0.0096 -0.0011 -0.1430
15763W        W29177   7.130   2.963   0.371  0.2396  0.2969  0.2246
15764W        W29178  15.794  10.198   4.779 -0.3409  0.3301  0.0368
15765W        W29179   1.122   3.453  13.708 -0.2179  0.1217 -0.0715
15766W        W29180   0.353   6.968  15.944  0.1261 -0.0164 -0.0583
15767W        W29181  17.744  16.682   5.302 -0.0022  0.2398 -0.0783
15768W        W29182  17.340   5.086   5.915  0.0455  0.0080  0.0650
15769W        W29183   1.422  14.401   0.641 -0.3555 -0.1808  0.2816
15770W        W29184  10.885  11.128  15.437 -0.0355 -0.0025 -0.1987
15771W        W29185  15.471  17.988  10.892  0.1134  0.1145  0.2005
15772W        W29186   4.293   4.190   0.669 -0.0268 -0.1625  0.0969
15773W        W29187   1.223   2.493   2.869 -0.0168  0.0273  0.0062
15774W        W29188  11.994  15.202  12.540  0.2476  0.1571 -0.0076
15775W        W29189   2.192   4.502  11.196 -0.0284  0.1205 -0.0056
15776W        W29190   2.151  16.800   4.172  0.0397 -0.0238 -0.1331
15777W        W29191  13.664  16.514  11.862  0.5105  0.0766 -0.1960
15778W        W29192  17.631   5.824  15.550 -0.1397  0.0496 -0.0571
15779W        W29193  12.087  12.858  16.572  0.1125 -0.2551 -0.1179
15780W        W29194   2.836   3.546   5.127 -0.1392  0.1505 -0.0434
15781W        W29195   1.041  15.737  16.671 -0.0132  0.1639  0.3357
15782W        W29196   2.922  11.610  14.180  0.1214 -0.1779  0.0928
15783W        W29197   2.888  10.753  11.983  0.1544  0.1932 -0.0864
15784W        W29198  11.401   3.547   4.740  0.2233 -0.1114  0.2345
15785W        W29199   5.577   2.446  16.269 -0.1062  0.2253  0.0477
15786W        W29200  16.936  17.992   2.206 -0.1760  0.0647  0.1983
15787W        W29201   1.013  13.542   0.695  0.0692  0.2812 -0.0163
15788W        W29202  11.891   0.468   5.121 -0.0915  0.0872  0.2790
15789W        W29203  10.208  14.383  15.768  0.1131 -0.1074  0.0481
15790W        W29204  12.499  16.385   2.519 -0.0020 -0.0923  0.0302
15791W        W29205   5.263   9.276  14.155  0.0836 -0.0584  0.1514
15792W        W29206   5.286  13.967  11.235 -0.0019 -0.0092 -0.2883
15793W        W29207   8.375   3.032   4.658 -0.2922 -0.0034 -0.1915
15794W        W29208   6.805   4.078   3.793 -0.0779  0.1294 -0.2064
15795W        W29209  13.871   0.294   4.369  0.2777  0.0787  0.0954
15796W        W29210   6.582  10.588  15.912  0.0359  0.1735 -0.3512
15797W        W29211  10.649  12.840  15.964 -0.0208  0.2094  0.3367
15798W        W29212   3.495   0.056  12.779  0.3877  0.1269 -0.1183
15799W        W29213  10.202   4.193   0.374 -0.1971 -0.0930 -0.1999
15800W        W29214   3.613  17.869   3.722  0.0564 -0.2755 -0.0612
15801W        W29215  10.376  16.317   4.226 -0.2107  0.1338  0.2808
15802W        W29216  12.717   2.958   1.167 -0.0993  0.3066  0.0860
15803W        W29217  10.999   8.214   1.459 -0.0989  0.1197 -0.1781
15804W        W29218  12.400  16.389  11.665  0.3232  0.0564  0.2932
15805W        W29219   4.812  13.696  14.341 -0.0096  0.0068 -0.1328
15806W        W29220   4.417   3.933   0.045 -0.1890 -0.1879  0.0536
15807W        W29221   8.676   2.422   5.333  0.0832 -0.0319  0.0184
15808W        W29222   2.046   0.840  11.626 -0.4384 -0.1346 -0.1143
15809W        W29223   6.086  10.281   6.397 -0.2465 -0.0306  0.5382
15810W        W29224  17.627   0.803   2.461  0.0088  0.0166  0.0682
15811W        W29225  15.296  13.632   1.364  0.3708  0.0528 -0.1890
15812W        W29226   9.348  11.710   5.512 -0.1845  0.3202 -0.1455
15813W        W29227  14.521  17.849  10.859 -0.0117 -0.0944 -0.3906
15814W        W29228   0.739   0.210   3.622  0.0744 -0.0060  0.0348
15815W        W29229  16.310  13.187   6.067 -0.1374 -0.0439 -0.0238
15816W        W29230  10.673   1.094  14.020 -0.0466  0.1636  0.1884
15817W        W29231  12.922  14.146  10.553 -0.1273  0.0194 -0.2933
15818W        W29232   8.822  16.190   3.963 -0.0636  0.0106 -0.2849
15819W        W29233  17.787  14.740  12.152  0.1266 -0.2255  0.0877
15820W        W29234   4.408   7.204  14.270 -0.0887  0.2509  0.0310
15821W        W29235  17.882   5.020   1.405 -0.0230 -0.1944  0.1120
15822W        W29236  11.257   7.365   0.461  0.0240  0.0071  0.2850
15823W        W29237  15.111   6.150  16.354 -0.0278  0.0958  0.1908
15824W        W29238  13.777   8.228   5.444 -0.1756  0.0278  0.0373
15825W        W29239  10.553   1.865   3.692  0.0814 -0.1767 -0.0137
15826W        W29240   6.937  12.513  15.571  0.1637  0.0637 -0.0436
15827W        W29241   6.278   8.726   3.092 -0.0569  0.0349  0.0329
15828W        W29242   9.800  15.474   3.497 -0.3677  0.1743 -0.2167
15829W        W29243  11.957   8.641  13.974 -0.0375 -0.1150 -0.0310
15830W        W29244   1.636   6.814   2.887 -0.0513  0.0464 -0.0834
15831W        W29245  10.884  13.188  10.890 -0.2671  0.0476 -0.0559
15832W        W29246   3.301  17.788   2.093  0.0908  0.2796 -0.0272
15833W        W29247   0.657  14.273  11.285  0.1597  0.2200 -0.1506
15834W        W29248  10.642   1.894  13.520 -0.2598 -0.1300 -0.2471
15835W        W29249  15.869   9.569  15.082 -0.1256  0.1016 -0.0952
15836W        W29250   9.240   9.246  11.486 -0.0552 -0.0216  0.1256
15837W        W29251  14.094   5.189  15.009 -0.1063  0.2033 -0.1096
15838W        W29252  16.153  15.601   5.103 -0.1596 -0.0640 -0.1161
15839W        W29253  14.580  10.443   0.300 -0.0082  0.1086  0.0342
15840W        W29254  12.373  17.296   3.385 -0.3210 -0.0672  0.2016
15841W        W29255  14.859   2.146   1.411 -0.2589  0.1049  0.3308
15842W        W29256  11.921   3.091  14.627 -0.2522 -0.0182  0.0525
15843W        W29257  14.171  11.192  13.260  0.4308  0.5414  0.0336
15844W        W29258  10.933  14.014  10.773  0.4364 -0.2187  0.0242
15845W        W29259   6.212   6.364  13.945  0.1038  0.1588  0.0704
15846W        W29260  15.454   6.399   3.346  0.1552 -0.1164  0.1623
15847W        W29261   4.779   2.912  12.589  0.1893  0.2280 -0.0308
15848W        W29262   1.870   9.239  12.525  0.0162  0.0416  0.1435
15849W        W29263   2.528   9.521   3.453  0.4670  0.0320 -0.0197
15850W        W29264  12.285  16.890  11.569  0.1458  0.0537 -0.1483
15851W        W29265   3.193  17.508   5.847  0.0569 -0.1208 -0.3519
15852W        W29266  14.203   5.705  16.025 -0.0839  0.0072  0.2200
15853W        W29267  10.132   0.884  14.623 -0.2671 -0.2312 -0.1532
15854W        W29268  10.951   1.468  13.417 -0.2102 -0.0980  0.1647
15855W        W29269  15.393   5.539   1.819  0.1408  0.0331  0.0148
15856W        W29270   1.205   7.380  15.803  0.4347  0.1495 -0.2898
15857W        W29271   5.101   4.373  12.973 -0.3004 -0.1064 -0.1133
15858W        W29272  13.268   8.734  13.751  0.0312  0.1203 -0.1039
15859W        W29273   4.779   4.269   3.162  0.1192  0.1265  0.1351
15860W        W29274  14.721   6.204  14.376 -0.3148  0.4025 -0.0331
15861W        W29275  15.750   6.824   4.687  0.1164 -0.0644 -0.2930
15862W        W29276   6.416  13.772   4.057  0.2594 -0.1028  0.1136
15863W        W29277   3.417   4.866  16.531  0.1189 -0.1293 -0.0629
15864W        W29278  13.739  15.500  14.328  0.0831  0.2376  0.0574
15865W        W29279  10.204   0.975  16.604 -0.0797 -0.0973  0.0912
15866W        W29280  17.883  15.570   3.469  0.2961 -0.3708  0.1949
15867W        W29281   7.611  15.456  13.026  0.0019  0.0473 -0.1340
15868W        W29282  12.967   1.150  14.508  0.0788 -0.4534  0.3786
15869W        W29283  14.741  11.114   3.518 -0.0783  0.2347  0.2239
15870W        W29284  17.333   1.823   6.347  0.2259 -0.1499 -0.1529
15871W        W29285   8.995  16.527  13.465 -0.1744 -0.1933 -0.2269
15872W        W29286   6.149   3.331  10.832  0.0474 -0.0632 -0.0889
15873W        W29287  16.247  15.627  15.310  0.1250  0.0563 -0.1292
15874W        W29288  11.344   0.389   0.828  0.0581 -0.1799 -0.0961
15875W        W29289  15.138  14.738  12.822 -0.0107  0.1149  0.2351
15876W        W29290   5.172   9.168   3.750 -0.0356  0.0147  0.1841
15877W        W29291   7.513   3.179  12.128 -0.3866  0.1592  0.4763
15878W        W29292  15.572  17.854  15.950  0.2298 -0.1190 -0.3665
15879W        W29293  12.075   9.209  15.413  0.1730  0.0708 -0.1784
15880W        W29294   2.664   4.836   1.054 -0.0346 -0.1215  0.1040
15881W        W29295   3.988   7.482  11.497 -0.0229 -0.0690 -0.0382
15882W        W29296  13.987  15.458   1.804  0.1774  0.0691  0.1209
15883W        W29297   6.638   6.181  13.095 -0.0308 -0.1781  0.3548
15884W        W29298   5.273  16.979   0.684 -0.1242  0.2609 -0.1153
15885W        W29299   2.538  12.125   4.119  0.2959 -0.1719 -0.0545
15886W        W29300   1.379   1.810  15.913  0.0282  0.2833  0.0323
15887W        W29301   3.396   0.656   2.487  0.1291  0.0842 -0.0474
15888W        W29302   8.877   1.704  15.928 -0.0401  0.1172 -0.1536
15889W        W29303  11.795   4.447  12.411 -0.0992  0.1377 -0.0716
15890W        W29304   3.954  15.615   3.274  0.0318 -0.0135  0.1214
15891W        W29305  15.451   8.515   1.806 -0.0056 -0.2374 -0.3978
15892W        W29306  15.845   2.786  12.863 -0.0299  0.2840 -0.1737
15893W        W29307  11.630   6.861  15.899 -0.2099  0.2224 -0.0460
15894W        W29308   9.466   3.940  10.331 -0.1563 -0.0404  0.0875
15895W        W29309  13.655  13.433   5.242 -0.3497  0.2015 -0.2620
15896W        W29310  12.527  14.172  11.549  0.4170 -0.1920  0.1195
15897W        W29311  15.993  12.983  15.076  0.0832 -0.1455  0.0691
15898W        W29312   2.230   4.797  15.544  0.0716  0.4105  0.2904
15899W        W29313   4.915   4.763   2.187 -0.0473 -0.1553 -0.3172
15900W        W29314   3.459   0.467  11.957  0.0801  0.3646 -0.0794
15901W        W29315   6.296  13.028   0.459 -0.3453 -0.0412  0.0378
15902W        W29316  13.485   0.956  12.794  0.0374 -0.0079 -0.2158
15903W        W29317  14.684  16.995  13.530 -0.0335 -0.2029  0.2589
15904W        W29318   4.584   9.818  14.388 -0.0264 -0.2330 -0.1780
15905W        W29319  13.142   6.585   6.659 -0.0922 -0.1436 -0.1784
15906W        W29320   9.055   5.920  10.557 -0.0931 -0.3374 -0.2729
15907W        W29321   0.631   9.517   3.018 -0.0440 -0.0137  0.0520
15908W        W29322  13.349   1.029   0.456 -0.0063 -0.0317 -0.1569
15909W        W29323  13.805   7.780  16.621 -0.1164  0.0938  0.0331
15910W        W29324   0.579  15.655  14.086  0.1155  0.0020  0.0493
15911W        W29325   1.392  15.711   4.631 -0.0224  0.0116  0.0830
15912W        W29326  11.794   8.627   4.345  0.1668  0.0912 -0.1516
15913W        W29327   9.423   6.711   2.562  0.3385  0.1030 -0.1295
15914W        W29328  15.252   1.287   1.372  0.1896 -0.0467 -0.2840
15915W        W29329  15.570   7.639   5.004  0.2608 -0.1672  0.3980
15916W        W29330  14.536  10.700   2.578  0.2584  0.0457  0.2682
15917W        W29331   5.172   4.920  14.735  0.0729 -0.2378  0.1841
15918W        W29332  14.641  10.665  14.589 -0.4374 -0.1277  0.1207
15919W        W29333  14.665   9.978   3.126  0.3290 -0.2437 -0.0352
15920W        W29334   4.314   5.406  14.501  0.0553  0.0791  0.0490
15921W        W29335  13.686   4.476   1.240  0.0504  0.0205  0.2295
15922W        W29336   1.572  14.301  14.070 -0.2254 -0.0612  0.0396
15923W        W29337  11.780   9.907  14.123  0.0261 -0.1126  0.1338
15924W        W29338   5.401  15.930  14.008  0.1414  0.2559 -0.0795
15925W        W29339   4.957   4.301   4.098  0.0784 -0.0065 -0.0481
15926W        W29340   2.586  14.102  15.530 -0.0885 -0.2204  0.0709
15927W        W29341   1.628   6.893   4.173 -0.1241  0.2392 -0.0638
15928W        W29342   8.054  14.482  12.289 -0.2900  0.1286  0.3439
15929W        W29343   5.787   4.014   4.758 -0.1765  0.0545 -0.0430
15930W        W29344  11.581   5.621  13.726 -0.0662  0.0038  0.0166
15931W        W29345   4.980  13.563   4.806 -0.0291 -0.1591  0.0808
15932W        W29346   2.236   1.199  11.983  0.0346 -0.0919  0.0851
15933W        W29347  13.851  17.300  16.219 -0.1750 -0.0562 -0.2542
15934W        W29348  11.854  17.822   0.682  0.0491  0.0669 -0.3192
15935W        W29349   5.303  13.398   2.850  0.0158  0.3294 -0.2864
15936W        W29350   1.912   5.329   0.117  0.0631  0.0192 -0.0249
15937W        W29351  11.469  14.945   2.656  0.0505 -0.1864  0.1496
15938W        W29352   6.459  17.052  12.581 -0.3482  0.1165  0.1807
15939W        W29353   3.117  17.708   2.568  0.2073  0.0036  0.0170
15940W        W29354  10.701   6.130   2.390  0.1532 -0.0506  0.1698
15941W        W29355  17.781   7.056  16.419 -0.0406 -0.2365 -0.0240
15942W        W29356   8.111  16.446  13.554  0.0814  0.0516 -0.1149
15943W        W29357   6.412   1.572  15.657  0.1817  0.2299 -0.1439
15944W        W29358  12.136  14.053   3.740  0.2035 -0.0728 -0.1022
15945W        W29359  13.641   1.945  16.538 -0.2036  0.0203  0.0526
15946W        W29360   1.273  15.304  14.797 -0.0819 -0.2439 -0.2419
15947W        W29361   4.377   8.617   1.651  0.0664 -0.1195 -0.3772
15948W        W29362   1.228  14.533  11.897  0.1155 -0.2696  0.0427
15949W        W29363   6.158  12.576  15.172 -0.0122  0.1401 -0.0214
15950W        W29364   3.215   5.323   2.059 -0.4337  0.2471  0.2453
15951W        W29365  12.621   8.878   2.063 -0.1375 -0.0927  0.1008
15952W        W29366  15.767   4.504  15.700  0.0252 -0.0194  0.0041
15953W        W29367   3.132  16.775   0.047 -0.0471  0.0578 -0.1201
15954W        W29368  10.049   0.481   3.260 -0.0748  0.0945 -0.1763
15955W        W29369  13.161   9.477  15.113 -0.4671  0.2245  0.1807
15956W        W29370   0.650   7.173   2.651  0.1612  0.1713  0.2622
15957W        W29371   3.746  15.654   0.900  0.1662  0.1931 -0.1220
15958W        W29372   9.132  16.572  11.333 -0.0023  0.2494  0.1414
15959W        W29373  10.895   0.250   2.996 -0.2336 -0.1148  0.1955
15960W        W29374   0.862   6.550  13.883 -0.0384 -0.1478  0.3385
15961W        W29375   9.457  11.760  13.482  0.3240  0.0654  0.2163
15962W        W29376   3.784   5.164   2.687  0.0167  0.1181  0.0060
15963W        W29377  13.032  16.217  16.244  0.2013  0.0980  0.1212
15964W        W29378  18.028   3.420   5.721 -0.1971  0.4497  0.0402
15965W        W29379   8.610  17.182  12.104 -0.0535  0.1582  0.2224
15966W        W29380   2.144  17.645  12.757  0.2429  0.0980 -0.2528
15967W        W29381   6.277  12.185  16.624  0.0999  0.2895 -0.3150
15968W        W29382  13.985   4.725   0.470  0.0665 -0.2352 -0.3667
15969W        W29383   8.077   9.815  11.132  0.0163  0.0325 -0.3744
15970W        W29384   5.158  17.464   4.754  0.0720  0.3536 -0.0135
15971W        W29385  16.748   4.290   3.209  0.3104 -0.0089 -0.4763
15972W        W29386  11.565   7.673   1.383 -0.0523 -0.2827 -0.1382
15973W        W29387  17.431  14.562   4.372  0.1027 -0.0222 -0.0780
15974W        W29388   9.778   8.690   1.202  0.0646  0.3940 -0.0193
15975W        W29389   0.859   2.374  14.891  0.0095  0.2368  0.1236
15976W        W29390  14.028  11.104  10.670 -0.0556  0.1234 -0.3153
15977W        W29391   8.812   3.815   0.705  0.1047  0.0208  0.2457
15978W        W29392   7.503   0.296   3.113 -0.0164 -0.0074  0.0161
15979W        W29393  17.509   0.779   3.039  0.4192 -0.2599 -0.0750
15980W        W29394   0.221   7.096   3.453  0.0264  0.0189  0.0003
15981W        W29395   0.158  14.954   2.344  0.0705  0.2364  0.3408
15982W        W29396   6.318   4.650  10.490  0.1564 -0.3156 -0.0307
15983W        W29397   6.749   7.496   5.108 -0.0192  0.0412  0.0978
15984W        W29398  11.643   1.883  14.928  0.4267  0.1666  0.0453
15985W        W29399   8.182   5.626  13.066  0.1440  0.1365 -0.2482
15986W        W29400   0.733   5.796   4.852  0.2638  0.5435  0.1612
15987W        W29401   5.344   9.731  16.052 -0.1421  0.0585  0.1480
15988W        W29402   7.509   4.892  15.388 -0.0896 -0.0332  0.1335
15989W        W29403   1.334   9.910  14.061 -0.0116  0.2113 -0.0598
15990W        W29404   8.988  13.767   4.742  0.0097  0.3212 -0.0599
15991W        W29405  17.950   3.448  12.321  0.2254 -0.0405  0.0373
15992W        W29406   6.916  16.112  11.213 -0.0192  0.0171 -0.1352
15993W        W29407   5.284  13.561   5.643  0.0738 -0.3405 -0.0831
15994W        W29408  13.454   4.328   4.875 -0.2911  0.1218  0.2392
15995W        W29409  12.973  10.536   6.375 -0.0180  0.0897 -0.0756
15996W        W29410  10.778  14.305   3.763 -0.0972 -0.0167  0.1283
15997W        W29411  16.362   8.757   1.033  0.0240 -0.4718  0.0726
15998W        W29412  12.339   9.358  16.181 -0.0740 -0.0221  0.2453
15999W        W29413  15.950  17.333  13.244  0.0160  0.0213 -0.1470
16000W        W29414   6.893   7.991   4.819 -0.1221 -0.2669 -0.3377
16001W        W29415   3.007   0.809  12.922 -0.1616 -0.0210  0.1371
16002W        W29416   4.807  15.705   1.099  0.0669 -0.0389 -0.1188
16003W        W29417   5.879   1.395   1.141 -0.0830  0.0725 -0.2544
16004W        W29418   2.354  10.502  14.991 -0.0758 -0.0065 -0.1675
16005W        W29419  14.163  10.270   5.605  0.0245 -0.5613 -0.0788
16006W        W29420  15.075  11.868  10.988 -0.2044  0.2213 -0.0044
16007W        W29421  18.003   9.995   5.028 -0.0603 -0.2841  0.1522
16008W        W29422   6.681   6.297  12.094  0.0049 -0.1625  0.0121
16009W        W29423   8.219  13.954   4.052  0.0168  0.0611 -0.0429
16010W        W29424   2.303  10.430   3.153 -0.0366  0.1299  0.2913
16011W        W29425  13.060   7.627   0.540 -0.4690 -0.0725 -0.2474
16012W        W29426  14.214   9.548   4.497  0.3828  0.1927  0.0021
16013W        W29427   6.421  10.410  10.270 -0.1599 -0.2143  0.0675
16014W        W29428  10.440   3.182   0.625 -0.1355 -0.0533 -0.1589
16015W        W29429  17.032   0.221  16.090  0.1663  0.1142  0.1143
16016W        W29430   0.122  14.717  11.860 -0.0875 -0.2158  0.0897
16017W        W29431   9.179   3.998   1.569  0.2092  0.1056 -0.3302
16018W        W29432   7.382  14.129   5.227  0.2065  0.1521  0.0368
16019W        W29433  15.728  13.958  15.290 -0.1552  0.2175 -0.0423
16020W        W29434   3.829  11.821   2.948 -0.1005 -0.0014 -0.3695
16021W        W29435  13.296   4.602  11.134  0.3536  0.0127  0.1693
16022W        W29436   2.756  17.579  11.102  0.2132  0.2390 -0.2441
16023W        W29437  17.794   1.994  12.001  0.0390  0.0342 -0.0490
16024W        W29438   4.184  13.136   4.954 -0.2261 -0.1294  0.1035
16025W        W29439   3.616  12.745  13.669 -0.2636 -0.4119  0.0908
16026W        W29440  17.429   4.113   3.752  0.2188  0.1614  0.2125
16027W        W29441  12.290  10.452   0.340 -0.5047 -0.0826 -0.0719
16028W        W29442   6.667  11.237  16.414 -0.0712  0.1733 -0.2477
16029W        W29443  16.942   7.920   6.722 -0.0273 -0.1482 -0.0138
16030W        W29444  12.463  10.272   5.597 -0.0473 -0.0078  0.1263
16031W        W29445  10.350  10.801   5.645 -0.0738  0.2684 -0.1911
16032W        W29446   9.631  16.928   5.937 -0.4415 -0.1565  0.1570
16033W        W29447  10.224   5.609   1.838  0.0701  0.0136 -0.2103
16034W        W29448   9.750  13.090  10.944  0.0470 -0.0717  0.0127
16035W        W29449   4.837  17.750   3.729 -0.0478  0.1101  0.2193
16036W        W29450   6.982  16.199  11.784  0.0790 -0.3359 -0.2402
16037W        W29451  14.917  12.718   1.209 -0.1840 -0.0128  0.0723
16038W        W29452  10.722   1.180  13.000 -0.0611  0.0279 -0.0266
16039W        W29453   2.726  16.409   0.279 -0.0564  0.0002  0.1125
16040W        W29454  12.782  12.699   0.537 -0.1120  0.0131  0.1924
16041W        W29455   8.860   1.257   0.776 -0.0271  0.1097 -0.1242
16042W        W29456   1.626  13.706  14.338 -0.1149  0.2238  0.0582
16043W        W29457   6.001  18.007  16.471 -0.0400 -0.3052  0.0376
16044W        W29458   4.885   0.483  11.089 -0.1376 -0.0474 -0.0354
16045W        W29459   6.377  11.377   0.692 -0.1285 -0.2026 -0.0283
16046W        W29460   9.594  11.263  10.920  0.1655  0.1124 -0.1949
16047W        W29461   8.938  15.835   5.399 -0.1117 -0.1210  0.1363
16048W        W29462   1.231   1.105   5.595  0.2546 -0.0326  0.0866
16049W        W29463  13.275   7.042   2.289 -0.1672 -0.1714  0.4626
16050W        W29464   5.925   9.496   3.062  0.2757 -0.1758 -0.0600
16051W        W29465  15.900  16.086   4.756 -0.0220  0.1355 -0.1307
16052W        W29466   0.890   0.521   4.465 -0.1692  0.4376 -0.2436
16053W        W29467   6.961   6.610  14.019  0.1964  0.1889 -0.3437
16054W        W29468   2.816   0.264  14.312  0.0101  0.1664  0.0343
16055W        W29469   8.824  10.685   4.880  0.0676  0.0631  0.0842
16056W        W29470   2.271  12.845   5.266  0.1868  0.1605 -0.1922
16057W        W29471  15.770  14.967   2.655 -0.2489 -0.0982  0.3552
16058W        W29472   1.670  16.592   0.062 -0.2716 -0.2010  0.0640
16059W        W29473   1.309   9.388  14.085 -0.1920 -0.2456  0.1380
16060W        W29474  17.765  14.472   5.347 -0.1677 -0.2018 -0.0516
16061W        W29475   2.492   6.707  13.063  0.2463  0.2321 -0.3071
16062W        W29476   7.718  17.433  12.310 -0.2240 -0.1448 -0.1059
16063W        W29477   0.558   2.237  13.921 -0.1430  0.0378  0.2921
16064W        W29478   5.873  15.535   6.742 -0.1830  0.1313  0.1393
16065W        W29479   5.265  16.204  12.441 -0.0392 -0.0737  0.2218
16066W        W29480  13.446   3.001   3.814  0.1178 -0.1722 -0.2207
16067W        W29481  17.592   4.933   2.516  0.2240 -0.1110  0.1881
16068W        W29482  12.436   8.038   2.527  0.0436  0.1714  0.2518
16069W        W29483  13.669   7.029   1.102 -0.3628 -0.2738 -0.0653
16070W        W29484   2.636   1.096  15.501  0.2543  0.3473 -0.0654
16071W        W29485  11.398   4.096   4.227  0.1668  0.2480  0.0248
16072W        W29486   2.058   0.319  12.289  0.2385 -0.1068 -0.0517
16073W        W29487  15.522  12.706  15.018  0.1276  0.2495  0.0952
16074W        W29488   6.654  11.711  13.826 -0.1020 -0.1844  0.0803
16075W        W29489  14.659   5.823   2.401 -0.2757 -0.1858 -0.3114
16076W        W29490   9.157   7.271   0.476 -0.0812 -0.0630 -0.0649
16077W        W29491   8.558  13.797  11.239 -0.0591 -0.2725 -0.0846
16078W        W29492  17.428  16.634   3.954  0.0906  0.0461  0.2753
16079W        W29493   3.151   4.446  14.447  0.0566  0.0348 -0.2075
16080W        W29494  17.309   8.348  11.678 -0.1200 -0.4118  0.0296
16081W        W29495  17.037  12.635  12.994  0.0040 -0.1700 -0.0572
16082W        W29496   3.916   8.341  16.609  0.5792 -0.0057  0.1292
16083W        W29497  14.752   6.622  10.930 -0.0668 -0.2358 -0.4194
16084W        W29498   3.371   5.867  10.431 -0.0160 -0.2812 -0.0595
16085W        W29499   3.319   9.594   5.528  0.0235 -0.0637  0.1647
16086W        W29500   4.352  15.024  14.212 -0.0182 -0.1158 -0.0745
16087W        W29501   6.598   2.220   3.689  0.1228  0.0715 -0.2167
16088W        W29502  12.012   2.034  14.552  0.0021  0.4033 -0.0747
16089W        W29503  12.096   8.387   5.385  0.1505 -0.0652  0.0097
16090W        W29504   2.475   9.850   3.838  0.1485 -0.1285  0.1850
16091W        W29505  11.257  17.502   3.900  0.0616  0.2003  0.2731
16092W        W29506  10.015  16.470  14.908  0.1291  0.3583  0.1375
16093W        W29507   3.735   0.749  14.661  0.1366 -0.1033 -0.2015
16094W        W29508  14.279  10.183  15.687  0.0158 -0.0608 -0.0558
16095W        W29509   0.860  11.410   5.007 -0.0682  0.2685 -0.2448
16096W        W29510   7.743  12.721   3.244 -0.1570  0.3116  0.0852
16097W        W29511   7.834   4.085   0.378 -0.1269 -0.2555  0.0632
16098W        W29512   7.252   9.630   1.693 -0.3137 -0.1006 -0.1032
16099W        W29513  16.263   8.932  11.078 -0.1047 -0.0457 -0.0008
16100W        W29514   3.856   9.975  12.528  0.3295 -0.2231 -0.0179
16101W        W29515  13.224   5.372  11.456  0.0079 -0.1189  0.0397
16102W        W29516   7.092  17.128  14.143  0.0124 -0.0706  0.1960
16103W        W29517  13.012   1.362  12.163  0.2445 -0.2238  0.0931
16104W        W29518   2.948   1.227   0.930  0.1111 -0.0570  0.0870
16105W        W29519  15.459   9.509   2.968  0.3406  0.3244 -0.3987
16106W        W29520   0.856  13.935  12.411 -0.1875 -0.1948 -0.1854
16107W        W29521   9.901  10.843  11.594  0.1685  0.0279 -0.1814
16108W        W29522   8.804   1.544  11.434  0.2855  0.0900 -0.1434
16109W        W29523   8.222   1.750   4.148  0.1201  0.0453 -0.1289
16110W        W29524  16.142  13.453  12.410 -0.0076  0.0237  0.0604
16111W        W29525   0.406   9.088   2.731  0.2581 -0.1527  0.2893
16112W        W29526   1.997  11.177  10.986  0.1059 -0.2552 -0.1258
16113W        W29527   5.543   7.335  13.806  0.0863  0.0840  0.1927
16114W        W29528  12.600  10.504  12.895  0.2054  0.5708  0.1468
16115W        W29529  13.043   4.611  13.630  0.3422  0.1544  0.0309
16116W        W29530  17.091  16.140  13.145 -0.0865 -0.1643 -0.1516
16117W        W29531   6.649   3.474  11.645 -0.1497 -0.0551 -0.1303
16118W        W29532   5.427   0.277   0.129 -0.2903 -0.1337 -0.0997
16119W        W29533   3.181  14.707  13.973  0.0568 -0.0816  0.0670
16120W        W29534  16.761  13.806  15.076 -0.4255  0.2496 -0.0644
16121W        W29535   8.612  10.352  14.536  0.2806 -0.0671 -0.6507
16122W        W29536   6.769   8.478  16.172 -0.0889 -0.2243  0.0723
16123W        W29537  12.547   7.592  10.423  0.0438  0.2283 -0.0167
16124W        W29538  16.950   8.457   5.919  0.2669 -0.0669  0.0607
16125W        W29539  11.263   3.090  11.882  0.1367 -0.1201 -0.2900
16126W        W29540   6.764   8.645  12.074  0.0871 -0.0283  0.0382
16127W        W29541  15.706  14.374  15.543 -0.4745  0.0361  0.3614
16128W        W29542   5.081   6.258  15.217  0.0699  0.0569  0.0555
16129W        W29543   5.538   9.925   4.946 -0.3411 -0.0819 -0.1594
16130W        W29544  14.486   3.228   2.904 -0.1639 -0.1278  0.0292
16131W        W29545  16.534   6.206  16.222  0.0480 -0.0573 -0.0894
16132W        W29546  10.416  16.517   3.717  0.0458  0.3185 -0.2576
16133W        W29547   8.607   9.743   5.219  0.1804 -0.1807 -0.2010
16134W        W29548   7.104   1.782   3.280  0.2070 -0.3191 -0.0864
16135W        W29549  15.162  16.799   3.061  0.2902  0.1075 -0.1123
16136W        W29550   9.342   1.322   3.557  0.1545 -0.0735 -0.2963
16137W        W29551  14.347  15.935   4.450 -0.0892  0.0587 -0.3803
16138W        W29552   5.970   7.352  12.211 -0.0136 -0.2161  0.3753
16139W        W29553   3.966   3.882   0.820  0.1342  0.2958 -0.0491
16140W        W29554  14.870   3.259   4.167 -0.0125  0.0277  0.1980
16141W        W29555  14.601  12.878  14.174 -0.3405 -0.2242  0.0950
16142W        W29556   3.746  11.499   1.181 -0.2752  0.1007  0.1639
16143W        W29557  12.667  16.427   2.012  0.0790  0.2389  0.1430
16144W        W29558  10.364  13.184  12.853  0.3767  0.1179 -0.2797
16145W        W29559  12.094  10.586  15.326 -0.3309  0.0485  0.1754
16146W        W29560   6.005  14.662   5.069 -0.3782 -0.0282 -0.0390
16147W        W29561   7.296  10.307  16.472  0.0598  0.1983 -0.0572
16148W        W29562   5.008   2.249  14.111  0.0806 -0.1266  0.1221
16149W        W29563   2.278  14.877   0.438  0.0728  0.0556 -0.2109
16150W        W29564  10.509  16.267   1.081 -0.0849  0.1528 -0.1253
16151W        W29565   9.539   5.811  16.665 -0.1902 -0.1296  0.2757
16152W        W29566  15.444   3.250   3.223  0.3138 -0.0579 -0.0945
16153W        W29567   5.495  13.772   2.525 -0.1249 -0.1099  0.0048
16154W        W29568  11.026  11.724   1.832 -0.2707 -0.1340  0.1470
16155W        W29569   7.217  14.780  16.467 -0.0110 -0.1278 -0.1087
16156W        W29570  10.707   1.677  15.229 -0.2693 -0.2183  0.1142
16157W        W29571  11.681  12.722  13.742  0.1586 -0.1834 -0.0013
16158W        W29572   1.682   0.141  16.582 -0.0176 -0.2269 -0.0063
16159W        W29573  15.922   5.901   2.505  0.0047 -0.3700  0.0165
16160W        W29574  12.458   8.239  14.468 -0.0275  0.0051 -0.0396
16161W        W29575  13.105  15.522  15.418  0.1509 -0.1102  0.0151
16162W        W29576   3.181   5.643  12.857 -0.2061  0.2464  0.0617
16163W        W29577   1.170  15.197   0.225  0.2094  0.1245  0.1432
16164W        W29578   5.825   4.213   3.853  0.1308 -0.0411 -0.0218
16165W        W29579   6.862   2.330   5.188 -0.0658  0.0298  0.0372
16166W        W29580   3.875   5.101  11.620 -0.1209  0.1908 -0.0835
16167W        W29581   1.197   5.824   3.706  0.1730 -0.0358 -0.1030
16168W        W29582   7.702  11.104   0.600 -0.0489 -0.0925  0.1482
16169W        W29583   7.593  14.756  16.117 -0.1626  0.1166  0.0586
16170W        W29584  13.521   1.343   1.498 -0.2890  0.0252 -0.2417
16171W        W29585   1.249   5.500   0.204  0.1804 -0.0968  0.2946
16172W        W29586  15.088   8.138  11.629  0.1465  0.1119 -0.1445
16173W        W29587   1.823  15.198   1.683  0.0363  0.1254  0.3896
16174W        W29588   0.756   0.140  14.659 -0.1467 -0.0336 -0.2702
16175W        W29589   5.691   6.537   1.476  0.0308  0.0524  0.2107
16176W        W29590  16.494  14.858   4.679 -0.2979 -0.0880  0.0468
16177W        W29591   8.586  16.870   0.940 -0.3256 -0.0301  0.2322
16178W        W29592   2.844  10.914   0.949 -0.1833 -0.2869  0.1012
16179W        W29593  12.160   2.222  12.381 -0.4377  0.0683  0.0917
16180W        W29594  14.786   7.938  11.308  0.2883  0.1172 -0.1233
16181W        W29595   2.958   1.349  12.438 -0.1362  0.2081  0.0735
16182W        W29596  13.940   0.925  15.741  0.0040  0.0628 -0.0641
16183W        W29597   7.226  10.666  15.177  0.1640  0.0997  0.1505
16184W        W29598   8.025   6.379  11.611  0.3684  0.0843  0.2187
16185W        W29599  17.119  16.560  13.449  0.2237 -0.5719  0.1326
16186W        W29600  10.548   3.317  11.435  0.1693  0.2090 -0.1684
16187W        W29601   7.098  13.809   4.846  0.2600  0.0383  0.1997
16188W        W29602  12.279   4.304   3.189  0.0912  0.1007 -0.0619
16189W        W29603   8.503   7.645   5.650 -0.3560  0.2640  0.0928
16190W        W29604   5.293   6.899  11.614  0.0187  0.0035  0.3463
16191W        W29605  13.138  11.703  12.888  0.1886 -0.2123 -0.1731
16192W        W29606  16.565  17.975   3.962  0.0634  0.2889  0.1627
16193W        W29607   8.687   4.098  15.478 -0.1534  0.0521 -0.2258
16194W        W29608  17.569  15.536   5.303  0.2117  0.1888 -0.2020
16195W        W29609   4.936  15.703  14.000 -0.1126 -0.3367 -0.0949
16196W        W29610   5.335  15.630   5.739  0.1874  0.1450 -0.2190
16197W        W29611  13.954   0.494   1.571  0.0272 -0.0570 -0.1016
16198W        W29612   1.011   2.063  16.686 -0.0024  0.2840 -0.1107
16199W        W29613   3.667   2.979   5.498 -0.1255  0.3611  0.5467
16200W        W29614   7.938  14.212  10.422 -0.0942  0.1318  0.1808
16201W        W29615   4.257  13.642  13.460 -0.3719 -0.0193  0.1182
16202W        W29616  15.127   5.371   0.337  0.2877  0.2389  0.1705
16203W        W29617  12.657  17.241   2.578 -0.0530 -0.0245  0.2111
16204W        W29618  10.182   9.678  15.596 -0.2460 -0.3451  0.1671
16205W        W29619  10.486  13.677   2.390 -0.3696 -0.0359 -0.0423
16206W        W29620  12.653   5.656  13.429 -0.0192  0.1199  0.1743
16207W        W29621   7.906  15.282   1.223  0.0850 -0.2935 -0.0956
16208W        W29622  17.471  17.189   2.303 -0.1788 -0.0013 -0.0032
16209W        W29623   2.569  10.013  10.758  0.0060  0.0629  0.2880
16210W        W29624   6.452   0.300  11.821  0.0370 -0.0917 -0.0395
16211W        W29625  11.740  14.321   3.545 -0.3819 -0.0567  0.3729
16212W        W29626   9.642  15.029  12.045  0.1114  0.0469  0.1581
16213W        W29627  17.984   4.931   5.476 -0.0484  0.0662 -0.0897
16214W        W29628  11.814   5.296  12.011  0.0022 -0.0780  0.2912
16215W        W29629   6.747   6.338   1.617 -0.1410 -0.1270 -0.2832
16216W        W29630   0.550  10.920   2.668  0.3320  0.0657 -0.1005
16217W        W29631   3.575   0.475   2.920  0.0973 -0.0570  0.1077
16218W        W29632  12.654   8.306  13.421  0.1568  0.2904  0.1483
16219W        W29633   4.536  16.002  13.198  0.0483 -0.0222 -0.0799
16220W        W29634  16.525  14.659   3.082  0.0260 -0.0490  0.0831
16221W        W29635  15.315   1.002   2.324 -0.2576 -0.0260  0.0447
16222W        W29636   5.174   1.765   1.528 -0.4144  0.0648  0.3520
16223W        W29637   2.051  11.083   1.863  0.0818  0.2067 -0.0142
16224W        W29638   6.848  12.880  15.238  0.2728 -0.0423  0.0668
16225W        W29639  12.226   1.412   0.794  0.3149 -0.4309 -0.0370
16226W        W29640   3.263   4.361  16.396 -0.2050 -0.0959  0.3299
16227W        W29641   2.592   1.102   0.563 -0.1221 -0.0897  0.1638
16228W        W29642  13.977   9.176   2.150 -0.1385 -0.2471 -0.0230
16229W        W29643  12.373   8.994   0.368  0.1279 -0.0091  0.0823
16230W        W29644  11.878  14.702   2.992  0.1025 -0.2044 -0.2023
16231W        W29645  12.707   4.905   1.674 -0.4465  0.3933  0.1092
16232W        W29646   8.964  17.448  12.606 -0.0973  0.2079 -0.0394
16233W        W29647   9.851   7.151  12.120 -0.0038  0.0668 -0.3181
16234W        W29648   4.487   5.025  12.261 -0.2520 -0.4672  0.3036
16235W        W29649   6.877  12.105  13.980 -0.0383  0.0802 -0.0360
16236W        W29650   3.702  13.750   0.335 -0.0482  0.0569  0.1267
16237W        W29651   6.637   8.956   6.648  0.1117  0.0027  0.2399
16238W        W29652   8.694   2.990  15.935 -0.0872 -0.2254 -0.1203
16239W        W29653   4.170  17.047   4.933  0.0221  0.0994  0.1606
16240W        W29654   0.394  11.762  12.371  0.2907  0.0744  0.2111
16241W        W29655  11.700   3.810  13.146  0.4664  0.2262 -0.0535
16242W        W29656  11.720   4.168  13.533 -0.0504  0.0029 -0.0148
16243W        W29657   4.444   1.493   1.880  0.1483  0.2883 -0.0822
16244W        W29658   4.305   3.218  11.241  0.3191  0.0093 -0.0942
16245W        W29659   9.868   9.675   4.476  0.0385 -0.1888 -0.2678
16246W        W29660   7.100  17.165  11.217 -0.0849  0.0879 -0.3090
16247W        W29661   9.157  13.565   1.417  0.3028  0.3555  0.0193
16248W        W29662   5.460  16.037   4.085 -0.2581 -0.0866 -0.0377
16249W        W29663   4.868   9.019  12.846 -0.2817  0.0178 -0.0199
16250W        W29664   9.257   2.632  13.300  0.1473  0.3771 -0.3245
16251W        W29665   4.671   9.041  11.366  0.0345  0.1566  0.0394
16252W        W29666  11.888   2.798  14.099  0.0590 -0.0781  0.0153
16253W        W29667   6.117   6.271   1.587  0.1236 -0.1860  0.0632
16254W        W29668   7.897  16.212   0.623 -0.2766  0.0502 -0.0455
16255W        W29669  12.613   7.008  13.622 -0.2049 -0.2160  0.0910
16256W        W29670   9.168   7.102   3.249 -0.2120  0.0496 -0.1893
16257W        W29671   5.838  16.425   5.432  0.0056 -0.2040  0.2247
16258W        W29672  16.441  12.704   0.720 -0.0812 -0.0397  0.1416
16259W        W29673  11.346   1.595   6.425  0.1769  0.2473  0.0175
16260W        W29674   8.616   0.792  13.979  0.1195  0.1949 -0.1269
16261W        W29675   4.267   5.554   4.035 -0.0223  0.0598  0.4973
16262W        W29676  12.808  10.513   5.881 -0.0364 -0.1131 -0.1020
16263W        W29677   4.999   9.891  11.219  0.0983  0.0147 -0.2822
16264W        W29678   5.695   1.419   2.833 -0.0996  0.0256 -0.0341
16265W        W29679   0.570   4.799  13.613 -0.1802  0.0274 -0.0096
16266W        W29680   1.253  12.246  12.167  0.3285  0.1131  0.0056
16267W        W29681   6.680   7.932  16.326  0.0718 -0.1868 -0.3532
16268W        W29682   0.893   1.808   4.991  0.2874  0.2711  0.1357
16269W        W29683  14.207  13.743  13.172 -0.0439 -0.1848  0.0594
16270W        W29684   1.667  15.877   2.231  0.3501  0.0340  0.1379
16271W        W29685   4.732  10.201  13.763  0.1236  0.3238 -0.0559
16272W        W29686  15.055  17.971   1.514 -0.3266  0.0594 -0.1951
16273W        W29687   9.773   3.313  14.290  0.0920 -0.0005  0.1334
16274W        W29688  11.540  17.838   4.152 -0.0043 -0.2625 -0.3970
16275W        W29689   7.190  11.204  16.379  0.1723 -0.0779  0.2733
16276W        W29690   7.675  14.196  13.040  0.0210 -0.4511 -0.1304
16277W        W29691  15.660   4.081  11.769 -0.0412  0.3011 -0.0798
16278W        W29692  16.403  14.869  16.577 -0.1069  0.0576  0.0250
16279W        W29693   7.027   6.420  14.573 -0.1486  0.1356  0.3122
16280W        W29694   3.682   6.716  11.743  0.0638  0.0013 -0.0265
16281W        W29695   2.308  12.911  12.707  0.1296 -0.2170 -0.0979
16282W        W29696  12.641   4.143   5.950 -0.3910  0.1693  0.2196
16283W        W29697   4.752   5.336  14.132 -0.2192 -0.0721 -0.0946
16284W        W29698   6.953  14.786   0.302  0.0389  0.1314  0.2088
16285W        W29699   9.391   4.211  13.866 -0.0244  0.3594  0.3971
16286W        W29700  13.369   8.880   4.325 -0.0040  0.1962  0.2277
16287W        W29701   8.182  17.128  16.052  0.1261 -0.1725  0.2416
16288W        W29702  10.536  15.530   1.516  0.0440  0.0645  0.2988
16289W        W29703   1.466  13.391  10.751  0.1831  0.0743  0.2352
16290W        W29704   1.071   6.951   3.700 -0.1151 -0.0185 -0.3439
16291W        W29705   1.210  16.262  15.002  0.2681 -0.3274 -0.3932
16292W        W29706   9.787  16.156   1.049 -0.2886  0.0842 -0.0655
16293W        W29707   0.757   6.901  15.029 -0.1252  0.2182  0.2270
16294W        W29708   6.718   8.446   3.170  0.1015  0.2675  0.2480
16295W        W29709  15.913   9.098  14.347 -0.1088  0.2304  0.0867
16296W        W29710   0.268   0.379   2.832 -0.2027  0.3310 -0.0360
16297W        W29711  12.777   6.703  14.051 -0.5203 -0.1588 -0.2057
16298W        W29712   6.043   8.186   1.932  0.0651 -0.0488 -0.3400
16299W        W29713   3.266   6.870   6.973  0.2173  0.0990 -0.1283
16300W        W29714  11.198  10.114  12.206  0.1960 -0.0873 -0.1264
16301W        W29715  13.823  12.436  16.692 -0.0279 -0.1162  0.0727
16302W        W29716  15.951  13.216   0.297  0.0291 -0.0842 -0.2318
16303W        W29717   2.826   8.864  11.678 -0.0274 -0.1238 -0.0249
16304W        W29718  12.082   0.842   4.197 -0.0220 -0.1101  0.2571
16305W        W29719   8.877   1.318   2.702 -0.0885  0.2551 -0.1646
16306W        W29720   3.052   3.992  14.608  0.0273  0.0696 -0.0356
16307W        W29721  16.931  15.102   3.889 -0.2495  0.1099 -0.0333
16308W        W29722   4.786   5.215  15.281  0.0156  0.2424  0.0330
16309W        W29723  10.116   2.204   3.604  0.2133 -0.1906  0.1597
16310W        W29724  12.839   6.286  13.193  0.0784  0.3441  0.0115
16311W        W29725   8.557   4.193  16.228 -0.1906 -0.0914 -0.0066
16312W        W29726  17.408   6.828  12.524  0.0880  0.0007  0.3431
16313W        W29727  11.034   1.922   1.756  0.1860  0.2106 -0.1031
16314W        W29728   3.847  11.191   2.391  0.0274  0.0836  0.1819
16315W        W29729  13.809   2.176   4.168  0.0373  0.1001  0.0141
16316W        W29730   2.553  15.036  12.943 -0.0396 -0.1997  0.1316
16317W        W29731  12.365   6.553  14.292 -0.0923  0.1455 -0.1552
16318W        W29732   5.100   8.685  12.539 -0.2664 -0.0769  0.0768
16319W        W29733  17.467   1.029   5.807  0.1531 -0.1367 -0.1789
16320W        W29734  10.849   8.285  15.580 -0.0460  0.2175 -0.0984
16321W        W29735  11.887   0.352  12.522  0.0070  0.0031 -0.0638
16322W        W29736   0.830  15.440   5.865  0.1020 -0.0619 -0.0826
16323W        W29737  16.580  11.944   4.515 -0.0484 -0.2525  0.1965
16324W        W29738   2.974  10.945   3.966 -0.1359  0.1199 -0.1152
16325W        W29739   6.971   3.530   0.146 -0.0529  0.0442 -0.0979
16326W        W29740  15.771  16.083   6.376  0.2469  0.3117 -0.4027
16327W        W29741   4.950  15.100   5.768  0.3031 -0.1981  0.1232
16328W        W29742  17.232  14.309   0.570 -0.2068  0.1703 -0.0716
16329W        W29743  13.527  17.625   1.157 -0.1687  0.0980 -0.2390
16330W        W29744   9.394   9.433  16.300 -0.0788 -0.0325 -0.0025
16331W        W29745   2.333  14.808  16.199 -0.3191 -0.1430 -0.0906
16332W        W29746   4.036  10.252  16.163  0.0303  0.0772  0.2127
16333W        W29747   6.751  10.708  15.446  0.0019  0.0890 -0.0937
16334W        W29748   2.093   4.634   2.868  0.0433 -0.1318 -0.1887
16335W        W29749   9.811   6.799   5.605  0.0669  0.2063 -0.0629
16336W        W29750   1.169   6.466   2.877  0.3234 -0.2514 -0.1538
16337W        W29751  15.605  10.574   0.225 -0.0688 -0.1547 -0.0190
16338W        W29752  14.085   7.871   5.654 -0.2888  0.1106 -0.2314
16339W        W29753   9.388   4.411  11.276  0.0170  0.2008 -0.0634
16340W        W29754   2.312  13.891  14.649 -0.1806 -0.1141 -0.0487
16341W        W29755  12.425  17.360  11.432 -0.0010  0.0717 -0.2341
16342W        W29756   9.932  13.432   3.910  0.1381 -0.0584 -0.1974
16343W        W29757  14.435   2.672   5.791  0.0297  0.2863 -0.1911
16344W        W29758  17.146   1.984   5.373 -0.1536  0.0466 -0.0335
16345W        W29759   2.685   2.931  15.582 -0.0532 -0.0766  0.2499
16346W        W29760   0.574   3.739   5.604  0.1719 -0.0393 -0.0532
16347W        W29761  12.698  14.477  10.217  0.2465 -0.1841 -0.0546
16348W        W29762  15.940  14.634   3.953  0.1570  0.2391  0.1827
16349W        W29763   0.979  13.071   5.887  0.1342 -0.0963 -0.3540
16350W        W29764   5.033   9.307  16.121 -0.0818  0.0205  0.0259
16351W        W29765  13.559  16.914   0.895 -0.0338 -0.1084 -0.0466
16352W        W29766   2.446  11.537  16.631  0.3347 -0.1441  0.2155
16353W        W29767   6.502  15.777   0.657 -0.1343 -0.0432  0.0739
16354W        W29768  17.821   9.728   4.669  0.0081 -0.3730  0.0816
16355W        W29769  17.089  13.193   1.288  0.0446  0.0413  0.0072
16356W        W29770   2.648   8.289   0.414 -0.2251 -0.0195  0.1808
16357W        W29771  11.073   1.114   1.971 -0.0557 -0.1708 -0.2661
16358W        W29772   4.523   5.891  11.218 -0.2629  0.0207  0.1610
16359W        W29773   2.204   2.033   0.940  0.1358  0.1878  0.0773
16360W        W29774   5.392   2.696   3.909 -0.0448  0.0701 -0.1852
16361W        W29775   2.743  15.173   2.643 -0.0637 -0.1787 -0.0148
16362W        W29776  12.389  11.804   4.559 -0.1387 -0.0987 -0.1410
16363W        W29777  16.952   9.620   6.478  0.0266 -0.2651  0.2018
16364W        W29778   4.854   8.065  16.649 -0.0862  0.2659 -0.1459
16365W        W29779  15.837  14.458  11.748  0.1443 -0.1199  0.1613
16366W        W29780   4.336  13.511   1.126 -0.3979  0.2516 -0.1326
16367W        W29781  12.778   3.444   1.121  0.0632 -0.1863 -0.1609
16368W        W29782  13.858  15.832   6.143  0.0271  0.0617 -0.4154
16369W        W29783   2.868  16.277   6.118  0.2321  0.3959  0.0604
16370W        W29784  12.734   0.833   1.134  0.1266  0.2779 -0.2312
16371W        W29785   7.894   1.907  11.418 -0.1048 -0.0977 -0.0301
16372W        W29786   3.073   0.034  13.119 -0.0746  0.0350 -0.0613
16373W        W29787   1.351  12.085   5.844  0.3396 -0.0252  0.0448
16374W        W29788   5.830  13.758  10.818  0.1872  0.4069 -0.0563
16375W        W29789  14.598   1.755  11.954  0.1874  0.0298 -0.1112
16376W        W29790   8.181   2.574  16.058  0.0039 -0.0076 -0.0738
16377W        W29791   2.282  10.679   4.057 -0.3000 -0.2052 -0.0036
16378W        W29792   9.131  13.845  16.298 -0.2489  0.3056 -0.3140
16379W        W29793  10.627  15.945   0.076  0.0141 -0.0965 -0.2423
16380W        W29794  15.484   9.072   0.686 -0.0728  0.1286 -0.1726
16381W        W29795  15.520   1.163   2.769 -0.0439  0.0904 -0.1109
16382W        W29796  11.381   3.745   5.614 -0.2515 -0.1010 -0.0612
16383W        W29797  11.683  11.884  15.520  0.0521  0.0427 -0.1281
16384W        W29798  15.280   2.812  10.877 -0.3182  0.0099  0.0142
16385W        W29799   8.857   4.143  15.032 -0.0443  0.0962 -0.2542
16386W        W29800   5.239  11.832   4.805 -0.0893 -0.0398 -0.1848
16387W        W29801   0.127   4.344   5.373 -0.0921 -0.1753  0.1062
16388W        W29802   3.489   2.925  12.974  0.1528 -0.0292  0.0253
16389W        W29803  17.366  11.608  15.501  0.2233  0.0988 -0.0190
16390W        W29804  16.792   4.336  14.987  0.0512 -0.1009 -0.1152
16391W        W29805  16.588  12.791  15.154  0.2479  0.2647  0.1357
16392W        W29806   6.871  15.810  13.907  0.0214 -0.0388  0.0155
16393W        W29807   2.385   0.925   0.085 -0.0532  0.0432 -0.1189
16394W        W29808   0.968   1.508   2.869  0.0020 -0.0151 -0.3253
16395W        W29809   5.643   5.123  14.093 -0.2043  0.2583 -0.0863
16396W        W29810   9.416  17.075  15.247  0.0234 -0.0572  0.1216
16397W        W29811  13.200   6.415   3.613  0.0135  0.2790 -0.2489
16398W        W29812  14.543   8.969   0.410  0.1003 -0.1431  0.0658
16399W        W29813  17.741  12.113  15.482 -0.0094  0.1494 -0.0566
16400W        W29814  13.730  17.858  15.824  0.0168  0.1355  0.0421
16401W        W29815   8.003   7.550   4.372  0.0423  0.0624 -0.1255
16402W        W29816   4.408  12.652  14.912 -0.2079  0.1675  0.0659
16403W        W29817   0.360   6.638  11.779 -0.0352 -0.0976  0.0538
16404W        W29818   2.090  17.131   2.284  0.0663  0.1308  0.0388
16405W        W29819  10.032  16.806   2.326 -0.2296 -0.1457  0.1118
16406W        W29820  11.430   7.193  15.515  0.1878 -0.0999 -0.0414
16407W        W29821   0.130   5.570  11.832  0.2135 -0.0538 -0.0198
16408W        W29822  11.003   8.454   3.767 -0.1270 -0.1342  0.1057
16409W        W29823   5.250  15.663   3.406  0.3211 -0.4233 -0.2119
16410W        W29824  13.962   5.433  16.345  0.2176  0.2147 -0.1511
16411W        W29825   5.066  11.336   2.765  0.0145 -0.1598  0.1133
16412W        W29826  10.952  15.939   2.888  0.2239 -0.0177 -0.2272
16413W        W29827   5.572   1.218   3.974 -0.1807 -0.0989  0.0212
16414W        W29828   0.497   1.752  16.071 -0.1661 -0.1901 -0.0363
16415W        W29829   7.992  17.772   2.046 -0.1841  0.1312 -0.0138
16416W        W29830  13.904   6.926   4.524  0.1904  0.1235  0.1411
16417W        W29831   3.111   2.325  13.452 -0.1574  0.3445  0.3075
16418W        W29832  12.401  14.983   1.048  0.2409  0.0530 -0.0565
16419W        W29833  17.202  12.171  15.498  0.0043 -0.0619  0.1945
16420W        W29834   9.605   0.048   4.482  0.0539  0.1118 -0.2998
16421W        W29835  16.697   9.669   1.828 -0.0724 -0.0772  0.0314
16422W        W29836   8.278   2.296  12.113 -0.3690  0.1384  0.2265
16423W        W29837   2.500  17.718  14.978 -0.1168  0.0947  0.1575
16424W        W29838  11.039  14.954   2.154  0.0548 -0.0951 -0.0003
16425W        W29839   5.666   8.756   4.568 -0.0285  0.2574  0.1714
16426W        W29840   3.550   3.899   4.186  0.1191  0.1561 -0.0912
16427W        W29841   2.784  12.707  15.607  0.2746  0.1946 -0.2934
16428W        W29842   7.428  14.979  13.006 -0.1105 -0.0841 -0.0511
16429W        W29843   8.112  18.051  12.238  0.0080  0.0394 -0.1342
16430W        W29844   2.975   1.842  14.562 -0.1841  0.2861  0.0842
16431W        W29845  15.764  15.576   4.603  0.0265  0.0769  0.0148
16432W        W29846   9.139   3.656  13.724  0.1548 -0.2226 -0.3173
16433W        W29847   3.198  17.906   4.060  0.0235  0.0715  0.1965
16434W        W29848  10.277  11.952   1.897  0.0765 -0.0465  0.2624
16435W        W29849   6.472   7.946   5.076  0.0863 -0.0899  0.1698
16436W        W29850  17.890  11.022   0.969 -0.1746 -0.0288  0.3583
16437W        W29851   1.910  13.024   6.096 -0.1392 -0.0549 -0.2078
16438W        W29852   7.063   7.583   4.476  0.0594  0.1082 -0.1909
16439W        W29853  12.370  11.605   2.287  0.1738 -0.0904 -0.0577
16440W        W29854  16.818  17.577   2.564 -0.1035 -0.0031  0.1572
16441W        W29855  13.736  17.880   5.501 -0.0374  0.0120 -0.0430
16442W        W29856  16.047   9.125  14.992 -0.2051 -0.0582  0.0366
16443W        W29857   8.638  10.220   5.013 -0.1227 -0.0486  0.1798
16444W        W29858  11.715  14.760   0.008 -0.1710 -0.0646 -0.1113
16445W        W29859   9.573  12.007   2.944  0.0002  0.0356  0.2535
16446W        W29860  17.880  17.578  13.394  0.3482 -0.3269  0.0096
16447W        W29861   8.360   1.681   3.242 -0.1743  0.0316 -0.1510
16448W        W29862  16.975  14.570  15.556 -0.3270  0.1297 -0.0194
16449W        W29863  11.224  16.980   0.364 -0.2919  0.0672  0.0381
16450W        W29864   4.721   9.894  10.091  0.0273 -0.1103 -0.2273
16451W        W29865   8.646   7.963  10.509  0.1654 -0.0953 -0.3198
16452W        W29866  12.095   4.538   2.794  0.0414 -0.2296 -0.0839
16453W        W29867  17.399   0.729   4.802  0.2278 -0.0250 -0.2341
16454W        W29868  12.427  17.826   4.505  0.2472 -0.2084  0.3115
16455W        W29869   2.544  11.101  16.229  0.2231 -0.1951  0.1224
16456W        W29870  10.513  14.134  13.681 -0.1565 -0.0242 -0.2043
16457W        W29871   5.520   3.780   2.748  0.1171  0.0091 -0.1257
16458W        W29872   5.276  15.290  15.736  0.1889  0.1625  0.0589
16459W        W29873   1.456  12.293   5.006  0.0203 -0.1160  0.0285
16460W        W29874   9.471  15.339  14.033  0.0164  0.1004  0.2740
16461W        W29875   6.933   8.486  13.959  0.2032 -0.0038 -0.2137
16462W        W29876   8.381  17.098  14.254  0.1697 -0.0137  0.2199
16463W        W29877   1.557  10.202  15.763 -0.2153  0.0374  0.3232
16464W        W29878  14.645   6.024   1.878 -0.0389 -0.2013  0.1726
16465W        W29879  10.163   9.291  15.323  0.0104 -0.0501 -0.1404
16466W        W29880  13.922   1.263   6.085  0.3142  0.1506  0.0873
16467W        W29881  15.174  12.007  16.000  0.1694  0.0971  0.0191
16468W        W29882   6.587   6.150  16.600  0.5091 -0.0343  0.3095
16469W        W29883  16.906  13.356   0.787 -0.0363  0.1428 -0.0083
16470W        W29884  14.967   3.529   3.153 -0.1167  0.0364 -0.3359
16471W        W29885  14.388   3.791  10.438  0.2257 -0.2772  0.0619
16472W        W29886  13.739   6.896   2.506  0.0023  0.1534  0.0352
16473W        W29887   7.398   1.948   4.057  0.1982 -0.0121  0.1037
16474W        W29888   2.892   7.266   0.197 -0.1894 -0.2065 -0.0953
16475W        W29889   6.650  13.904  12.042  0.0334 -0.0244  0.3522
16476W        W29890   5.485   8.548   1.015 -0.2377  0.0211  0.0616
16477W        W29891   4.416   0.007  15.451 -0.0313  0.1755 -0.1268
16478W        W29892  16.407   8.361   3.925  0.0707 -0.0059 -0.2076
16479W        W29893  12.878  13.099   3.844  0.0439 -0.1330 -0.0178
16480W        W29894   2.287  11.544   0.797 -0.0896 -0.1962 -0.0697
16481W        W29895   5.152   2.280   5.272  0.2577  0.2940 -0.2101
16482W        W29896   9.443   3.215   3.224 -0.0827  0.1265  0.1145
16483W        W29897   6.371  15.746  13.994 -0.1938 -0.2047 -0.0465
16484W        W29898  12.437  10.846   1.786 -0.1278 -0.0952  0.0218
16485W        W29899   4.905  13.245   0.645 -0.1685  0.0720  0.2269
16486W        W29900  17.141   3.366   0.592  0.0310 -0.2556 -0.2889
16487W        W29901   7.999   1.250   1.237 -0.1906  0.1870 -0.3698
16488W        W29902   5.583   9.427   6.431 -0.0654  0.1748  0.0782
16489W        W29903   2.712   9.744   1.138 -0.1473  0.1971 -0.0517
16490W        W29904   3.615  12.501   0.244  0.2555 -0.0566 -0.1001
16491W        W29905   7.887  10.954   3.071 -0.1420  0.1242 -0.1775
16492W        W29906  15.791   3.022   2.793  0.0969 -0.1079  0.1578
16493W        W29907   9.642   7.031   3.998  0.0707 -0.2134  0.0375
16494W        W29908  12.053   5.465  14.872 -0.0364 -0.2461  0.0673
16495W        W29909   3.345   7.490  10.356  0.1206 -0.2006 -0.1796
16496W        W29910   6.597   5.473  11.641 -0.1837  0.0167 -0.1224
16497W        W29911   8.782   9.663   1.555  0.0816  0.0037 -0.0147
16498W        W29912  14.980   0.300  11.415 -0.0390  0.0925 -0.2664
16499W        W29913   8.258   0.635   2.546  0.1216  0.4126 -0.1020
16500W        W29914  15.409   6.211   5.783  0.1747  0.0014  0.2733
16501W        W29915  12.619   6.960   1.736 -0.0398 -0.0273 -0.0808
16502W        W29916   3.537  15.913   0.415 -0.1349 -0.2496 -0.2441
16503W        W29917  14.428   1.762   1.305  0.0850 -0.0648  0.0710
16504W        W29918   2.403   5.258   2.044 -0.0947  0.0177 -0.0700
16505W        W29919   6.463   0.277   4.266  0.3758  0.3014  0.0741
16506W        W29920  14.891  16.017   3.690  0.0290  0.2794  0.3243
16507W        W29921   6.373   4.723  15.219  0.0853 -0.0229  0.0340
16508W        W29922  17.445   0.202   1.627  0.1969 -0.1924 -0.1099
16509W        W29923   0.546  13.369   2.103 -0.1169  0.0586 -0.0746
16510W        W29924  12.251  11.192  15.313  0.0886 -0.0155 -0.0929
16511W        W29925  17.868   7.376   0.074  0.1858  0.1521 -0.0515
16512W        W29926  15.061   6.416   3.052 -0.1657  0.0307 -0.3576
16513W        W29927  17.079   7.538   2.170 -0.2109 -0.0360 -0.1594
16514W        W29928  13.353  16.311  11.532 -0.0931 -0.3783  0.0099
16515W        W29929  10.764  16.811  11.429  0.2561  0.1615 -0.0642
16516W        W29930   1.768  15.865  14.345  0.0046 -0.0516  0.0351
16517W        W29931   9.419   8.055   6.000  0.3389  0.2652  0.2013
16518W        W29932  17.617  12.183  13.536 -0.0160 -0.3676 -0.2884
16519W        W29933  12.008  13.772  16.244  0.2272 -0.0406  0.0509
16520W        W29934   8.697  15.688  14.485 -0.0531 -0.2493  0.1583
16521W        W29935   8.692   9.530  14.024  0.0550  0.1245  0.1452
16522W        W29936   0.802  15.461  11.935 -0.0804  0.0187 -0.3383
16523W        W29937   6.359   4.684   1.925 -0.4475  0.1360 -0.0735
16524W        W29938  15.468  17.654   3.745  0.0279  0.2258  0.2535
16525W        W29939  18.033   8.184   2.621  0.1524  0.0835  0.1959
16526W        W29940   2.669   3.398   1.514  0.1595  0.1114  0.1390
16527W        W29941  15.643   8.542  12.635 -0.1737  0.1106  0.1001
16528W        W29942   7.605  11.971   0.155 -0.1138  0.0778 -0.2415
16529W        W29943   2.121   6.812  14.045  0.0335  0.0507  0.1076
16530W        W29944  13.370  13.050   5.242 -0.0706 -0.2142  0.0196
16531W        W29945   7.298  10.815   1.614  0.0151 -0.0840 -0.1120
16532W        W29946   9.826   3.216   5.134 -0.0216 -0.0928 -0.0351
16533W        W29947   4.225   8.922   2.804  0.1370 -0.0003  0.2195
16534W        W29948   4.404   0.821  11.999  0.1104 -0.1314 -0.1730
16535W        W29949   8.785   9.522   0.627  0.0931 -0.1084  0.3527
16536W        W29950   5.764   7.501   3.375  0.0484  0.1108 -0.0142
16537W        W29951   9.629   1.607  14.015  0.0134  0.0038  0.0642
16538W        W29952  13.098  17.916  10.419 -0.2447 -0.1275  0.0908
16539W        W29953  10.262  11.201  14.693  0.0030  0.2409  0.0884
16540W        W29954   3.178   8.880  13.109  0.1412  0.0178 -0.1582
16541W        W29955   3.216  15.604   3.487 -0.4256  0.1368  0.0389
16542W        W29956  15.666  14.191   4.125 -0.0177 -0.0446 -0.0657
16543W        W29957   5.560   4.328  11.602  0.3047  0.0955  0.1504
16544W        W29958  12.358   5.859  14.951 -0.0903 -0.2468 -0.1987
16545W        W29959  10.341   4.718   3.715 -0.0083 -0.0246 -0.0553
16546W        W29960   8.660  11.674   0.688  0.1278 -0.0514 -0.0795
16547W        W29961   0.186  14.701   0.775 -0.0381  0.0634 -0.1528
16548W        W29962   4.535   5.176   2.053 -0.5021 -0.1089 -0.0970
16549W        W29963  13.212  10.709  13.652  0.1287  0.2701  0.1270
16550W        W29964   6.650   7.513   4.106  0.0100  0.1780 -0.1548
16551W        W29965  12.973  10.892  11.822  0.0214  0.3023 -0.1243
16552W        W29966   8.180   7.565   2.300 -0.0233  0.4843  0.0622
16553W        W29967   9.396  11.053   0.261  0.1395  0.0432 -0.0523
16554W        W29968  11.089   4.789  12.396  0.1119  0.2671 -0.1957
16555W        W29969  10.260  15.083  15.426  0.2072  0.1588 -0.0988
16556W        W29970   4.423  10.516  16.303  0.1432  0.1667  0.0605
16557W        W29971   4.361  17.137   5.395 -0.0699  0.0830  0.0320
16558W        W29972   5.232   0.703   2.313 -0.0009  0.1917  0.0927
16559W        W29973  17.985   6.136   3.277  0.0664 -0.0284 -0.2252
16560W        W29974   1.614  12.204  16.140  0.2419 -0.1517 -0.0504
16561W        W29975  12.354  13.845   3.327 -0.1628  0.0694 -0.0876
16562W        W29976   4.075   0.526   3.625  0.2776  0.2390 -0.1268
16563W        W29977  14.532  11.905  16.022  0.1455  0.2386  0.3036
16564W        W29978   5.082  13.980  14.002 -0.0900 -0.1985  0.3114
16565W        W29979  13.377   3.172   2.682  0.0364 -0.0958 -0.2238
16566W        W29980   6.764  14.925   6.126  0.0302 -0.2258 -0.2408
16567W        W29981  14.741   5.981   2.947  0.0893  0.1891  0.0853
16568W        W29982  18.046   0.887   2.784  0.0707  0.0018 -0.0470
16569W        W29983  17.451  11.269  14.259  0.0050  0.1145 -0.0367
16570W        W29984   8.057   7.049   0.520 -0.0154 -0.3274 -0.2552
16571W        W29985  14.919  16.580  13.284  0.0153 -0.1066  0.2695
16572W        W29986   4.704  16.690  13.966 -0.3357  0.2480 -0.0018
16573W        W29987   7.628   0.370  16.237  0.1383 -0.0434 -0.1191
16574W        W29988   5.683  15.897   5.309  0.4851 -0.0010 -0.1286
16575W        W29989   1.398   8.680   1.749 -0.1120 -0.0495 -0.2145
16576W        W29990   6.117  13.500   5.631 -0.1273 -0.1041 -0.3845
16577W        W29991   6.505   5.903   3.522 -0.0288  0.4481 -0.0159
16578W        W29992   6.854   8.557   5.537  0.2159  0.1426 -0.0986
16579W        W29993   1.227  15.642   6.206  0.0071 -0.1724  0.0485
16580W        W29994  13.544   1.792   5.525  0.2079 -0.2109  0.1221
16581W        W29995  14.238   4.037   5.536  0.2442  0.1292  0.0147
16582W        W29996   4.068  17.061  16.596  0.1465 -0.1905 -0.1402
16583W        W29997  11.256  13.220   5.037  0.2198 -0.0437 -0.5365
16584W        W29998  10.963  15.418   1.039 -0.0462 -0.1305 -0.0768
16585W        W29999   8.956  11.968  10.432 -0.2854  0.1736  0.2607
16586W        W30000   0.866  10.920  14.833  0.2771  0.0195  0.1029
16587W        W30001  16.957   8.683  13.476  0.0959  0.0498 -0.1537
16588W        W30002  13.336  14.664  14.368  0.2492  0.0866 -0.2612
16589W        W30003  16.480  16.393  14.970  0.2377  0.0794 -0.2132
16590W        W30004   1.941   6.790   5.450 -0.0124 -0.0078 -0.2757
16591W        W30005   4.194  16.664  12.164 -0.2479 -0.0257  0.2356
16592W        W30006   0.319   4.849  16.359 -0.0226  0.0415  0.0688
16593W        W30007   8.831   0.954  12.164 -0.0530  0.0040  0.2319
16594W        W30008   4.434  16.337   0.040 -0.0897 -0.0827 -0.1693
16595W        W30009   4.239   3.095   1.984  0.0866  0.1183 -0.0297
16596W        W30010  14.275   5.065   2.817  0.0156 -0.2372  0.0510
16597W        W30011   7.200  17.569  14.982  0.1862  0.0048 -0.1329
16598W        W30012  12.480   1.841  13.049  0.0085 -0.0617 -0.0874
16599W        W30013  10.953   3.894  13.896 -0.0866  0.1989  0.0256
16600W        W30014   3.317   6.831  11.294 -0.1780 -0.1660  0.2508
16601W        W30015   3.320  16.415   3.116  0.0621 -0.0700 -0.0164
16602W        W30016   1.371  11.275  13.156 -0.0009  0.0834  0.2604
16603W        W30017  12.504   3.680  11.449 -0.2100  0.1895 -0.1821
16604W        W30018  12.377  11.886  10.947 -0.2465  0.0574  0.1571
16605W        W30019   1.760  15.580   4.984  0.0596  0.1270  0.2494
16606W        W30020   3.195  17.192  11.543 -0.1932 -0.0961  0.1132
16607W        W30021  14.676   3.846   1.587 -0.2434  0.0923 -0.2919
16608W        W30022   8.385   9.534   2.609  0.3217  0.1691 -0.0411
16609W        W30023   3.113  11.345  11.872  0.1176 -0.1723 -0.1618
16610W        W30024   2.066   0.434   4.766 -0.0305 -0.0424  0.1812
16611W        W30025  15.053  10.649   0.349  0.0211  0.0870  0.0018
16612W        W30026  16.713  17.404  12.114  0.1107  0.1318  0.0486
16613W        W30027   1.111   4.183  16.455 -0.2259 -0.1022 -0.0651
16614W        W30028   4.854   4.846  13.865 -0.0416  0.0683 -0.4847
16615W        W30029   3.543   1.231  15.959  0.2463 -0.2843 -0.1944
16616W        W30030   0.511   7.367   0.116 -0.2643  0.1703 -0.0710
16617W        W30031  13.611  15.594   0.792 -0.0195 -0.1136  0.2124
16618W        W30032  15.018   2.028   3.887 -0.0722 -0.1476  0.2377
16619W        W30033   7.625  10.916  13.267  0.0881 -0.3276 -0.0928
16620W        W30034  15.355   4.770   5.624  0.4523 -0.0215  0.0447
16621W        W30035   7.656   3.346   2.887  0.0682  0.0951  0.1141
16622W        W30036  13.233   5.080   0.340 -0.0482 -0.1004 -0.2665
16623W        W30037  15.906   0.686   4.046  0.1494 -0.0630 -0.1350
16624W        W30038  16.658   2.919   0.623  0.0664 -0.2958  0.2103
16625W        W30039   7.224   4.367  14.653 -0.0175  0.3160  0.0599
16626W        W30040  15.442   2.857   0.993 -0.0800 -0.0624 -0.1904
16627W        W30041  12.734   4.569  12.596  0.1504 -0.0494 -0.0284
16628W        W30042  18.030   5.346   3.297  0.1359 -0.0716  0.0476
16629W        W30043   7.857   9.609   2.623 -0.2361 -0.0949 -0.1525
16630W        W30044   3.118   9.895   0.822  0.1070 -0.1039 -0.2179
16631W        W30045   4.676  11.586   1.102 -0.0175 -0.2648  0.1886
16632W        W30046   1.493  17.921  14.342  0.2065 -0.0047  0.2284
16633W        W30047   6.786  12.127   1.112 -0.1340  0.1656  0.2035
16634W        W30048  14.094   1.302  11.102  0.1994 -0.0725  0.1302
16635W        W30049   8.751  17.853  16.349 -0.3188 -0.0977 -0.1101
16636W        W30050  17.443   0.973   5.231  0.1709 -0.1726 -0.0197
16637W        W30051  16.544  14.993  12.942 -0.0264 -0.1452 -0.0859
16638W        W30052  10.474  17.503  11.097  0.1440  0.2812 -0.0143
16639W        W30053   5.404   2.823  11.195 -0.1055  0.0050 -0.3126
16640W        W30054   9.415  14.993  15.834 -0.0734  0.3663  0.2962
16641W        W30055  15.195   6.620   0.435  0.2352  0.1794 -0.0355
16642W        W30056  11.814   5.224   3.062  0.1163 -0.0139 -0.0470
16643W        W30057  11.114   9.139  14.172  0.0089 -0.0690 -0.0963
16644W        W30058   1.310   5.822   0.577  0.1658 -0.0087 -0.2582
16645W        W30059   9.338   3.693   0.717 -0.0364 -0.1151  0.2786
16646W        W30060   2.294   2.091  15.870  0.2664  0.0151 -0.2519
16647W        W30061   5.668  11.517   4.281 -0.2118  0.1516 -0.0564
16648W        W30062  15.134  11.156  15.786  0.2725 -0.0033 -0.0631
16649W        W30063  16.445  17.377  15.648 -0.1141 -0.0035  0.0967
16650W        W30064  17.146   5.008   2.718 -0.2417 -0.2536  0.0106
16651W        W30065  11.395  17.085  12.115 -0.2954 -0.0985 -0.2507
16652W        W30066  15.203  15.472  13.122  0.2385 -0.0813 -0.0867
16653W        W30067  12.001  17.839  15.893  0.0776 -0.1054 -0.0889
16654W        W30068  13.572   9.934   1.976  0.1077 -0.2169  0.0379
16655W        W30069  13.612   7.978   3.893  0.0678  0.0184 -0.2168
16656W        W30070   0.645   4.746   6.903 -0.1897  0.3051  0.0513
16657W        W30071  16.254  11.004  15.286  0.0969  0.0276  0.0246
16658W        W30072  13.152   5.590  13.506  0.0293  0.2996  0.2285
16659W        W30073   5.501  16.312  15.020  0.0423 -0.2419 -0.0684
16660W        W30074   0.319  14.480   1.250 -0.0030 -0.1802 -0.0288
16661W        W30075   7.421   4.989   2.261 -0.1685  0.1176  0.2077
16662W        W30076  15.782   9.003  12.942  0.2991 -0.1190  0.3895
16663W        W30077   8.699   3.125  14.953 -0.1235  0.1208 -0.3238
16664W        W30078  14.883   4.986  13.936 -0.0578 -0.1603 -0.0964
16665W        W30079  15.644   8.959   5.977 -0.1265  0.0628  0.1877
16666W        W30080  13.789  10.313  11.114 -0.1497 -0.2183 -0.1199
16667W        W30081   5.918  15.916  14.219 -0.0604 -0.1809 -0.0622
16668W        W30082   7.599   6.051   5.043 -0.0460 -0.1653 -0.3269
16669W        W30083   1.470  14.576   2.744 -0.2314  0.0109  0.0089
16670W        W30084  11.806  13.144   4.300  0.1599 -0.3041  0.2208
16671W        W30085   3.275  11.950  15.313 -0.1186 -0.1831  0.0697
16672W        W30086   4.511   2.561   3.902  0.2720 -0.1280  0.1012
16673W        W30087  10.229  17.966  11.045 -0.2433  0.1452  0.0969
16674W        W30088   7.103  13.869  15.298 -0.0365  0.1923  0.1621
16675W        W30089   0.299  16.846  15.438  0.1625  0.1555  0.0733
16676W        W30090   7.907   5.982  14.397  0.2552 -0.0479  0.0081
16677W        W30091   9.926   2.750  15.503  0.1950 -0.1800 -0.3066
16678W        W30092   4.145  12.410   0.489  0.0475  0.0987  0.1501
16679W        W30093  10.303   5.270  12.533  0.0517 -0.1030  0.2894
16680W        W30094   6.394   7.307   2.057  0.1721  0.2049 -0.0010
16681W        W30095  15.319   9.257  12.081 -0.0462 -0.0451  0.0288
16682W        W30096  13.858  13.414   5.706  0.2765 -0.2504 -0.0731
16683W        W30097  12.589   5.878   3.856 -0.0754 -0.4908 -0.0767
16684W        W30098  11.066   6.776  10.902 -0.1044  0.0433  0.1266
16685W        W30099   3.435  13.647  15.124  0.1155  0.2012 -0.1454
16686W        W30100   1.053   0.213  14.142 -0.0647 -0.1719 -0.3070
16687W        W30101   1.246   2.442   0.890 -0.1301 -0.0743  0.0631
16688W        W30102   3.138   5.603   5.754  0.0524 -0.0388 -0.1374
16689W        W30103   5.256  17.169   5.274  0.0829 -0.0549 -0.1634
16690W        W30104  10.145   9.249   2.318 -0.0262 -0.1144 -0.0556
16691W        W30105  16.212   3.905  16.310 -0.0636 -0.0457 -0.0344
16692W        W30106   4.372   7.904   4.546  0.2172 -0.2127  0.1096
16693W        W30107  14.357   7.565   4.296  0.2980  0.1465 -0.0213
16694W        W30108  11.670  13.988   5.531 -0.0384 -0.1199  0.0892
16695W        W30109   5.295  12.277   0.803 -0.0940 -0.3802  0.1984
16696W        W30110  16.924   7.364   3.786 -0.2108  0.1056  0.0598
16697W        W30111  14.089  14.103   1.666  0.1177  0.0739  0.0103
16698W        W30112  12.834  10.454   0.249  0.0844  0.1958 -0.1778
16699W        W30113  12.189   4.419  13.498 -0.1520  0.1847 -0.1695
16700W        W30114  16.428  12.580   1.351 -0.1101  0.2936 -0.0475
16701W        W30115  15.858   4.826   0.521 -0.0617 -0.0257  0.1685
16702W        W30116  11.681  13.583  15.946 -0.0333  0.0500  0.2297
16703W        W30117  13.029   2.746   3.985  0.0266  0.0170 -0.4380
16704W        W30118   8.142   0.050  15.153  0.4290 -0.2753 -0.0101
16705W        W30119   6.067  16.656  12.571  0.1493  0.1485 -0.1000
16706W        W30120  10.701  12.143   1.609 -0.1616  0.0272 -0.3109
16707W        W30121   4.375  13.880   1.601 -0.3740  0.0149  0.1165
16708W        W30122   1.862   4.943  15.190  0.2346 -0.1624 -0.1959
16709W        W30123  13.474  16.189   4.885 -0.0446  0.0476 -0.1968
16710W        W30124  13.034   9.541  10.686 -0.1808 -0.0590  0.0383
16711W        W30125   9.936  12.214   2.628 -0.2740  0.0283  0.0774
16712W        W30126   1.514   3.815   6.558 -0.1799 -0.2689  0.1545
16713W        W30127   2.924   9.242  15.540  0.2260 -0.0828  0.0380
16714W        W30128  14.330   8.587   2.803 -0.0191  0.0303 -0.0159
16715W        W30129   2.976   7.913   0.196 -0.2429 -0.3050 -0.1426
16716W        W30130   0.616   5.660  10.995  0.1935  0.1947 -0.0822
16717W        W30131   5.604  18.011  11.221 -0.1709  0.0981  0.2110
16718W        W30132   2.670  12.994  10.544  0.0820  0.1279  0.1668
16719W        W30133   3.887   0.779   0.221  0.1979  0.0028  0.0038
16720W        W30134   0.286  10.518   3.732 -0.2771  0.4892 -0.3963
16721W        W30135   6.488   3.304   5.117  0.3776 -0.2111 -0.0441
16722W        W30136  11.334  12.927   0.347  0.1658 -0.3561 -0.1023
16723W        W30137   6.597   2.367  13.726 -0.1502 -0.2511  0.1647
16724W        W30138   4.799  14.141   6.134 -0.1330  0.2372  0.1225
16725W        W30139  11.447   1.506   3.964  0.1794  0.0253 -0.1979
16726W        W30140   0.653   3.942  11.439  0.1859 -0.2280  0.0740
16727W        W30141  13.263   3.896   4.730  0.2250  0.0977 -0.1531
16728W        W30142  17.291   5.312   2.342 -0.3222 -0.1186 -0.1058
16729W        W30143  14.417   4.505   4.169  0.1750 -0.1783  0.0331
16730W        W30144  15.779   1.031   3.707  0.2693 -0.1889  0.1723
16731W        W30145  11.580   9.998   2.231  0.2044  0.0597 -0.0430
16732W        W30146   2.604  13.969   3.930  0.0165 -0.2683  0.1169
16733W        W30147   1.826   2.846   2.339  0.0570 -0.2008  0.1009
16734W        W30148  14.430   0.744  15.691 -0.2619  0.0030 -0.0438
16735W        W30149   1.082  14.574   0.323 -0.1669 -0.1819  0.0878
16736W        W30150  15.593  13.245  13.339  0.1771 -0.1475  0.1563
16737W        W30151  13.446   6.340  14.820  0.0260 -0.0277  0.1419
16738W        W30152   6.421  17.542  12.450 -0.1286  0.3559 -0.1248
16739W        W30153  13.407  16.092  12.007  0.0670  0.3012  0.0967
16740W        W30154  14.478   6.430   3.143 -0.1234 -0.1135  0.0897
16741W        W30155  11.774  15.126   2.241 -0.2374  0.3356  0.1711
16742W        W30156  12.989   4.251   6.267 -0.0178 -0.1816 -0.0349
16743W        W30157  11.231  11.966  12.936 -0.0272 -0.0527  0.1173
16744W        W30158   4.707  12.472   4.866 -0.0402 -0.1972 -0.0387
16745W        W30159   3.505   8.498   0.147  0.1874 -0.3134 -0.3554
16746W        W30160   8.719  10.046  13.706  0.0819 -0.1335  0.3518
16747W        W30161  11.291  16.566   9.783 -0.1674 -0.0954 -0.1220
16748W        W30162   8.610  13.533   4.020  0.1425  0.2801  0.1254
16749W        W30163  17.823  15.179  14.565  0.0054 -0.0739  0.0115
16750W        W30164   0.094   7.811   6.629  0.1111  0.2730 -0.0681
16751W        W30165   1.906   0.357  13.631  0.1747  0.0739 -0.0091
16752W        W30166  16.369   5.128  11.701 -0.1220  0.2909  0.0044
16753W        W30167   7.858   5.533  14.297  0.1429  0.0846 -0.2318
16754W        W30168   0.199   2.802  11.822 -0.2571  0.0936 -0.5504
16755W        W30169  10.600  11.852  13.612 -0.2329 -0.1747  0.2949
16756W        W30170  13.143   7.227  13.174  0.0848 -0.0538 -0.4090
16757W        W30171  12.975   0.793  13.655 -0.0680  0.3972  0.0802
16758W        W30172   9.352  16.132   0.291  0.2816  0.1697  0.0875
16759W        W30173  10.136  16.573   2.852  0.3018  0.1381 -0.1881
16760W        W30174   5.108   3.804  13.913 -0.1718 -0.2664 -0.1173
16761W        W30175  16.356   8.469   1.442 -0.1818 -0.0560 -0.0486
16762W        W30176   4.984   0.057   4.179  0.0484 -0.4216  0.1322
16763W        W30177   1.876   4.226  11.994 -0.0293 -0.0485  0.0415
16764W        W30178  14.804   5.892  11.791 -0.1346 -0.0010 -0.0254
16765W        W30179  16.209  16.983  16.418  0.1920 -0.1516 -0.1142
16766W        W30180   5.398   9.103  13.665 -0.1188  0.0352 -0.0276
16767W        W30181  10.143   0.103   4.178 -0.3177  0.0976  0.1211
16768W        W30182  16.375   9.792  14.209 -0.4364  0.1339  0.1203
16769W        W30183  10.403   1.169  10.111 -0.1616  0.1298 -0.1207
16770W        W30184   8.105  10.097  12.050 -0.0028  0.1830 -0.0077
16771W        W30185   3.372   4.878  13.079 -0.1233 -0.0038  0.0480
16772W        W30186  16.178   5.040   5.950  0.1824 -0.1434  0.3745
16773W        W30187   9.987   0.565   3.759 -0.1381 -0.1676 -0.2197
16774W        W30188   5.503  16.056   1.715  0.1963 -0.1957 -0.0252
16775W        W30189  12.614  16.941   3.071 -0.1320 -0.1013  0.0569
16776W        W30190   5.170  10.131   2.268 -0.2157 -0.1312 -0.1077
16777W        W30191   9.520  13.173  13.257  0.4304 -0.1454  0.3292
16778W        W30192  10.999  17.967  15.966  0.0297 -0.2446 -0.1265
16779W        W30193  15.409  15.244  14.462 -0.2300  0.3454 -0.0360
16780W        W30194   9.378   0.447  13.365  0.0031 -0.2405  0.1343
16781W        W30195  12.498  17.272  10.906  0.1804 -0.2935  0.2938
16782W        W30196   2.128   1.778   6.139  0.0691  0.2781 -0.1305
16783W        W30197   8.061  15.550  14.759  0.2384 -0.3328  0.0419
16784W        W30198   7.876  16.484  15.332 -0.3165 -0.1636 -0.1938
16785W        W30199   9.807  12.878   1.163  0.0204  0.0033 -0.3764
16786W        W30200   7.894  13.969   5.112  0.0342 -0.1838 -0.0359
16787W        W30201   4.773   1.876  14.383  0.0235  0.0416  0.0711
16788W        W30202  15.143   7.834  14.585  0.0050  0.3527  0.0260
16789W        W30203   9.904  13.725  12.431  0.0061 -0.1472 -0.0997
16790W        W30204  17.611   2.319   4.517 -0.2513  0.0226 -0.0072
16791W        W30205  13.510   1.048  14.556 -0.3339  0.0719 -0.0022
16792W        W30206   2.835   8.447   1.471  0.0192 -0.3600 -0.0256
16793W        W30207   5.424  14.882   6.413 -0.0327 -0.1748 -0.2699
16794W        W30208  17.658  15.704  11.878  0.0529 -0.1804  0.0520
16795W        W30209  10.754   9.751  11.071  0.0456 -0.0357 -0.0161
16796W        W30210   8.939   8.064   2.268  0.1506 -0.1941 -0.1727
16797W        W30211   9.780   4.363   4.321 -0.0337  0.1248 -0.1411
16798W        W30212  16.544   8.948   1.444  0.0487 -0.0953  0.0696
16799W        W30213   0.278  17.557  15.295 -0.2460 -0.1389 -0.0920
16800W        W30214  11.589   7.866  15.421  0.0579 -0.0504  0.0663
16801W        W30215  10.008   4.903  14.407  0.0654 -0.1819 -0.1134
16802W        W30216  18.041   2.523  14.836 -0.0288  0.3516 -0.1694
16803W        W30217  12.261   4.936   4.742  0.0066  0.1307 -0.0218
16804W        W30218   1.121  14.055   5.845 -0.0180  0.3169  0.0068
16805W        W30219  15.379   2.446   1.257  0.1917  0.0477  0.1579
16806W        W30220   1.777  12.596  10.309  0.0667 -0.1962  0.0665
16807W        W30221   7.374   9.386  10.229  0.0432  0.1715  0.0289
16808W        W30222  15.002   2.485  14.045 -0.0938 -0.0200  0.0066
16809W        W30223   8.005  16.420   4.902  0.0888  0.0290  0.1345
16810W        W30224   3.179  16.503  16.322 -0.0641 -0.0726 -0.0289
16811W        W30225   8.273   3.484  15.416 -0.0335  0.0604 -0.4521
16812W        W30226   2.395   4.140  12.121 -0.2646 -0.2054 -0.2002
16813W        W30227  14.587  11.040   1.162  0.2130  0.2678 -0.0761
16814W        W30228  16.289   4.816   0.221 -0.2984  0.0061  0.1518
16815W        W30229  17.962  13.586  14.839 -0.0068 -0.3100 -0.0013
16816W        W30230  12.034   6.346  11.210 -0.0924  0.3102  0.1098
16817W        W30231   6.327  16.092  11.094  0.0748  0.0315  0.0405
16818W        W30232  12.071  16.768  12.298 -0.0389  0.1540 -0.1403
16819W        W30233  11.472   9.976   0.945 -0.1530  0.4369 -0.3568
16820W        W30234  11.292  13.399   4.139 -0.0906  0.3198 -0.0239
16821W        W30235  10.497   5.633   0.628 -0.0793 -0.2082  0.3029
16822W        W30236  11.716   4.415  15.676 -0.0239  0.0547  0.0020
16823W        W30237   8.027  13.549   3.176  0.4422  0.0364 -0.0398
16824W        W30238   1.338   6.180   6.548  0.3958 -0.2183 -0.2799
16825W        W30239   5.128  16.382  16.108 -0.5474 -0.2063 -0.1266
16826W        W30240   9.897   2.031  13.912 -0.1986  0.4691  0.1749
16827W        W30241  17.823  14.414   0.460  0.1659 -0.0844  0.0488
16828W        W30242   3.070  11.825  13.558 -0.0523  0.2241  0.1360
16829W        W30243   9.915  12.881  11.380  0.1049  0.1538  0.4138
16830W        W30244   5.994  14.936   0.863 -0.1033  0.0837 -0.0730
16831W        W30245   3.040   9.540  11.180 -0.2251  0.3785 -0.0288
16832W        W30246  17.292   8.095   1.330  0.1504  0.1224  0.1659
16833W        W30247  17.308  15.629   0.346 -0.1350 -0.1180  0.0429
16834W        W30248   8.651  11.415  15.353 -0.2182  0.0696 -0.2663
16835W        W30249   6.453   7.658  15.417  0.1166 -0.4109  0.4939
16836W        W30250   5.672  14.964  10.266  0.2346 -0.0653  0.2241
16837W        W30251   9.354   1.137  14.675 -0.0179 -0.1942 -0.0549
16838W        W30252   1.217  10.993  12.332  0.2146  0.1745 -0.0759
16839W        W30253  13.381  11.704   0.381 -0.1057  0.0552 -0.2229
16840W        W30254   5.822   5.338  11.941 -0.3088 -0.0925  0.0416
16841W        W30255   5.060   0.862  15.330  0.3349 -0.4174  0.0126
16842W        W30256   4.389   5.163   3.334  0.0995 -0.1101 -0.0702
16843W        W30257   0.540  10.473   4.238  0.1519  0.2833 -0.1156
16844W        W30258   2.554  17.584   2.516  0.0553  0.1646  0.1772
16845W        W30259   4.462   3.622  13.645 -0.1275  0.0512 -0.0519
16846W        W30260  15.116  12.141  14.431 -0.3162  0.1751  0.0160
16847W        W30261   9.882  10.394  15.292 -0.0863 -0.1402  0.0931
16848W        W30262   6.093  16.966  13.029 -0.1337 -0.2107 -0.2767
16849W        W30263   4.753   7.103   2.294  0.0402 -0.1395  0.1524
16850W        W30264   7.326   0.704   0.516  0.0778  0.1026  0.1754
16851W        W30265   6.696   2.928  15.832  0.1844  0.0373  0.0432
16852W        W30266  13.351   8.629   3.194 -0.1443 -0.0663 -0.0028
16853W        W30267   0.276   4.799   2.330 -0.2668  0.1750  0.0943
16854W        W30268   6.813   5.402  16.112 -0.2879 -0.1763  0.0166
16855W        W30269   2.190   0.259   6.174  0.0916 -0.1156 -0.3032
16856W        W30270   7.260   6.172   3.453 -0.1158 -0.1020 -0.2384
16857W        W30271   1.293   4.349   4.141 -0.2799  0.2165 -0.1089
16858W        W30272   5.853   6.279  12.040 -0.2277  0.1261  0.1525
16859W        W30273  14.633   7.464   3.401 -0.2526  0.0416 -0.2538
16860W        W30274  15.586  10.480   5.747 -0.1884  0.0175 -0.0297
16861W        W30275   4.631   7.084   5.866 -0.0435  0.0147 -0.0939
16862W        W30276   8.383   7.437   3.951 -0.0121  0.0727 -0.1667
16863W        W30277   2.012  15.308   4.002 -0.3929 -0.0605 -0.1358
16864W        W30278   8.410   3.737  10.425  0.0213 -0.1143 -0.4317
16865W        W30279   5.174   8.102  10.473 -0.0500  0.0423 -0.0636
16866W        W30280   9.948   3.496  13.188  0.2579 -0.1035 -0.2119
16867W        W30281   1.414   9.597   1.441  0.0926  0.0735 -0.0649
16868W        W30282  11.088  10.480   1.618 -0.2152  0.2334 -0.1664
16869W        W30283  18.004   6.620   4.669  0.2751  0.0741 -0.0253
16870W        W30284  14.300  12.961  12.153  0.0235  0.5430  0.0228
16871W        W30285   3.226  14.509   5.533  0.1220  0.0180 -0.0427
16872W        W30286   8.454  16.268  15.584 -0.0968 -0.0777  0.2409
16873W        W30287   7.036   2.576  11.030  0.3191 -0.0277  0.0959
16874W        W30288   4.603   3.746  14.109  0.1188  0.0255  0.0079
16875W        W30289  14.477  16.738  13.172 -0.1175 -0.0104 -0.0540
16876W        W30290   9.219  15.529   2.181  0.0196 -0.2029 -0.1468
16877W        W30291  11.779   9.664  10.042  0.1012  0.0720 -0.1765
16878W        W30292  15.612   7.024   1.947  0.0956 -0.1175  0.1196
16879W        W30293   5.472   4.104  15.948  0.0231  0.0200 -0.3239
16880W        W30294  13.910   2.911  12.972  0.1806  0.0154 -0.0371
16881W        W30295   7.714   4.850  13.516 -0.2451 -0.1477  0.0072
16882W        W30296   0.646  14.627   5.871  0.0229 -0.2248  0.1248
16883W        W30297   7.122   5.672   0.562 -0.1292 -0.0698  0.0223
16884W        W30298  17.269  14.592   5.392 -0.0768  0.0119 -0.0451
16885W        W30299  17.774  10.671   3.944 -0.0153 -0.1019 -0.0741
16886W        W30300  10.412   1.270   5.555 -0.1330  0.1797  0.1732
16887W        W30301  12.873   9.039  15.015 -0.0493  0.2188  0.0285
16888W        W30302  18.038  17.695   2.495  0.0847 -0.2553 -0.1784
16889W        W30303   3.868  15.934   6.383  0.2303  0.0787  0.0409
16890W        W30304   3.369   6.522   0.208  0.1694 -0.0112 -0.2959
16891W        W30305  13.419  12.225  15.065  0.2366 -0.2331 -0.2150
16892W        W30306  16.202  14.016  16.575 -0.0119  0.2906 -0.3755
16893W        W30307   6.169   0.760  13.760 -0.1055 -0.0280 -0.1908
16894W        W30308   8.140   8.615   5.852 -0.0377  0.4109  0.1621
16895W        W30309  14.889   1.935  12.277  0.0340  0.2191 -0.0827
16896W        W30310  15.149  13.212   5.116  0.1187  0.1293 -0.1422
16897W        W30311  14.032  15.877  11.190 -0.2148 -0.0711  0.1385
16898W        W30312   3.521   2.012   4.513 -0.1177 -0.0170 -0.1228
16899W        W30313   8.709  10.007  14.898  0.1460 -0.1915 -0.0233
16900W        W30314   2.570  16.994  14.997 -0.0499  0.1969  0.0355
16901W        W30315  14.194  14.492  12.754 -0.2998  0.1949 -0.0306
16902W        W30316   7.773   8.652   5.559  0.0826  0.0083  0.0027
16903W        W30317   6.674  14.598  14.340  0.0869 -0.1545 -0.1022
16904W        W30318   6.359  10.260   2.938  0.1023 -0.0127  0.1422
16905W        W30319   7.106   5.490   2.851  0.0365 -0.0240  0.1407
16906W        W30320   8.392   8.798  12.089  0.1810  0.2652  0.1386
16907W        W30321  13.381   1.448  14.213  0.0174  0.1602 -0.0482
16908W        W30322  16.850   4.725  13.834  0.2397  0.1613 -0.0232
16909W        W30323  14.296  13.336   0.997  0.2095  0.3255  0.0955
16910W        W30324  11.450   6.949  13.089  0.1291  0.0548  0.0351
16911W        W30325   5.293   2.005   4.132 -0.3715 -0.2057  0.1762
16912W        W30326   0.843  16.191   6.861 -0.2752 -0.0616 -0.0749
16913W        W30327   9.310  12.869  10.043 -0.1125  0.0795 -0.1327
16914W        W30328   1.167   4.959   1.952 -0.0093 -0.0593  0.2197
16915W        W30329  16.229   3.396  16.283  0.1613 -0.0016 -0.0234
16916W        W30330   1.153  10.932  11.826 -0.0078  0.1014 -0.0011
16917W        W30331   4.694  10.751  13.399  0.0118  0.1916 -0.2539
16918W        W30332  16.019  16.108  12.111  0.0054 -0.3736  0.3150
16919W        W30333   6.315   5.081  10.717 -0.1880 -0.1533 -0.0620
16920W        W30334  17.064   3.263  16.157 -0.1202 -0.2768  0.2319
16921W        W30335   0.449  10.639  11.909  0.0207 -0.0569  0.2117
16922W        W30336  16.784   4.461   4.695  0.1403 -0.0697  0.1562
16923W        W30337  13.026  13.189   1.904 -0.1573  0.1307 -0.1291
16924W        W30338   9.617   2.004  14.972  0.3730 -0.3212 -0.2442
16925W        W30339   6.219  15.059  10.954 -0.0372 -0.1798  0.3243
16926W        W30340   4.117  12.667  11.312  0.0077 -0.1365 -0.0106
16927W        W30341   8.032   4.582  13.223  0.2484  0.0031  0.1573
16928W        W30342  15.006   4.885   5.129  0.1932  0.1073 -0.2215
16929W        W30343  16.893   1.371   2.655 -0.1032  0.1461  0.0622
16930W        W30344  16.360   4.548   3.505  0.3450  0.2858 -0.0278
16931W        W30345  14.655   1.731   3.557 -0.1287  0.0894 -0.2203
16932W        W30346   0.229  15.571   4.538  0.1954  0.0579  0.3194
16933W        W30347  15.984   1.704  16.421 -0.0286  0.2175 -0.1764
16934W        W30348  17.355  12.090   4.297  0.0559  0.1079 -0.0909
16935W        W30349   3.139   6.877  11.746  0.2998  0.3054  0.0662
16936W        W30350  11.754   3.489  10.693  0.0412  0.0221  0.0353
16937W        W30351   9.042  10.468   0.334  0.2016  0.1725  0.4489
16938W        W30352   4.302   0.869  12.620 -0.1342  0.1350 -0.0205
16939W        W30353  10.772  12.604  10.028 -0.2086 -0.1540 -0.1776
16940W        W30354  14.527   9.909   4.813  0.0513 -0.0698  0.0930
16941W        W30355  17.737   6.588  12.033 -0.0772  0.2597  0.2456
16942W        W30356   8.377  13.608   3.531  0.0559  0.1175 -0.0582
16943W        W30357   9.841  14.088   4.993 -0.1537 -0.2118  0.1911
16944W        W30358  16.530   4.478  15.814 -0.0915 -0.2668 -0.0277
16945W        W30359  12.918  13.160  14.109  0.0644 -0.1392  0.0682
16946W        W30360   1.816   6.063   5.638 -0.1962  0.2519  0.1221
16947W        W30361  15.842   7.000   5.750 -0.0375  0.0201 -0.1260
16948W        W30362  13.872   1.711  11.269 -0.0536 -0.0779 -0.2801
16949W        W30363  10.970  17.748  13.670 -0.1477  0.0020 -0.1915
16950W        W30364   3.233   2.037  12.019 -0.1497  0.2151  0.0128
16951W        W30365   6.044   9.898   2.794 -0.0263 -0.1042  0.0113
16952W        W30366  15.683   0.916   0.375 -0.2673  0.4105 -0.1207
16953W        W30367   5.918  11.234  10.557  0.0750  0.0444 -0.1386
16954W        W30368  15.642  10.202  14.583 -0.0970 -0.0732 -0.0913
16955W        W30369  13.972   3.089   1.463 -0.1690  0.0633  0.0188
16956W        W30370   9.353   1.940   5.885 -0.0377 -0.1412 -0.0784
16957W        W30371   2.976  17.799  15.131 -0.0334  0.0558  0.1528
16958W        W30372   9.070  10.685   2.758  0.2610  0.0295 -0.6627
16959W        W30373  11.007  14.129  14.828 -0.2753  0.3615 -0.0120
16960W        W30374  13.934  15.610  13.355 -0.1801  0.0876 -0.2650
16961W        W30375   6.558   5.255   0.609  0.2151  0.0183 -0.0844
16962W        W30376   8.589   7.980  12.526  0.2190  0.2131  0.3598
16963W        W30377  14.776   0.058   4.670 -0.2975  0.2154  0.0204
16964W        W30378   6.710   3.839  12.014 -0.0958 -0.0892  0.1250
16965W        W30379  10.689  17.076  12.052  0.0280  0.0114  0.1131
16966W        W30380  10.758  15.161   3.813 -0.1059 -0.2427  0.0941
16967W        W30381  18.014   6.434  13.149 -0.2373  0.1034 -0.0173
16968W        W30382  17.742   4.567   0.050 -0.1517  0.1432 -0.1315
16969W        W30383  10.793  16.227   5.410 -0.1817  0.3419 -0.0658
16970W        W30384   7.333  13.285   2.596  0.3291 -0.3512  0.0465
16971W        W30385   4.548   3.434   1.740  0.0327 -0.1048  0.0105
16972W        W30386   3.157  12.140  15.757  0.1398  0.3654  0.1134
16973W        W30387   2.840  10.950  12.467 -0.2097  0.1345  0.0865
16974W        W30388   7.666   5.853   9.744  0.0731  0.1509  0.1846
16975W        W30389   4.611   7.218  12.500 -0.3079 -0.1354 -0.3324
16976W        W30390  13.251  13.394   4.010 -0.2750  0.0741 -0.1601
16977W        W30391   4.609  12.520  12.629 -0.1691  0.1321 -0.0250
16978W        W30392  17.372   7.177   3.557 -0.0221  0.0604  0.1077
16979W        W30393  16.739  12.137   2.128  0.0156  0.1797  0.1504
16980W        W30394  12.461  11.313  16.625 -0.0862  0.1534  0.2545
16981W        W30395   7.375   6.248   1.548 -0.1202  0.3021  0.0438
16982W        W30396   1.369  12.864   5.599 -0.4831 -0.2542 -0.0745
16983W        W30397   4.974   6.669  14.889  0.1207 -0.0690 -0.0267
16984W        W30398   6.569   8.351  16.621  0.0338 -0.3334 -0.0720
16985W        W30399  12.975   5.433   2.611 -0.1015  0.0458  0.0751
16986W        W30400   9.439  15.865   1.164 -0.0117  0.0945 -0.3288
16987W        W30401   0.109   5.897  12.364  0.0501 -0.2614 -0.2686
16988W        W30402  15.650   8.439  13.159 -0.3026 -0.1698 -0.3901
16989W        W30403   2.427   0.509   3.058  0.1256  0.2732 -0.2409
16990W        W30404  17.776  11.145   1.661  0.2638  0.3253  0.0020
16991W        W30405  15.226  13.926  13.688 -0.2152  0.2350  0.0661
16992W        W30406   6.178   4.760  13.769 -0.0961 -0.1040 -0.1844
16993W        W30407  16.175   4.359   0.332  0.0120  0.0068  0.1747
16994W        W30408  12.568   7.361  16.028 -0.2707  0.0326 -0.0329
16995W        W30409  14.822  13.221   1.026 -0.1768 -0.1825 -0.0399
16996W        W30410   9.226   0.255   0.822  0.3031  0.0783 -0.0080
16997W        W30411   7.792  14.198   6.360 -0.0652  0.0707 -0.4505
16998W        W30412   2.186   9.531   3.072  0.3002  0.1496  0.2178
16999W        W30413   4.153   6.589   3.232  0.1535 -0.3441 -0.1535
17000W        W30414   6.318   4.326  16.171  0.0250  0.0480 -0.2319
17001W        W30415   6.018  13.225  14.608 -0.3776  0.1378 -0.1138
17002W        W30416  16.658  17.907  13.656  0.3664 -0.1184 -0.3088
17003W        W30417   1.159   1.631  16.380 -0.1489  0.0795 -0.1232
17004W        W30418   1.170  13.455   0.123 -0.0930 -0.1380 -0.0078
17005W        W30419   7.930   5.847  11.546 -0.0805 -0.2628 -0.0627
17006W        W30420   6.624   6.995  10.708  0.1240 -0.2137  0.1437
17007W        W30421   8.032  11.739   3.374 -0.2331 -0.1758 -0.3363
17008W        W30422   8.724   5.828   4.211 -0.2349 -0.2710  0.0550
17009W        W30423  16.692   6.636   1.401  0.2639 -0.2373 -0.1772
17010W        W30424   4.375   4.657  13.857  0.0914  0.0290 -0.0196
17011W        W30425  11.719   0.757   1.022  0.0018  0.0483  0.0420
17012W        W30426  10.081   2.423  10.470  0.0325  0.1489 -0.0086
17013W        W30427   0.777   7.913   2.268  0.4525  0.1721  0.1670
17014W        W30428   9.008   7.051  14.943  0.1060  0.2950  0.1328
17015W        W30429  16.199  15.428  12.693 -0.1589  0.1573 -0.0506
17016W        W30430  14.370  15.681  12.761  0.1484 -0.0068 -0.1569
17017W        W30431   3.660  17.561  14.096  0.0407  0.2412 -0.0382
17018W        W30432   5.818   4.323  12.927 -0.3218  0.2380  0.0945
17019W        W30433   6.296  13.399  13.571  0.2408 -0.2586 -0.0410
17020W        W30434   8.169   5.735  10.665 -0.0096  0.0854  0.1112
17021W        W30435  14.786  12.039  12.510  0.1486 -0.1758  0.0351
17022W        W30436   0.473   8.142   2.594  0.1304  0.2062 -0.1643
17023W        W30437   0.894  13.377   4.643 -0.0636 -0.1951  0.0840
17024W        W30438   4.007   6.795  14.926  0.0186 -0.1712 -0.1352
17025W        W30439   0.806  13.536   5.986 -0.0087 -0.0730  0.1122
17026W        W30440   7.678   6.823   3.242  0.1905  0.0027 -0.1467
17027W        W30441  15.400   8.828  13.915  0.0727 -0.0676  0.4188
17028W        W30442  16.538   7.760   6.252  0.0180  0.0252 -0.0414
17029W        W30443   6.805   6.159  10.819 -0.2538  0.1024  0.3285
17030W        W30444   2.698  14.891  13.892 -0.0077 -0.0459  0.2242
17031W        W30445   2.295  15.009   2.780  0.2810  0.2421  0.1512
17032W        W30446  16.123   3.812  11.866 -0.0207 -0.0302 -0.1697
17033W        W30447  16.144  16.473  16.572  0.2489 -0.0461 -0.1089
17034W        W30448  16.074  15.885   3.798  0.0108 -0.2776  0.1737
17035W        W30449  15.939  17.177   0.092 -0.3731 -0.1968  0.0011
17036W        W30450   1.436   3.333   4.072 -0.0028 -0.1223 -0.0740
17037W        W30451  11.754  16.935   0.547 -0.0978  0.0101  0.1321
17038W        W30452   8.696   0.167  15.141 -0.2351 -0.2324  0.1950
17039W        W30453   9.958  14.303  10.745  0.0342  0.1093 -0.0820
17040W        W30454  13.080   5.240   5.504  0.0395  0.0124 -0.3038
17041W        W30455   6.659   6.553  11.626 -0.1963  0.0650  0.0659
17042W        W30456   0.964  10.162  13.023 -0.2048 -0.0564  0.3571
17043W        W30457  13.488  16.218   3.895  0.4521  0.1332 -0.1569
17044W        W30458  14.081  12.812   1.121 -0.0872 -0.1700 -0.1879
17045W        W30459   4.077   0.943   6.228 -0.2625  0.1183  0.1309
17046W        W30460  12.529  16.841   2.270  0.1627 -0.1509 -0.0971
17047W        W30461  12.277   5.223  11.661  0.0188 -0.3002  0.3717
17048W        W30462  14.667   3.358   5.187  0.1306 -0.1835  0.0455
17049W        W30463   3.011   6.708   4.736  0.0779  0.0742 -0.0016
17050W        W30464   0.017   3.012   0.119 -0.2851  0.0492  0.2306
17051W        W30465  14.124   3.735  16.024  0.0824  0.0329  0.1420
17052W        W30466   4.520   8.150   5.848  0.2206  0.1703  0.1928
17053W        W30467   9.258   9.616   1.438  0.2175 -0.0522 -0.0395
17054W        W30468  11.993  13.907   1.949 -0.0643  0.0256  0.1149
17055W        W30469  11.515  16.501  14.790 -0.0923  0.1549 -0.0311
17056W        W30470  12.214  15.522   2.976 -0.0493 -0.0159  0.1030
17057W        W30471   2.923   0.732   3.339 -0.1482  0.3708  0.0544
17058W        W30472   7.136   4.811  11.769 -0.3038 -0.0590 -0.0465
17059W        W30473   9.219   6.663   3.039 -0.0223  0.0994  0.2056
17060W        W30474   1.551  16.560   6.258  0.1424  0.0468  0.2967
17061W        W30475   6.030  11.916   4.199 -0.0211  0.5395  0.1523
17062W        W30476  11.566   3.039   2.231 -0.1190  0.0243 -0.1139
17063W        W30477   1.806  14.739  13.931 -0.0786 -0.0108 -0.0618
17064W        W30478  12.039  10.953   1.449 -0.0517  0.0190 -0.0737
17065W        W30479   6.106  14.110  12.010  0.0629  0.0821  0.0868
17066W        W30480  16.068   3.844   4.691 -0.0053  0.1225 -0.0634
17067W        W30481  11.775  15.463   0.921  0.1054 -0.0218  0.2245
17068W        W30482   0.325   9.289  15.145  0.0532  0.0473  0.0556
17069W        W30483  17.771  14.290  14.200  0.0409 -0.0477 -0.2090
17070W        W30484  13.545  11.159  15.658  0.2070  0.0976  0.0387
17071W        W30485   6.195  12.718  14.687 -0.1224  0.1463  0.0602
17072W        W30486  11.834  14.964  15.656  0.1778 -0.0246  0.0713
17073W        W30487   6.853  17.100  14.693 -0.0949 -0.1410 -0.3664
17074W        W30488  12.549  15.283  13.502 -0.2715  0.1011 -0.1167
17075W        W30489  12.742   6.251   1.047 -0.2360  0.0740  0.1114
17076W        W30490  15.926   9.705   4.576  0.0706  0.2294  0.1209
17077W        W30491   1.753   4.606   4.983 -0.2569  0.1483  0.1017
17078W        W30492   8.187  12.862  14.445  0.0773 -0.2574 -0.1057
17079W        W30493   2.459  10.392   1.193  0.0449  0.1246  0.1521
17080W        W30494   4.021   2.383  14.511 -0.1531  0.1148  0.1616
17081W        W30495   7.538  16.100  12.716  0.0226  0.2969  0.1066
17082W        W30496  14.948   8.603  11.783 -0.2475 -0.4094 -0.2515
17083W        W30497  13.167   8.493  11.841 -0.4861 -0.1907 -0.0757
17084W        W30498  16.940   4.927  12.443  0.0294  0.0058 -0.2497
17085W        W30499  12.619   3.256  13.761  0.0302 -0.0810  0.2988
17086W        W30500   0.249  14.867   5.254  0.2553 -0.1320 -0.0477
17087W        W30501   7.425  16.194   2.391 -0.2800 -0.1297 -0.0748
17088W        W30502   3.528   8.643   5.469  0.0317  0.2074  0.0963
17089W        W30503   7.962   9.015   5.185 -0.1209  0.1709  0.1247
17090W        W30504   4.600   1.572  15.830 -0.0165  0.2360  0.0299
17091W        W30505   3.756   0.985   3.734  0.0608 -0.5592 -0.0100
17092W        W30506   9.692  12.143   4.521 -0.0412  0.0176 -0.2555
17093W        W30507   7.085   3.937  14.027 -0.0674 -0.2090  0.1225
17094W        W30508  15.504   2.656  14.914 -0.2970 -0.0362  0.2075
17095W        W30509  15.060  14.862   4.659 -0.1188 -0.0636 -0.1749
17096W        W30510  13.754  14.208   0.840  0.0270  0.2366 -0.2066
17097W        W30511   1.659  13.668   4.259 -0.0193  0.3139 -0.2614
17098W        W30512  16.722  11.650  14.188  0.1513 -0.2941  0.2674
17099W        W30513   4.106  11.742  13.823  0.1326 -0.2140  0.1739
17100W        W30514  13.812   7.864   6.090  0.2398  0.1021  0.1421
17101W        W30515   0.494   8.030   4.630  0.2645 -0.1706  0.1283
17102W        W30516  17.801  16.958   4.093 -0.1461  0.0086  0.1827
17103W        W30517   2.280   7.943   4.962  0.0852 -0.0614  0.0297
17104W        W30518   5.549   9.481   1.149  0.0224 -0.6080  0.0328
17105W        W30519   8.602  13.491   6.323 -0.0055 -0.1161  0.1442
17106W        W30520   7.884  10.128   2.988  0.3833  0.0550 -0.1054
17107W        W30521  12.779  10.879  15.370  0.0206  0.1385 -0.3782
17108W        W30522  10.442   8.859  16.084  0.3432  0.1086  0.1781
17109W        W30523  12.429   2.020   0.114 -0.2598  0.0343  0.0798
17110W        W30524   7.483   7.980  15.288 -0.0293  0.1273 -0.1210
17111W        W30525  16.477  17.283   1.950  0.0323  0.0064 -0.1060
17112W        W30526   5.581   0.890   3.098 -0.0171 -0.1858 -0.3309
17113W        W30527   8.400  14.207  10.923 -0.1207  0.0604  0.3524
17114W        W30528   8.799   3.053   4.394 -0.4296 -0.1782  0.0828
17115W        W30529  12.464  11.202   1.371 -0.0823 -0.0064  0.0115
17116W        W30530  15.845   3.127   6.313 -0.0214  0.1759 -0.1316
17117W        W30531   0.757  15.630   2.554  0.1996 -0.0471 -0.2181
17118W        W30532  14.588   2.731  14.976  0.0846 -0.2726  0.1588
17119W        W30533  11.415  16.092   1.311 -0.4729  0.1142 -0.0379
17120W        W30534   4.558  11.885  10.992 -0.0029 -0.2283 -0.0204
17121W        W30535   0.158   4.252   6.380 -0.0572 -0.2245 -0.0808
17122W        W30536   3.988  11.833  15.350 -0.0579 -0.0125 -0.0978
17123W        W30537  14.981  13.883  15.661 -0.0341 -0.0594  0.1544
17124W        W30538   8.522  16.249  16.456  0.0085  0.0873  0.0434
17125W        W30539  13.632   2.922   0.035  0.2574  0.2153 -0.0817
17126W        W30540   3.073  14.933   1.690 -0.2369 -0.3211  0.0084
17127W        W30541   7.471  11.757  13.318 -0.1903 -0.2369 -0.1872
17128W        W30542  17.227  10.280  11.542  0.1005  0.3045  0.1210
17129W        W30543   6.471   5.182  16.452 -0.1033  0.0334  0.0918
17130W        W30544   0.847  16.857  13.647 -0.2137 -0.1988 -0.0602
17131W        W30545  12.546   1.362  15.291 -0.0818  0.1897 -0.3170
17132W        W30546  11.556   7.373   1.750  0.1622 -0.1759  0.1943
17133W        W30547   3.290   5.560   6.384  0.0999  0.0803  0.2099
17134W        W30548   8.387  16.534  10.892 -0.0182 -0.3325  0.1614
17135W        W30549  12.511   8.623   3.791  0.2603 -0.0163  0.0409
17136W        W30550  10.331  12.281  10.687 -0.5903  0.1654  0.1301
17137W        W30551   7.890  15.671  12.726 -0.0037  0.2417 -0.2460
17138W        W30552   7.713   8.239  10.427 -0.0031 -0.1628 -0.0012
17139W        W30553   2.617  15.336   0.944  0.0518 -0.1199  0.2789
17140W        W30554   0.951  14.836  13.759 -0.1230 -0.2582  0.3613
17141W        W30555   0.327   0.541  12.602  0.3515 -0.2885  0.2235
17142W        W30556   4.354  10.865  16.686 -0.0243  0.2325  0.2634
17143W        W30557  10.712  12.399  10.477 -0.1996  0.0122 -0.1290
17144W        W30558   9.655  17.672  15.276 -0.1399 -0.1736  0.1086
17145W        W30559  15.801  14.692  16.299 -0.0091 -0.0566 -0.1207
17146W        W30560  14.006  13.209  10.811  0.1767 -0.1385  0.2748
17147W        W30561   8.180   1.585   1.598 -0.0756  0.1135 -0.1086
17148W        W30562  14.270   9.228  11.597  0.5512 -0.1003  0.0360
17149W        W30563   7.320   8.253   4.947  0.0133  0.2333  0.1276
17150W        W30564   8.712   9.590  13.514 -0.0564  0.2364 -0.0163
17151W        W30565   1.615   5.844   2.938  0.2893 -0.3379  0.0183
17152W        W30566  10.529   4.942  14.591 -0.1966  0.1582  0.1045
17153W        W30567  13.219   7.595   2.304  0.0677  0.1635 -0.2047
17154W        W30568   9.654   2.816  13.729 -0.0059 -0.1349  0.0384
17155W        W30569   0.824  17.417  16.064  0.1786 -0.1180 -0.3053
17156W        W30570  10.995   2.305  14.750 -0.1143  0.1492 -0.1813
17157W        W30571   8.799  14.549   5.020 -0.5235  0.0331 -0.0538
17158W        W30572   5.833  13.229  15.920 -0.0664  0.1532 -0.0950
17159W        W30573  13.638   0.586  12.028  0.1121  0.1850 -0.0039
17160W        W30574   4.105   6.782  14.451  0.1033  0.0529 -0.1229
17161W        W30575   7.505   5.268  14.512 -0.2550 -0.0549  0.0916
17162W        W30576   3.368   0.987  11.898  0.2693  0.1897  0.0114
17163W        W30577   4.995  12.835   3.526 -0.0110 -0.3322 -0.0714
17164W        W30578  11.786   7.804   5.833 -0.0930  0.2077  0.2457
17165W        W30579   3.395   0.566   3.470 -0.0335 -0.1492 -0.2232
17166W        W30580   5.672  11.470  16.094  0.2101  0.1265  0.1434
17167W        W30581   3.474   7.911   4.466 -0.2019  0.0948 -0.0750
17168W        W30582   5.929  15.635   2.945  0.1304  0.1403  0.0833
17169W        W30583  16.131  15.432   2.039 -0.0557  0.0707  0.0717
17170W        W30584  13.302  14.764   2.565  0.0119 -0.0108 -0.0146
17171W        W30585   1.529  12.149  13.112 -0.1715 -0.2406  0.1370
17172W        W30586  12.889  17.067   5.240  0.0372  0.1102 -0.1626
17173W        W30587  14.947  10.836  12.720 -0.2958  0.0384 -0.2154
17174W        W30588  14.306   1.241  12.625  0.0909 -0.4118  0.0143
17175W        W30589  12.124   3.606  12.949  0.0298 -0.1172  0.2782
17176W        W30590  12.784   9.897   3.507  0.1442  0.2694  0.1944
17177W        W30591  16.436  15.491   3.169 -0.0735  0.2627 -0.1070
17178W        W30592  12.444  13.565   5.082 -0.1688  0.2146  0.2176
17179W        W30593   5.867   4.550   2.210  0.0253  0.0918  0.1219
17180W        W30594   1.321   8.614  12.168 -0.0426  0.0498  0.1666
17181W        W30595   4.968   3.009  15.571  0.4471 -0.0623  0.1499
17182W        W30596   0.981  15.421  13.886 -0.3484  0.1699  0.4222
17183W        W30597   5.574   3.526  12.999  0.0995  0.0965  0.0961
17184W        W30598   4.929   6.302  14.521  0.0520 -0.3045  0.0583
17185W        W30599   7.804  16.806   0.423  0.1962 -0.0356  0.0969
17186W        W30600  17.747  16.844   1.871  0.0796 -0.0271 -0.0446
17187W        W30601   7.685   4.549  16.075 -0.0718 -0.0323 -0.0051
17188W        W30602  10.276   5.723   4.985 -0.2891 -0.0193  0.1257
17189W        W30603  15.002   4.683   2.124  0.0920  0.1664 -0.0465
17190W        W30604   8.037  13.450  14.365 -0.0463  0.0472 -0.0983
17191W        W30605  15.489   7.206   5.419  0.1573  0.0556  0.1393
17192W        W30606   2.445   0.472  11.592  0.0232 -0.2953  0.1181
17193W        W30607   9.977  10.509   2.221 -0.2600  0.1145 -0.0118
17194W        W30608   0.931  12.615   3.929 -0.0186 -0.1658  0.0223
17195W        W30609  16.042  13.045  11.258  0.0463 -0.1860  0.1093
17196W        W30610   9.975  15.566   0.895  0.2036 -0.0747  0.0057
17197W        W30611  11.573  17.544   3.002  0.2453 -0.0289 -0.0264
17198W        W30612  14.713  17.954  13.391  0.1542 -0.0216  0.1297
17199W        W30613  13.571   8.573  11.271 -0.1045 -0.0876  0.1991
17200W        W30614  16.811   2.665  14.012  0.0027 -0.0595 -0.2451
17201W        W30615  14.556   2.526  16.018 -0.2616 -0.2814 -0.2192
17202W        W30616  11.270   8.549  13.341 -0.0106 -0.1205  0.0903
17203W        W30617   5.957  14.308   3.271  0.0384 -0.2131 -0.2520
17204W        W30618   0.969  16.745   0.592 -0.0050 -0.3633 -0.0356
17205W        W30619   2.455   3.762   6.310 -0.1020  0.2083 -0.0195
17206W        W30620  11.026   1.604  15.607  0.2262 -0.0210 -0.0884
17207W        W30621  12.638  14.781  13.464  0.0591 -0.0668  0.1070
17208W        W30622   3.995  12.873   0.364  0.0509 -0.0591 -0.1197
17209W        W30623   8.430   5.663  14.513  0.0149 -0.1472  0.2625
17210W        W30624   7.490   3.995  12.588  0.0399  0.1890  0.2540
17211W        W30625   5.503  13.720   0.289  0.2648  0.2777 -0.5268
17212W        W30626   1.857   7.493  12.938  0.0797 -0.1154 -0.2349
17213W        W30627   7.963   2.251  13.941 -0.0856 -0.0859  0.1880
17214W        W30628   5.440  16.698  13.288 -0.1375 -0.0256  0.5040
17215W        W30629  14.044   1.271  16.095 -0.0582 -0.0869 -0.1543
17216W        W30630  12.949   8.253   3.906  0.0105  0.3683 -0.3273
17217W        W30631  16.925  10.682   5.508 -0.3330  0.0368 -0.0263
17218W        W30632  14.585   5.516   2.765  0.2502  0.0329 -0.0446
17219W        W30633  15.798  11.986  14.196  0.1278  0.0951  0.3244
17220W        W30634   3.591  17.850  10.561  0.2591  0.1990  0.3609
17221W        W30635   0.240   0.807  15.851  0.2003 -0.2160 -0.1171
17222W        W30636  10.791  16.902   1.672 -0.1015  0.3375  0.0608
17223W        W30637  12.103  10.870   2.996 -0.1770  0.1116  0.2217
17224W        W30638  10.321  14.784   2.649  0.1540 -0.2048 -0.3716
17225W        W30639  13.499  12.413  12.459 -0.0826 -0.1652  0.3983
17226W        W30640   2.158  14.442   0.633 -0.1226 -0.1356  0.0305
17227W        W30641  10.666   0.532   5.611  0.0936  0.1197  0.0747
17228W        W30642   0.763   0.489  15.136  0.1967  0.2819  0.0172
17229W        W30643  15.629   0.287  13.430  0.0594 -0.0608 -0.1043
17230W        W30644  16.818  11.885  10.674 -0.1048 -0.1982 -0.2874
17231W        W30645   3.428   7.118   4.045 -0.0993  0.0186  0.1731
17232W        W30646   7.470  12.331  12.335 -0.0321  0.0107  0.2970
17233W        W30647  14.191   7.513  11.636 -0.0787  0.0846 -0.1524
17234W        W30648   5.024  12.058  16.292  0.0262  0.0651 -0.1365
17235W        W30649   5.637  12.156   3.004 -0.2750  0.2359  0.0426
17236W        W30650   0.477  14.734  13.957  0.0523 -0.0321  0.4109
17237W        W30651  10.782  14.933   1.402  0.1229  0.3025  0.1224
17238W        W30652   0.815  15.989   6.270 -0.0996 -0.1001 -0.0502
17239W        W30653  17.639   8.196  15.487  0.1523 -0.2387  0.1539
17240W        W30654  13.247   7.200  12.559 -0.0248  0.1721 -0.1321
17241W        W30655   5.301  16.093  11.933  0.0518 -0.2469 -0.1439
17242W        W30656  13.402   7.454   3.072  0.0759 -0.3408 -0.1393
17243W        W30657   1.282   2.690   6.057  0.1671 -0.1428 -0.0919
17244W        W30658   2.107   3.580   0.128  0.3151  0.1001  0.0617
17245W        W30659   5.114   3.220  15.131  0.2488 -0.1542 -0.2440
17246W        W30660  17.326  17.354   5.508 -0.2553 -0.3844 -0.3132
17247W        W30661  12.615  10.764  12.284 -0.1507 -0.2877 -0.1000
17248W        W30662   2.526   0.169   1.818  0.0706  0.3150 -0.1744
17249W        W30663  17.183  17.654  14.182 -0.2491 -0.1015 -0.0017
17250W        W30664  16.291  12.132   3.503 -0.1878  0.2276 -0.0590
17251W        W30665  16.581  12.314   5.630 -0.1468 -0.0086  0.0535
17252W        W30666   5.397  15.594  10.626 -0.1032  0.0358  0.4331
17253W        W30667   8.685   7.203   2.371  0.0889 -0.0289 -0.0433
17254W        W30668   7.470   8.291  15.685  0.1751  0.2302 -0.0751
17255W        W30669  16.062   6.227  16.146 -0.0787  0.0019  0.2843
17256W        W30670  12.953   1.493   4.942  0.0623  0.4232  0.2387
17257W        W30671  16.268   5.213   6.971 -0.1430 -0.1167  0.0427
17258W        W30672   5.603  17.993   1.904 -0.3187 -0.0612  0.0150
17259W        W30673  15.211   0.997  15.271  0.1219  0.0597 -0.1671
17260W        W30674   4.677  17.106   1.914 -0.3317 -0.3039  0.0659
17261W        W30675   1.792   3.518  14.898  0.0312  0.1221 -0.0994
17262W        W30676   6.656   3.473  16.480  0.2857  0.2021 -0.0631
17263W        W30677   4.185  14.222  13.106  0.0589 -0.1439  0.2592
17264W        W30678   9.613   5.320   2.874  0.0940 -0.0885  0.1016
17265W        W30679   6.590  17.486  11.932 -0.1490  0.1145  0.0670
17266W        W30680  10.635   1.948   2.065 -0.1403  0.0519 -0.2729
17267W        W30681   6.165   0.834  15.504 -0.1317 -0.1223 -0.2440
17268W        W30682   2.884   3.580   0.680 -0.1740 -0.0657  0.2529
17269W        W30683   0.754   6.157   1.976  0.0145  0.0899 -0.0661
17270W        W30684  11.347  13.250  14.516  0.1083  0.1707 -0.0161
17271W        W30685  10.972   3.691   4.909  0.0540 -0.2356  0.2134
17272W        W30686   6.389   2.064  15.189 -0.2783 -0.1862 -0.2904
17273W        W30687   1.058  10.984  15.613  0.0005 -0.1186  0.1510
17274W        W30688  12.560  14.198   3.869 -0.2720  0.1959  0.4386
17275W        W30689   9.321   8.498  16.545  0.0041  0.0539 -0.1657
17276W        W30690   5.928   1.507   5.430 -0.2536  0.1952 -0.0813
17277W        W30691  14.801   9.873  13.671 -0.2041  0.0319 -0.1857
17278W        W30692   4.815   5.745  11.584  0.1418 -0.2008  0.1328
17279W        W30693  17.641   6.397   0.285  0.4411 -0.0812  0.2986
17280W        W30694   6.321   6.751   6.376  0.3528  0.1717  0.1048
17281W        W30695   8.538   1.548  15.143  0.0171 -0.0741  0.0530
17282W        W30696   4.361  16.579   0.862  0.2732 -0.1791 -0.1585
17283W        W30697  15.935   5.560  14.555  0.1146  0.0793  0.1106
17284W        W30698  13.132  11.576   4.101 -0.0669 -0.3541 -0.1232
17285W        W30699  15.580  15.304   2.302  0.2479  0.2855  0.1339
17286W        W30700   9.909   5.035  10.533 -0.1752  0.0470  0.0496
17287W        W30701  14.531  17.515  13.101 -0.0412  0.0954 -0.1322
17288W        W30702  10.054   2.677   2.982 -0.3252 -0.1556 -0.3278
17289W        W30703   2.149  10.185  10.836 -0.2636  0.0561 -0.0530
17290W        W30704   3.531  16.675   6.500  0.1794 -0.4159 -0.0961
17291W        W30705  16.502  13.414  15.781  0.1362 -0.0751 -0.0847
17292W        W30706  10.648   3.846   2.754 -0.2194 -0.2814  0.2976
17293W        W30707  12.642   4.642   5.029  0.0028 -0.3218  0.0686
17294W        W30708   0.659   7.097   4.506 -0.1159 -0.1804 -0.0529
17295W        W30709   9.519   7.326  15.080  0.1657 -0.0105 -0.0006
17296W        W30710   1.531   7.672   0.219 -0.1447  0.1962 -0.0784
17297W        W30711  15.468  17.123  16.542  0.1622 -0.0761  0.0744
17298W        W30712   1.340  13.563  16.322 -0.0833  0.2233  0.2117
17299W        W30713   9.233   4.354   0.170 -0.1115 -0.1216  0.1199
17300W        W30714  16.259   4.189   5.393 -0.4816 -0.1443 -0.1865
17301W        W30715   8.957   6.623   3.472 -0.1974 -0.0704  0.1022
17302W        W30716   9.657   5.635  14.653  0.1589 -0.0451 -0.0811
17303W        W30717   9.102  10.550  13.679 -0.2248 -0.0170  0.1894
17304W        W30718   3.542   2.177   2.379  0.2960  0.0481  0.2485
17305W        W30719  13.903  17.842  13.550 -0.2063 -0.0527  0.3285
17306W        W30720   4.090  16.088   4.508  0.0498  0.0341 -0.0945
17307W        W30721   2.676   5.709  12.709 -0.0226  0.1709  0.0222
17308W        W30722  17.451  10.511   0.961  0.1014 -0.0207 -0.1086
17309W        W30723  17.274   1.014  15.469  0.2395  0.2277 -0.2830
17310W        W30724   2.220  13.510   0.867 -0.2630  0.0909  0.1244
17311W        W30725   3.920   8.159  13.251  0.1551 -0.0064 -0.0295
17312W        W30726  17.125  17.229   2.690  0.0503 -0.0278  0.0803
17313W        W30727   0.032   5.623   6.868  0.0205  0.2994  0.1964
17314W        W30728   3.135   5.001   1.095  0.2879  0.0685 -0.1324
17315W        W30729   6.880   6.780  15.815  0.3774 -0.1226  0.2076
17316W        W30730   6.088  15.704   1.561  0.0638 -0.1004 -0.1664
17317W        W30731   4.356  16.386  11.783  0.2329  0.1135  0.3441
17318W        W30732   4.902  12.112   4.577  0.2044 -0.0293 -0.2043
17319W        W30733  17.162   6.427   4.930  0.0640 -0.0526  0.1148
17320W        W30734  16.137   0.654  14.379 -0.1261  0.2988 -0.0435
17321W        W30735   7.561   2.058   1.443  0.0138  0.0186 -0.0102
17322W        W30736  16.792  12.555  13.952  0.2770  0.0787 -0.2126
17323W        W30737   5.436   5.284   3.522 -0.0752 -0.1007  0.2139
17324W        W30738   9.323   6.791   0.813 -0.1597  0.1371 -0.0737
17325W        W30739   6.045   5.754  10.644 -0.0724 -0.1450 -0.0764
17326W        W30740   2.248  12.962  13.232 -0.0575  0.2480 -0.1158
17327W        W30741   6.989   9.444  15.907  0.0927  0.0398 -0.1700
17328W        W30742   5.653   8.310  14.165  0.2612 -0.1834 -0.1116
17329W        W30743  13.261  10.064   3.402  0.3414 -0.0738  0.1493
17330W        W30744  10.729   8.265   5.174 -0.0241  0.2130  0.0826
17331W        W30745  11.146  17.020   3.724 -0.2578  0.0636 -0.0724
17332W        W30746   5.504  16.794  16.255  0.0108  0.1937 -0.2238
17333W        W30747   6.966   1.629   4.095 -0.0894 -0.1646 -0.1783
17334W        W30748  13.804   4.925   3.602 -0.3073 -0.2682 -0.1648
17335W        W30749   1.673   5.925  13.727 -0.1368  0.1739  0.0740
17336W        W30750  15.109   7.015  14.078 -0.2267 -0.2364 -0.1439
17337W        W30751   5.179   3.084  12.818 -0.1861  0.1145 -0.2254
17338W        W30752   3.897   9.006   1.442  0.1871  0.2290 -0.3093
17339W        W30753   1.871   9.265   6.323 -0.5333  0.0589  0.2006
17340W        W30754   4.541   0.866  10.484 -0.1741  0.1807 -0.3607
17341W        W30755  10.795  14.452   0.009 -0.2093 -0.0386  0.1961
17342W        W30756   0.484   8.608   3.334 -0.1137 -0.1524  0.2880
17343W        W30757  13.438   8.682  15.450  0.0180  0.0912  0.1750
17344W        W30758   6.624  14.830   1.704  0.2147 -0.0216 -0.1361
17345W        W30759   8.929   6.118   3.625 -0.0408  0.0081 -0.0423
17346W        W30760   5.707  13.380   3.450  0.0381 -0.0746 -0.4293
17347W        W30761  14.319   8.774  12.910 -0.0824  0.0122  0.0965
17348W        W30762   1.006  11.980   3.683  0.1698 -0.1283 -0.3628
17349W        W30763   2.130   8.520   2.442  0.1960 -0.2764  0.3362
17350W        W30764   8.012   8.209   3.171  0.1168  0.1684 -0.0008
17351W        W30765   3.501  17.723   3.218 -0.0362 -0.1291  0.0043
17352W        W30766   6.810   0.889   4.578  0.0125  0.2883  0.4087
17353W        W30767   9.847  16.442  15.658  0.0123 -0.4008 -0.0744
17354W        W30768   8.842  13.011   4.018 -0.0682  0.1377 -0.1797
17355W        W30769  13.686   1.799  15.256  0.1858  0.3576 -0.3000
17356W        W30770   4.538  11.881  16.467 -0.2416 -0.0341  0.0007
17357W        W30771   0.566   6.588   4.526 -0.1892 -0.2269  0.3202
17358W        W30772   0.725  17.634  15.071 -0.2079  0.1582 -0.1552
17359W        W30773   4.875   4.229  10.665  0.0073 -0.0720 -0.1762
17360W        W30774  15.136   7.019  15.496  0.1373  0.1916 -0.1545
17361W        W30775   1.550   3.353   3.594 -0.0699  0.0432  0.0320
17362W        W30776   1.253  15.010   6.294  0.1831 -0.0255 -0.3248
17363W        W30777   2.509   1.797  11.847  0.0856 -0.1056 -0.2249
17364W        W30778   0.453   2.727  15.613  0.0313 -0.1518  0.0742
17365W        W30779   7.043   2.875  10.388 -0.0845  0.3619  0.1835
17366W        W30780   1.678   8.644  16.398 -0.2275 -0.0194  0.1773
17367W        W30781   8.371  12.758  13.491  0.1651  0.0028  0.1298
17368W        W30782   4.623  12.371   5.477 -0.1740  0.0229  0.0206
17369W        W30783  14.461   7.315  12.464  0.1350  0.0735 -0.0265
17370W        W30784  15.668  15.018   0.551  0.0921  0.1430 -0.0024
17371W        W30785   3.818   9.361  11.759  0.0601  0.1204  0.2056
17372W        W30786   5.859   5.780  16.286 -0.0589  0.3444 -0.1636
17373W        W30787   5.541   2.588   3.399 -0.0591  0.0349 -0.0586
17374W        W30788   3.501   5.513   1.251  0.1283 -0.3858  0.0534
17375W        W30789   6.514  10.251  15.519  0.1354 -0.0768  0.3399
17376W        W30790   8.528   5.667   0.956  0.0686 -0.0574 -0.2574
17377W        W30791  14.386  11.411  10.762 -0.0798  0.0295  0.0981
17378W        W30792   6.886   8.107   5.311 -0.0165  0.1073  0.1064
17379W        W30793   0.912   6.395  15.833  0.1634  0.1095  0.2778
17380W        W30794   6.762   5.397   2.110  0.1628  0.2290  0.1752
17381W        W30795  17.901   9.005  11.753 -0.0435 -0.2697  0.2154
17382W        W30796  13.074  14.664  12.334  0.2588 -0.1885  0.1058
17383W        W30797   8.195  17.556  12.351 -0.0873  0.0564  0.2316
17384W        W30798   4.410  12.541   1.019  0.2211  0.0642  0.1684
17385W        W30799   3.131  14.869   6.039  0.1909  0.0286 -0.1493
17386W        W30800  13.937   7.670  13.607  0.0390  0.0461  0.0615
17387W        W30801   3.202   4.406  12.224 -0.0166  0.1833  0.0065
17388W        W30802   4.461  11.023  13.784 -0.1747  0.0077  0.0489
17389W        W30803  10.950   8.147   2.018  0.0395  0.0528 -0.3751
17390W        W30804   1.358   5.891   5.665  0.1691  0.0308  0.4886
17391W        W30805  13.858  14.916   1.427  0.0830 -0.3845  0.1396
17392W        W30806   3.185   8.520  11.889  0.0148 -0.0791 -0.2663
17393W        W30807  12.562  17.837   2.658 -0.2827 -0.0364  0.0339
17394W        W30808  17.545   4.112   2.136 -0.1031  0.2542 -0.1734
17395W        W30809  15.112   5.473   5.106  0.1888  0.1413 -0.1348
17396W        W30810   9.331   4.024  12.879 -0.1233 -0.2052 -0.3515
17397W        W30811   2.093  12.337   2.789 -0.0712 -0.0615 -0.0357
17398W        W30812   1.077   9.658  12.081 -0.2597  0.0606 -0.2070
17399W        W30813  10.192  14.071   1.091  0.0311 -0.0260  0.3809
17400W        W30814   5.240  10.080  10.795  0.0271  0.0590 -0.0768
17401W        W30815   7.141  15.954   4.061  0.1202  0.1156 -0.0398
17402W        W30816  11.179   4.621   5.544 -0.1321 -0.0169  0.0081
17403W        W30817  11.073  16.056   3.579  0.0472  0.0119  0.0495
17404W        W30818  12.496   3.312   4.901  0.0881 -0.3996 -0.2024
17405W        W30819   9.629  11.187  16.310 -0.2564 -0.4127  0.0478
17406W        W30820   1.483  14.585   4.008 -0.2166 -0.1658  0.0342
17407W        W30821  17.508   0.079   5.912  0.3362 -0.2540  0.0405
17408W        W30822   7.507  10.774   4.895  0.0573  0.2581  0.1002
17409W        W30823   0.549  16.276  11.671  0.0495 -0.1624  0.0356
17410W        W30824  14.926  12.904  13.762  0.0521  0.0630  0.1211
17411W        W30825  10.537  12.423  12.415 -0.0702  0.2765 -0.2062
17412W        W30826   6.715   5.854  14.800  0.2703 -0.0037  0.1423
17413W        W30827   4.047   6.512   3.816 -0.0401 -0.0872  0.1167
17414W        W30828  12.359  14.412  13.629  0.1548 -0.3910 -0.1909
17415W        W30829   6.795  11.067  11.686  0.1311 -0.1472  0.0307
17416W        W30830  13.774  13.968  10.156  0.2509  0.1270  0.3778
17417W        W30831   2.276   6.210   1.223 -0.3260  0.0747  0.1227
17418W        W30832  15.452  15.190  12.264 -0.2236 -0.1541  0.0871
17419W        W30833   2.946   3.072  10.952  0.2436  0.0050  0.1646
17420W        W30834   9.209   9.451   4.666  0.1654  0.4102  0.4479
17421W        W30835  18.034   1.389  11.585 -0.2108  0.1791 -0.2588
17422W        W30836   5.760   6.270   2.921  0.0836  0.1107 -0.3857
17423W        W30837  11.180   3.363   5.369 -0.1773  0.0870 -0.0554
17424W        W30838   3.364  11.150   0.163 -0.2745  0.0010  0.0421
17425W        W30839   9.678  11.528  15.495  0.1659  0.1612 -0.1259
17426W        W30840   4.613   2.390  12.549 -0.0302 -0.2148 -0.1502
17427W        W30841   1.792   1.043  14.486  0.3947 -0.0725  0.2693
17428W        W30842   9.689  15.774  11.163  0.0237  0.1014 -0.0361
17429W        W30843   2.600   1.533   2.244 -0.0833 -0.2639 -0.1777
17430W        W30844   3.783  11.131   5.669  0.0472  0.0287  0.0327
17431W        W30845   4.381   1.979  16.285 -0.0742 -0.0869 -0.1247
17432W        W30846  14.029   2.895  12.509 -0.1272  0.0368  0.0301
17433W        W30847  15.190  10.268  12.820 -0.0243 -0.1087  0.0959
17434W        W30848  12.118   1.174  13.146  0.2879  0.2346 -0.4417
17435W        W30849  14.000   9.362  14.501 -0.2220  0.0795  0.0772
17436W        W30850   7.713  14.980  11.589  0.1977 -0.0325 -0.0826
17437W        W30851   6.579   1.972  13.195  0.0734  0.1881  0.3620
17438W        W30852  17.445  16.325   7.027 -0.2655 -0.2651  0.0655
17439W        W30853  14.322  17.577   1.806  0.0411 -0.0310 -0.0848
17440W        W30854   4.140   8.731  15.281  0.0179 -0.1262  0.1395
17441W        W30855  10.913   5.629  14.231  0.1486 -0.2100  0.0952
17442W        W30856  14.259  12.403   5.588  0.2989  0.2265 -0.4444
17443W        W30857   3.292   5.074   0.306 -0.1300 -0.1184  0.0784
17444W        W30858   5.817   7.726   6.239  0.2565  0.0017  0.3574
17445W        W30859  17.329   8.038   5.835  0.0187  0.0654 -0.0003
17446W        W30860  16.557  15.443   5.465 -0.0391  0.0750 -0.1393
17447W        W30861  11.072   6.319   4.144  0.1065  0.0132 -0.1123
17448W        W30862  17.941   9.192   1.284  0.2310 -0.0868  0.2916
17449W        W30863   0.709  14.894   0.171 -0.1456 -0.1437 -0.2047
17450W        W30864  15.697  15.585   0.838 -0.0395  0.3372 -0.2337
17451W        W30865  11.025  15.040  11.052  0.0644 -0.1053  0.0244
17452W        W30866   6.039  12.129   6.084 -0.1840 -0.1749  0.0834
17453W        W30867   8.093  13.671  13.621 -0.0047 -0.1597  0.1388
17454W        W30868   2.146  10.542  13.659  0.0477 -0.2981  0.1829
17455W        W30869  17.621   6.043  13.168  0.0119 -0.0380  0.0772
17456W        W30870  13.516  10.824   1.730 -0.0654  0.2379 -0.0426
17457W        W30871   6.930   9.430  14.872  0.0831 -0.0420 -0.0940
17458W        W30872  14.584   3.159  13.502  0.1573 -0.1229 -0.0271
17459W        W30873  17.675  13.997   0.646 -0.1527  0.2406 -0.2064
17460W        W30874   9.390   9.058  11.960  0.0692  0.0118 -0.1798
17461W        W30875  17.414   0.952  12.765 -0.1077 -0.1886  0.0686
17462W        W30876   6.446  15.825  14.974  0.0034  0.2416  0.2547
17463W        W30877   3.419   5.321  11.644  0.3595  0.0792 -0.0268
17464W        W30878  12.689   7.366  13.258  0.1233  0.2500  0.0119
17465W        W30879  17.113   9.537   1.539  0.2091 -0.0010 -0.1305
17466W        W30880   8.564   2.714   9.998  0.1998 -0.1437  0.1110
17467W        W30881   7.687   8.807  12.099  0.0440  0.0313  0.0690
17468W        W30882  11.205   5.586   3.404  0.1639 -0.2086  0.0932
17469W        W30883  12.392   7.098   2.618  0.0605 -0.5322  0.1321
17470W        W30884  10.393  10.790  13.241 -0.2231 -0.1891 -0.0428
17471W        W30885  11.666   4.384   2.653 -0.0905 -0.0444  0.3856
17472W        W30886   0.777   7.832  12.224  0.1510  0.1187  0.1677
17473W        W30887   8.960   4.124   1.093  0.0555 -0.2919 -0.0226
17474W        W30888   4.263   0.510   5.175 -0.0402  0.1012 -0.0832
17475W        W30889   0.981   5.984  12.948  0.2172 -0.2482  0.0976
17476W        W30890   2.368   6.414   3.892  0.1966 -0.0744 -0.1373
17477W        W30891   5.436  11.855   1.572 -0.0887  0.1152  0.2216
17478W        W30892   8.465  11.015   2.985 -0.1192  0.1097 -0.1215
17479W        W30893  11.416   0.643  11.854  0.0501  0.0332 -0.1072
17480W        W30894  17.266  17.096  15.021 -0.0439 -0.0988  0.3142
17481W        W30895  11.917   6.847  14.418  0.1611  0.2620 -0.1914
17482W        W30896   3.410  11.483  13.238  0.2478 -0.4252  0.1200
17483W        W30897   7.534  17.007   5.298  0.2432  0.1936  0.1203
17484W        W30898   6.368   5.456  12.155 -0.1244 -0.0954 -0.3170
17485W        W30899   3.616   5.329  16.566 -0.1571 -0.3472  0.0495
17486W        W30900  17.768   9.419  14.461  0.0485  0.1171 -0.3225
17487W        W30901   8.599  14.111   2.324 -0.2538  0.1992 -0.0601
17488W        W30902  10.710  10.718   3.526 -0.1619 -0.0206  0.2655
17489W        W30903  10.853   0.986   9.875  0.1283  0.4027 -0.3111
17490W        W30904   4.542  14.687  15.847 -0.0335  0.2025 -0.2273
17491W        W30905   5.908   9.498   5.580  0.1140  0.0644 -0.4845
17492W        W30906  15.264  16.334   3.947 -0.4721  0.0844  0.1606
17493W        W30907   1.142   6.581   1.915 -0.4539 -0.0387 -0.0182
17494W        W30908  10.231   5.039  11.411 -0.2205  0.2231  0.0002
17495W        W30909   9.391  11.587   0.569 -0.3024 -0.1672 -0.2208
17496W        W30910   5.381   6.414   4.794 -0.2502 -0.2205  0.0891
17497W        W30911  16.560  11.401  15.420  0.1314  0.0730 -0.1493
17498W        W30912  11.379  12.449   4.553 -0.0059  0.1905  0.0899
17499W        W30913  15.678   1.385   5.892 -0.3126  0.2890  0.0629
17500W        W30914   3.157   9.790  10.688  0.0055 -0.1694 -0.1795
17501W        W30915  13.487  14.265   5.271 -0.0046 -0.2019  0.0296
17502W        W30916  12.855   2.770  14.435  0.0166 -0.0276  0.0797
17503W        W30917   9.368   4.794  16.184  0.1045 -0.0967 -0.0867
17504W        W30918  16.305  11.451  13.371 -0.0400  0.1042  0.0669
17505W        W30919  17.911  14.598  14.590 -0.1956 -0.0234  0.0521
17506W        W30920  16.070   6.443  14.221 -0.1809 -0.0842 -0.1880
17507W        W30921  11.730  14.499  16.256 -0.0092 -0.3798  0.1670
17508W        W30922  17.112   3.396  15.148  0.1626 -0.3581  0.0803
17509W        W30923  17.697  16.561   4.462 -0.0772 -0.2724  0.1857
17510W        W30924   1.634   0.181   4.012  0.0149  0.1802 -0.2037
17511W        W30925  17.524  11.563   3.416 -0.0722 -0.0503 -0.0895
17512W        W30926   2.432  12.220   1.370  0.1480  0.0869 -0.1772
17513W        W30927   3.593  14.434   0.384 -0.1559 -0.0474  0.1720
17514W        W30928  13.908   1.780   4.712  0.1164  0.1304 -0.2932
17515W        W30929  14.098  12.109   4.684 -0.2403 -0.1229 -0.1177
17516W        W30930  11.339  14.487   2.627  0.1967  0.2706  0.0247
17517W        W30931   0.993  14.779   2.019  0.2332 -0.2481 -0.4057
17518W        W30932  15.824   6.855   5.250 -0.1211  0.0981  0.0821
17519W        W30933   9.873  10.628   0.747 -0.2402 -0.0706 -0.1586
17520W        W30934   1.023   3.212  13.231  0.1542  0.0445  0.3283
17521W        W30935   9.641  15.435   9.987  0.0856  0.0218 -0.2067
17522W        W30936  16.328  13.149  12.777 -0.1854 -0.0795  0.0599
17523W        W30937   8.365   0.953  12.063 -0.0706  0.1414  0.0222
17524W        W30938  16.119   8.064   1.273  0.0861 -0.1376  0.1693
17525W        W30939   1.529   1.844   3.391  0.1411 -0.5039 -0.1601
17526W        W30940   7.758  13.678  12.937  0.0165 -0.5410 -0.0080
17527W        W30941   9.986   6.115   4.707  0.1235  0.0375  0.0813
17528W        W30942  12.179  15.639   1.948 -0.1133 -0.0614 -0.0356
17529W        W30943   5.975   7.022  13.299 -0.1070 -0.1311 -0.0790
17530W        W30944  15.034  11.687  15.649 -0.0196 -0.0285 -0.0683
17531W        W30945   4.327  10.642  14.090  0.4191  0.1297 -0.2529
17532W        W30946  10.995   0.069   5.423  0.2410  0.0584 -0.4402
17533W        W30947  15.987  12.648   4.977  0.2555  0.0824  0.0925
17534W        W30948  11.366  12.467   3.670  0.3065  0.2428 -0.0457
17535W        W30949  10.974   4.028  12.593 -0.1008 -0.1130 -0.0029
17536W        W30950   1.546   5.886   5.144  0.0212 -0.3470 -0.0901
17537W        W30951  16.995   5.032  16.301  0.3154  0.0979  0.0946
17538W        W30952  15.601  13.341  15.676 -0.1738  0.4047  0.2150
17539W        W30953   2.634   6.889   1.514  0.0203  0.1568 -0.2089
17540W        W30954   1.498  15.070  15.493  0.0101 -0.0686  0.1366
17541W        W30955   4.898   1.325  14.622  0.0534 -0.5138 -0.2591
17542W        W30956   0.944  12.657  15.555 -0.1044 -0.1514 -0.1101
17543W        W30957  10.406   6.658  14.880  0.1191  0.1242 -0.1917
17544W        W30958  16.646  17.959  15.835  0.0485  0.1089 -0.0111
17545W        W30959   6.893  16.715   1.972  0.1583 -0.0919 -0.0681
17546W        W30960   2.123   7.104  12.889 -0.1438  0.6223  0.0259
17547W        W30961   5.344  14.143   4.113 -0.1959  0.0458 -0.0469
17548W        W30962  12.232   3.419  15.516  0.2523  0.0236  0.0149
17549W        W30963   3.221  12.062   4.768 -0.0412  0.0899  0.2779
17550W        W30964   1.870   2.041   3.734 -0.3497 -0.2161  0.0863
17551W        W30965   8.431   5.224   1.897 -0.0249  0.2462  0.1680
17552W        W30966   6.533   5.013   4.674  0.0816 -0.0982 -0.2736
17553W        W30967   2.572  11.977  14.236  0.2097 -0.0219  0.4344
17554W        W30968  14.865   5.291   1.194  0.0989  0.0226 -0.1538
17555W        W30969  14.124   7.838  14.576  0.0832 -0.1428 -0.2016
17556W        W30970  14.362  15.436  15.082 -0.2399 -0.0877 -0.2233
17557W        W30971   5.114   0.084   5.151 -0.1554 -0.1011  0.1536
17558W        W30972   4.276  17.284   3.162 -0.2594  0.2097 -0.2546
17559W        W30973  12.645   9.736   3.043  0.0660  0.4434  0.0414
17560W        W30974  17.031   5.842   1.995 -0.2960 -0.2079  0.0297
17561W        W30975  10.856  16.124  16.390  0.0739  0.0510  0.3374
17562W        W30976   0.623   2.570  10.852  0.0471 -0.1750  0.0049
17563W        W30977   0.519   7.230  15.550 -0.0655 -0.2219 -0.1923
17564W        W30978  11.561   0.112  16.069 -0.2085  0.1219  0.2000
17565W        W30979  13.080   2.053   1.224 -0.1920 -0.0594  0.1939
17566W        W30980   9.401  11.499  12.278 -0.1672 -0.1272  0.0111
17567W        W30981   9.853   4.233   3.183 -0.0002  0.0525 -0.0907
17568W        W30982  14.770   8.206   2.979  0.1834 -0.0763  0.0239
17569W        W30983  12.299  16.803  15.263 -0.0915 -0.2134  0.0558
17570W        W30984   9.559  16.391   2.000 -0.0979 -0.0750 -0.0952
17571W        W30985  15.921   0.096  13.005 -0.0046 -0.3038 -0.2842
17572W        W30986   5.120   8.171   5.170  0.0940  0.3058 -0.0089
17573W        W30987   6.187  14.233   1.238  0.2653 -0.2528 -0.1263
17574W        W30988   2.217  16.166  15.280  0.1103  0.1695  0.2074
17575W        W30989   6.297  14.679  10.037  0.2234 -0.1581  0.0299
17576W        W30990   3.264  13.759  14.596 -0.1087  0.1515 -0.0536
17577W        W30991   5.582  14.359  16.399  0.0064 -0.3879  0.2756
17578W        W30992  14.713   8.499   1.027 -0.0435 -0.0946 -0.0499
17579W        W30993  13.128   2.775  12.207 -0.1147  0.0278 -0.1468
17580W        W30994   3.953   2.878  15.980 -0.2779  0.1863 -0.0305
17581W        W30995  15.474   0.380   2.057 -0.0620  0.1051  0.4198
17582W        W30996  13.517   6.293  11.714  0.2023  0.2579 -0.0893
17583W        W30997  13.098   4.589   4.204 -0.2571  0.2143  0.5174
17584W        W30998  14.506   2.015  14.115 -0.1691 -0.2445 -0.0854
17585W        W30999   6.394   5.465  14.881 -0.1100  0.1247 -0.2831
17586W        W31000   5.178  17.002   1.209  0.3348  0.2827  0.2500
17587W        W31001  15.391   9.995  14.237  0.1686  0.1307  0.1223
17588W        W31002   4.767   3.550  14.984 -0.0190 -0.2216 -0.0036
17589W        W31003   8.250  13.863  11.704 -0.2459 -0.0138 -0.1846
17590W        W31004  12.747   3.608  12.810  0.0007 -0.2268  0.0627
17591W        W31005   8.518  10.600  10.522 -0.1122 -0.0336  0.1151
17592W        W31006  16.964   0.675  12.558 -0.0930 -0.2154 -0.2103
17593W        W31007  17.431   5.717  14.763  0.0721  0.0465  0.3600
17594W        W31008  11.893   6.708   2.521  0.1176 -0.1653  0.1695
17595W        W31009  13.758   9.350  11.743  0.2008 -0.1945  0.0535
17596W        W31010   6.808  11.465   1.043  0.0536 -0.0207 -0.0837
17597W        W31011  10.065  15.565  13.152  0.0117 -0.0027  0.0821
17598W        W31012  14.583   8.690  10.926 -0.0430 -0.1029 -0.4118
17599W        W31013  13.895   8.895  13.632  0.3355 -0.1726 -0.1138
17600W        W31014  17.399   9.171   0.904 -0.0600 -0.3702 -0.1762
17601W        W31015   3.219   5.782  13.349 -0.1048 -0.0053  0.0580
17602W        W31016   0.525  13.125  12.788  0.1454 -0.1527 -0.2316
17603W        W31017  10.755   7.033  13.647  0.1236 -0.1420 -0.0618
17604W        W31018  15.387  15.572  11.187  0.3418  0.3459  0.0620
17605W        W31019  12.992  15.292  14.805  0.2478  0.3012 -0.1505
17606W        W31020  12.479   8.647  13.129  0.0072 -0.1209 -0.1659
17607W        W31021  16.169   2.742  12.287 -0.2129 -0.1916 -0.3468
17608W        W31022   8.559  16.167  10.100  0.0779 -0.2190 -0.0966
17609W        W31023  13.779   7.113   3.037  0.2681 -0.1172  0.2028
17610W        W31024  12.762   5.266  14.330  0.0332 -0.0302  0.1564
17611W        W31025  12.501  17.200   0.846 -0.1846 -0.3841  0.1086
17612W        W31026  11.950  16.837  16.234 -0.1490  0.0314  0.1538
17613W        W31027  12.619  13.155   0.656  0.1232  0.1980 -0.1743
17614W        W31028  11.908   6.567  16.221  0.2181 -0.0555 -0.3623
17615W        W31029  10.865   7.221  12.599  0.3120 -0.1891  0.1938
17616W        W31030   7.247   8.949  16.395  0.0809 -0.0240  0.1651
17617W        W31031   1.442   2.087   6.368  0.0155 -0.1620  0.1092
17618W        W31032   9.426  13.329  12.729  0.2325  0.1438  0.1145
17619W        W31033   9.960   4.165  13.645 -0.0577  0.1407 -0.1526
17620W        W31034  14.439   1.080   4.432 -0.1905 -0.2252  0.0542
17621W        W31035   2.444   2.887  13.053  0.1335 -0.1697  0.3719
17622W        W31036  11.099  16.917   3.264  0.2827 -0.3479 -0.0434
17623W        W31037   3.055   3.100  12.330 -0.0289 -0.1887  0.0712
17624W        W31038   8.169   0.017   3.243 -0.0588 -0.0025 -0.1295
17625W        W31039   0.953   3.652  16.318  0.1767 -0.1238  0.0184
17626W        W31040  13.633  16.807  13.259  0.0668  0.4693 -0.1219
17627W        W31041   9.701  17.078  14.752  0.1116  0.2617  0.1217
17628W        W31042   5.564  10.952   0.215 -0.1082 -0.1394  0.1869
17629W        W31043  17.575   2.874   3.678 -0.0530  0.1246  0.0458
17630W        W31044   2.357  10.464   6.152 -0.2314 -0.0110 -0.3430
17631W        W31045  11.667   7.007   5.619 -0.3240 -0.0937  0.0768
17632W        W31046   0.481  10.741  12.413 -0.2134  0.0840  0.2524
17633W        W31047   2.967   3.047   2.684 -0.0037 -0.1450 -0.1773
17634W        W31048  13.954   8.452   3.952 -0.0935 -0.0493 -0.1597
17635W        W31049  12.292  11.502  13.087  0.3839  0.0387  0.3039
17636W        W31050  12.922  13.382   5.151  0.3069  0.1695 -0.3846
17637W        W31051   4.466  15.881  13.721  0.1039  0.0318 -0.3214
17638W        W31052  12.999   7.633  15.844 -0.1526  0.0022  0.0963
17639W        W31053  11.275   9.353  12.915 -0.0723 -0.1784  0.0274
17640W        W31054  12.719   1.317   2.199  0.0924  0.1415  0.1410
17641W        W31055   1.899   5.951  15.125 -0.0903  0.0913 -0.0643
17642W        W31056   1.560  13.321   5.805 -0.1465  0.1373  0.0719
17643W        W31057  13.400  11.144   0.255  0.3531 -0.0855 -0.0886
17644W        W31058   3.688  16.325   4.872  0.0687  0.2324  0.0164
17645W        W31059   5.909  16.837  14.514  0.0556 -0.1287 -0.2442
17646W        W31060  10.540  11.251  16.703 -0.1609 -0.0206  0.0214
17647W        W31061   5.728   3.169  16.701 -0.3035 -0.0214 -0.1074
17648W        W31062  14.423   5.384   2.344  0.1039 -0.1326 -0.1066
17649W        W31063  14.284  17.258   4.379 -0.0843  0.1299  0.2314
17650W        W31064  16.165   3.187  12.683  0.1465 -0.0387 -0.5368
17651W        W31065  17.045   9.341   2.254  0.0419 -0.0088 -0.1336
17652W        W31066   1.374  15.597  13.560  0.0464  0.0384  0.2053
17653W        W31067   7.662   6.763  11.341  0.0438  0.0819  0.0420
17654W        W31068  17.071  12.695  14.325 -0.1467 -0.1021 -0.1607
17655W        W31069  16.229  11.705  14.120 -0.0425  0.0067  0.1677
17656W        W31070  11.378  13.615   5.591  0.0381 -0.5641  0.2432
17657W        W31071   5.817  12.270  16.366  0.0405 -0.3805 -0.2032
17658W        W31072   8.420   0.701   2.067 -0.2289  0.1046  0.0042
17659W        W31073  15.802   1.953   0.249 -0.0491  0.3228 -0.0724
17660W        W31074  14.354   3.166   3.972  0.0306 -0.0420 -0.3596
17661W        W31075  17.088  16.678  12.908  0.1183  0.1810  0.4999
17662W        W31076   7.964   2.617  12.941  0.1307  0.0337 -0.0119
17663W        W31077  10.738  13.689  15.041  0.0343  0.1207 -0.2017
17664W        W31078   7.095   8.951  11.001  0.0447 -0.3315  0.0100
17665W        W31079   7.009   4.991   4.407 -0.1623 -0.1541  0.1320
17666W        W31080   3.992  15.156  11.044 -0.2865  0.0716 -0.0485
17667W        W31081  17.365   8.585   1.057 -0.1029  0.1825  0.1703
17668W        W31082   9.857   0.737  15.815  0.0446 -0.0169 -0.0731
17669W        W31083   1.093   4.227  15.091 -0.1419  0.2137  0.0402
17670W        W31084   1.007   9.650  10.436  0.1668  0.0251  0.0569
17671W        W31085   3.396   1.899  13.606 -0.1437 -0.1672 -0.0043
17672W        W31086   3.144  17.738  12.706  0.0409 -0.0975  0.1607
17673W        W31087  14.024   9.288  12.157 -0.1541  0.0469 -0.0277
17674W        W31088  15.280  13.308  14.000 -0.0773  0.0615  0.1020
17675W        W31089   7.448  13.665  15.604  0.4037  0.0663 -0.3764
17676W        W31090   4.033   9.540  12.732 -0.1041 -0.0115  0.3570
17677W        W31091   4.617   2.404   1.632  0.1289 -0.0532  0.1077
17678W        W31092  11.030  14.239   2.946 -0.1637 -0.2359 -0.1556
17679W        W31093  13.406  11.736  15.618 -0.1649 -0.3632 -0.0584
17680W        W31094  10.097   2.355  14.313  0.2454  0.1867 -0.0288
17681W        W31095   4.936  10.028  12.264  0.0132  0.2051 -0.0906
17682W        W31096   8.732  12.427  14.287 -0.1944  0.1491  0.1246
17683W        W31097   3.484   8.422   2.131 -0.2187  0.0043  0.2935
17684W        W31098   8.775  15.431   1.908  0.3718 -0.1587  0.4048
17685W        W31099  14.436   0.024  16.489  0.0074  0.1181  0.1648
17686W        W31100   6.379  11.663  11.921  0.0757 -0.2877 -0.0560
17687W        W31101  10.996   8.440  11.002 -0.0477 -0.1824 -0.0804
17688W        W31102   8.212  10.180  14.932  0.0435  0.1334 -0.0123
17689W        W31103   6.660   5.703  15.736  0.1566 -0.0024 -0.0026
17690W        W31104   1.492   7.457   3.389  0.0559  0.1133 -0.0964
17691W        W31105  12.344   2.676   5.826 -0.1123 -0.0983  0.0024
17692W        W31106   9.752   2.818   3.444  0.0485 -0.0017 -0.0086
17693W        W31107   8.064   2.515  12.470 -0.0442 -0.0915 -0.2855
17694W        W31108   4.683   2.042   2.514 -0.0683 -0.0590  0.0958
17695W        W31109   0.863  17.631   0.988 -0.2583 -0.2221 -0.2465
17696W        W31110  16.679   0.192   0.997  0.2188  0.2360 -0.0119
17697W        W31111   4.687   6.233  11.646 -0.1483 -0.1325  0.2156
17698W        W31112   0.309  17.527  13.468  0.0682  0.2866 -0.0905
17699W        W31113   8.231   3.642  10.921  0.0790  0.0355  0.0409
17700W        W31114   9.473  16.297   6.386 -0.0758 -0.1150 -0.3628
17701W        W31115   0.448   7.597   2.401  0.0400 -0.3150 -0.0994
17702W        W31116  17.813   4.937  14.709 -0.2720 -0.0660  0.1931
17703W        W31117   7.730  14.844   1.078 -0.0315  0.0596 -0.0761
17704W        W31118   5.816   6.156   1.166 -0.1777  0.0184 -0.1806
17705W        W31119  16.116  12.546   5.439  0.2882  0.0456  0.0100
17706W        W31120  15.598   4.696  13.489 -0.0646 -0.0748  0.0841
17707W        W31121  12.706   9.952  11.970  0.0559  0.0078 -0.1644
17708W        W31122  16.405   3.503  11.505 -0.1377  0.2271  0.0869
17709W        W31123   5.074   9.466  14.578  0.1345 -0.0810  0.1919
17710W        W31124   4.550   6.484  12.148  0.1270 -0.0377  0.0528
17711W        W31125  17.245   5.218  13.319  0.0976 -0.1800  0.3574
17712W        W31126   9.346   3.202   0.900  0.0288  0.0267  0.1842
17713W        W31127   8.083  10.731   1.348 -0.0369  0.1024  0.3399
17714W        W31128   1.196   8.881   0.110 -0.0156  0.0876  0.1038
17715W        W31129   1.305   8.343  16.606 -0.1266  0.1823  0.0277
17716W        W31130  11.386  13.372  11.744  0.1419  0.1543  0.0741
17717W        W31131   0.785  16.429  10.835  0.1385 -0.0320 -0.4393
17718W        W31132  11.923   5.242   3.557  0.1701 -0.1681 -0.0418
17719W        W31133  17.612   4.969  14.239  0.0329 -0.0371 -0.0350
17720W        W31134  12.644  16.339  13.919 -0.0554  0.1141 -0.0889
17721W        W31135   4.305  15.744   5.469  0.1001 -0.1498  0.1583
17722W        W31136   5.238   8.128  12.880  0.1382  0.1410 -0.2237
17723W        W31137   1.229  17.180   1.834 -0.0304 -0.0604 -0.0261
17724W        W31138   2.369  16.530   3.626  0.0957  0.2555  0.3923
17725W        W31139  10.129  16.996   6.184 -0.0885 -0.1198 -0.2967
17726W        W31140  12.609   5.425  16.026 -0.0500  0.2559 -0.0208
17727W        W31141  17.022  17.796  12.215 -0.3130  0.1271  0.0300
17728W        W31142   9.065  12.427  13.129 -0.0845 -0.1357 -0.0125
17729W        W31143  13.069   5.512  16.281  0.1094  0.1612  0.2691
17730W        W31144   3.258  10.702   3.161 -0.2350  0.0392  0.4731
17731W        W31145  10.391   6.048  13.559 -0.0136 -0.1760  0.0858
17732W        W31146   9.138   0.203  14.316 -0.2547  0.0245  0.2329
17733W        W31147   7.724  11.595  10.914  0.2047  0.0403  0.1319
17734W        W31148  14.846  14.404   4.410  0.0868 -0.1611 -0.1472
17735W        W31149  13.021   3.128  15.306 -0.2308  0.0335  0.0075
17736W        W31150  13.345   2.302   1.599  0.0599 -0.1256  0.0143
17737W        W31151   8.878  16.220  15.945  0.0824 -0.2395 -0.0318
17738W        W31152  10.224  12.301   3.101  0.1715 -0.1237  0.1246
17739W        W31153   7.634  11.355  12.219 -0.0369 -0.0677  0.2303
17740W        W31154  13.849  16.036   4.192  0.1007 -0.1828  0.2486
17741W        W31155  13.156   4.922  14.301 -0.1532  0.3379  0.0606
17742W        W31156   1.273   3.289  14.394 -0.1752 -0.4057  0.0756
17743W        W31157  10.165  17.846  16.146 -0.2186 -0.2000  0.0759
17744W        W31158  12.113  11.815   0.955 -0.3166 -0.0871 -0.1216
17745W        W31159   3.602   1.722  15.764 -0.1961 -0.2278  0.1830
17746W        W31160  13.674  10.358  14.473  0.1662 -0.1130  0.0089
17747W        W31161   2.700  17.381  16.226  0.0212  0.2673 -0.0698
17748W        W31162   7.362  11.386   1.360 -0.1366  0.1077  0.0753
17749W        W31163   2.636   8.094   3.567 -0.1882 -0.0984 -0.0403
17750W        W31164  10.411   7.870   4.822 -0.3659 -0.2343  0.1123
17751W        W31165   2.282  10.293   4.725 -0.2004 -0.0573  0.0761
17752W        W31166  15.611  12.985   4.897  0.1316 -0.0530  0.3819
17753W        W31167   9.955  15.495   0.351 -0.1020  0.0742 -0.0535
17754W        W31168   5.044   0.930  16.372 -0.0832 -0.0476 -0.0315
17755W        W31169   2.746  15.061   0.202  0.0667 -0.0231 -0.2709
17756W        W31170   5.886   8.481   1.358  0.0637  0.2069 -0.2571
17757W        W31171   2.225  10.680  13.169 -0.1958  0.1956  0.1523
17758W        W31172   5.589   8.737   0.508 -0.0521  0.0449 -0.0718
17759W        W31173   2.455  17.208   1.089  0.4223  0.3342  0.3235
17760W        W31174  17.859   5.402  14.336  0.2237 -0.1724 -0.1674
17761W        W31175   0.730   4.138   1.811 -0.0313  0.2391  0.1444
17762W        W31176   3.236   1.386  14.614 -0.1225  0.1581 -0.1095
17763W        W31177   4.859   8.539  14.174  0.3247  0.1249  0.2130
17764W        W31178   1.845   8.459  11.912  0.1285 -0.0768 -0.3690
17765W        W31179   2.405   7.316   5.835  0.0437 -0.0194  0.0229
17766W        W31180   2.219  17.594   0.781 -0.0102 -0.0627  0.0472
17767W        W31181  16.569  14.559  12.143 -0.0089  0.3707  0.0248
17768W        W31182  17.132   3.651   4.518  0.4213 -0.2905  0.1885
17769W        W31183  15.021  13.886   3.054 -0.0216  0.0355 -0.1632
17770W        W31184  15.505  11.760   3.540  0.2170 -0.2862 -0.1558
17771W        W31185  13.413  14.688  15.254  0.1736  0.0216 -0.0327
17772W        W31186   0.963  10.678  13.956  0.0365 -0.0676  0.1809
17773W        W31187  11.000  17.569  15.694 -0.0511  0.2666 -0.1144
17774W        W31188   3.095   9.130  13.564  0.1331 -0.0841  0.1767
17775W        W31189  11.268   5.570   1.813  0.2618 -0.2139  0.0712
17776W        W31190   3.156  10.628   3.696 -0.2378 -0.3590 -0.0347
17777W        W31191  12.600  16.864  11.192  0.1174  0.0958  0.0279
17778W        W31192  14.430  13.777   0.399  0.0711  0.1188 -0.0748
17779W        W31193   4.209   0.379  16.032  0.0787  0.1596  0.1871
17780W        W31194  10.124   2.636  13.352 -0.0607 -0.0607 -0.2102
17781W        W31195   7.942   0.215  10.896  0.2766 -0.0239  0.1001
17782W        W31196   2.651  15.754  13.693  0.1606  0.2207  0.3617
17783W        W31197  16.712   8.597   1.788  0.2165  0.3777  0.2015
17784W        W31198  10.743  12.631   3.009 -0.1694  0.3665 -0.0896
17785W        W31199  11.713   9.065  15.015 -0.3078 -0.2894 -0.0103
17786W        W31200  16.646  10.289   0.689  0.1390  0.1769 -0.2138
17787W        W31201  10.484  17.138  14.368 -0.0864 -0.2110 -0.1387
17788W        W31202   4.436  17.964  13.320 -0.2315  0.3801 -0.1881
17789W        W31203   0.816   1.163   3.915  0.0041 -0.2694 -0.0041
17790W        W31204  13.859   0.063  15.386 -0.0246  0.1221  0.1192
17791W        W31205  11.501   4.466   4.578 -0.0696  0.1400 -0.0113
17792W        W31206   5.103   4.872  15.237 -0.0515 -0.3880 -0.1346
17793W        W31207   3.380  12.276   4.337 -0.2802 -0.0648 -0.4187
17794W        W31208   2.926   4.684   1.504 -0.0312  0.2943 -0.2130
17795W        W31209  16.470  12.738  13.209 -0.0934 -0.0536  0.1380
17796W        W31210  14.664   5.681  15.211 -0.1049  0.0855 -0.0997
17797W        W31211   7.619  14.558  15.626  0.1337 -0.1370  0.1254
17798W        W31212  12.956  11.543   5.368 -0.1075 -0.0526 -0.0194
17799W        W31213   2.107   6.438   0.732 -0.0578 -0.5056 -0.1633
17800W        W31214  13.936  14.623  16.644  0.0215 -0.0075  0.0695
17801W        W31215  10.046   3.288  14.689  0.0818 -0.0337  0.2425
17802W        W31216  17.600   9.924  13.399  0.1638  0.0897  0.0799
17803W        W31217   2.283   8.996  12.400 -0.1944  0.1132 -0.0385
17804W        W31218   0.798   2.284   0.413  0.2152 -0.1200 -0.0597
17805W        W31219   1.528   7.550  16.232  0.0704 -0.0956 -0.0669
17806W        W31220  15.791   4.138   4.285 -0.3320 -0.1031  0.0051
17807W        W31221   7.899   0.847  12.322 -0.1446  0.0328  0.1901
17808W        W31222  17.143   4.708   2.219  0.1594 -0.0283  0.2102
17809W        W31223  16.590   8.510   4.994 -0.2505  0.0239  0.2513
17810W        W31224   2.629  14.174   1.942 -0.0449  0.1580  0.3355
17811W        W31225  10.783   1.361  11.433  0.1704 -0.1128  0.1888
17812W        W31226   8.345   2.595  15.209  0.0563 -0.3700  0.0193
17813W        W31227  11.272  11.544  15.671 -0.0363 -0.3483  0.0661
17814W        W31228  14.165   2.957   3.173 -0.1249  0.0454 -0.2186
17815W        W31229  12.960  17.571   0.931  0.1084  0.0038 -0.1739
17816W        W31230   7.963   9.489  14.681 -0.1702  0.0097  0.2314
17817W        W31231  14.062  12.466  14.715 -0.1669  0.1982 -0.2023
17818W        W31232  17.084   2.218   2.665 -0.1719 -0.1094 -0.1035
17819W        W31233   8.920   7.595   5.347 -0.0211  0.3229 -0.0087
17820W        W31234   6.548   4.525   3.782 -0.0786  0.0722 -0.1077
17821W        W31235   3.759  11.885   4.503 -0.2001 -0.0313 -0.1492
17822W        W31236  15.614  17.147   0.923  0.2445 -0.1833 -0.1446
17823W        W31237  17.702   2.487  15.437  0.3180  0.1485  0.0488
17824W        W31238  17.948  10.353  15.657  0.1767  0.2557  0.0857
17825W        W31239   5.228  13.124   0.974  0.0804 -0.3426  0.1763
17826W        W31240   6.712  11.939   2.003  0.3910 -0.1212 -0.2284
17827W        W31241   8.084   9.535   4.352  0.0906 -0.0897 -0.2168
17828W        W31242   8.076  17.792   1.039 -0.2888 -0.1217  0.3056
17829W        W31243  11.008   6.911  15.361 -0.1422  0.2034  0.1495
17830W        W31244  15.271  16.019  16.323  0.0702 -0.0122  0.0041
17831W        W31245   0.262  11.185  10.418 -0.1840  0.1282  0.3795
17832W        W31246   7.034  14.150   3.391 -0.0479  0.2473  0.5574
17833W        W31247  10.049  16.385   1.970  0.0170 -0.1142 -0.4250
17834W        W31248   6.112  13.224  16.406 -0.1390  0.1211  0.2339
17835W        W31249   1.908   3.026   0.051  0.0277  0.1948  0.2436
17836W        W31250  10.132   0.234  11.495  0.0300 -0.0774  0.0631
17837W        W31251   8.713   0.810   5.401  0.0308  0.0361 -0.2687
17838W        W31252   2.969  17.792   3.028 -0.1847 -0.0396  0.0602
17839W        W31253  11.863   5.942   5.859 -0.2561  0.0462 -0.0373
17840W        W31254  17.799  17.007   1.302 -0.1306  0.0345 -0.0632
17841W        W31255   7.763   1.487   5.294  0.1283  0.3552 -0.3431
17842W        W31256  17.838   2.824   0.960  0.1555 -0.0195 -0.3007
17843W        W31257   8.183   7.653  16.525  0.1661 -0.2882 -0.0628
17844W        W31258  13.024  10.449  15.531  0.0043  0.1036  0.1596
17845W        W31259  12.060  15.311   5.042  0.1488 -0.0789  0.1587
17846W        W31260  12.600  11.573   2.844 -0.1498  0.2108  0.1803
17847W        W31261   1.929   0.301   2.241 -0.1509 -0.0966  0.2698
17848W        W31262  17.000   0.128   1.386  0.0571  0.0350 -0.3583
17849W        W31263  10.511  14.684   2.163  0.2442  0.1613  0.2507
17850W        W31264  13.915   5.301   6.638  0.1344 -0.1924  0.0458
17851W        W31265  14.454  10.168   1.157 -0.0374  0.2174 -0.1137
17852W        W31266  15.544  12.808   3.993 -0.0524  0.1232 -0.3611
17853W        W31267  12.198   8.321   4.282  0.1605 -0.0468  0.1317
17854W        W31268  12.040  10.010  14.589  0.1648 -0.0060  0.0748
17855W        W31269   6.747  13.051  16.434 -0.1582  0.1245  0.1403
17856W        W31270   2.858   6.232   3.036 -0.0269 -0.0705  0.0204
17857W        W31271   7.961  17.294  10.825 -0.0343 -0.2150  0.1049
17858W        W31272  15.828  14.131  13.898 -0.0854 -0.3369  0.3420
17859W        W31273   1.192   9.247   3.554 -0.0606  0.1876 -0.2937
17860W        W31274   1.328  12.759   2.483  0.1791 -0.0183 -0.4894
17861W        W31275  13.582   5.317   1.292 -0.1894  0.1696  0.1424
17862W        W31276   5.696  10.526  10.703 -0.3223 -0.3974 -0.0451
17863W        W31277  10.597   6.906   0.963  0.0840 -0.0286 -0.1287
17864W        W31278  16.371   4.232   6.434  0.3968 -0.0614 -0.3373
17865W        W31279   4.303  16.962   3.944 -0.0406 -0.0546 -0.2745
17866W        W31280  11.468  11.050  14.970  0.2292 -0.1425 -0.3406
17867W        W31281  16.871   8.562   1.225  0.0628  0.1492  0.4755
17868W        W31282   5.079  12.234  11.411  0.0617  0.1217 -0.0448
17869W        W31283  14.236   5.582  14.657 -0.2727  0.2282  0.1491
17870W        W31284   0.059   2.172  13.760 -0.0102  0.0156 -0.2375
17871W        W31285   0.714  16.920  14.166 -0.2472 -0.3306 -0.0724
17872W        W31286  17.669  16.708  15.177 -0.1320  0.1607 -0.0236
17873W        W31287  10.399   7.415   0.791 -0.0704  0.2043 -0.0703
17874W        W31288   4.525  15.147   4.222  0.0624 -0.3281 -0.2558
17875W        W31289  16.821  14.660   3.599  0.0626  0.0808  0.0391
17876W        W31290  14.758   2.728  12.454  0.0195  0.2320  0.0683
17877W        W31291  15.492  17.520   3.204  0.2739 -0.1140 -0.1378
17878W        W31292   8.539   3.460  11.996  0.1613 -0.0811  0.1456
17879W        W31293   8.092  11.231   1.272  0.0396 -0.1300 -0.1233
17880W        W31294  10.989   4.381  13.670  0.0129 -0.0493 -0.3416
17881W        W31295  10.299   8.261   5.438 -0.0680 -0.2818  0.0814
17882W        W31296  13.347  15.977   2.293 -0.0433  0.1288  0.2726
17883W        W31297  13.977   2.986   4.621 -0.1547 -0.2006  0.2037
17884W        W31298   3.447  14.225   5.161 -0.3299 -0.0783  0.1281
17885W        W31299   6.050   4.231  13.539 -0.4792  0.0582  0.1346
17886W        W31300   9.927  14.736  10.424 -0.2388  0.0311  0.1251
17887W        W31301   0.412  14.343  15.220  0.1154 -0.0193  0.2412
17888W        W31302   7.446   5.826  16.457  0.0400 -0.0316 -0.0326
17889W        W31303   7.349  17.107   2.581 -0.3242 -0.0308 -0.0427
17890W        W31304  11.934   3.403   0.625 -0.4335 -0.1102  0.2162
17891W        W31305  16.054  13.282   2.634 -0.2329 -0.2061  0.2239
17892W        W31306  17.663   2.560   1.403  0.0317  0.0824  0.0529
17893W        W31307  14.165  12.769  10.693 -0.1469  0.2416  0.0151
17894W        W31308   9.735  17.271  10.417 -0.3496  0.3201 -0.0041
17895W        W31309   4.483   3.742   0.851 -0.0001 -0.6622  0.1467
17896W        W31310   9.940  11.485   2.166 -0.0852  0.2310 -0.2485
17897W        W31311  14.700   2.104   4.757  0.1487 -0.1179  0.3141
17898W        W31312   8.052  11.955  12.431 -0.0058 -0.1869  0.0820
17899W        W31313   3.597  11.102  11.826 -0.1797  0.1974  0.0119
17900W        W31314  17.892  14.523  12.573 -0.0694  0.2298  0.2078
17901W        W31315  13.986   9.748   0.437 -0.1306  0.0673  0.4226
17902W        W31316   6.750  17.359  16.617  0.1921  0.0778  0.2005
17903W        W31317   5.121   1.907   2.438 -0.1401 -0.0861  0.1368
17904W        W31318   8.219  15.303   4.207  0.0764  0.0613  0.2086
17905W        W31319   3.718  13.546   3.740 -0.0302 -0.0235  0.1242
17906W        W31320   5.196  11.189   3.609  0.0671 -0.1108 -0.2202
17907W        W31321   6.052   3.840   2.062  0.1469  0.0162 -0.0068
17908W        W31322  10.229   8.478  14.648 -0.1281 -0.0674  0.1846
17909W        W31323  13.038   5.150  15.989  0.0895 -0.1227 -0.1015
17910W        W31324   4.461   3.504  14.546 -0.4097 -0.0082  0.0252
17911W        W31325  10.760  16.945  14.787  0.1488  0.1753 -0.0194
17912W        W31326   5.030   3.372  10.596  0.2131  0.2519 -0.0284
17913W        W31327   3.431  14.890  13.089 -0.1991  0.1466 -0.0287
17914W        W31328   6.542  14.273  11.566  0.0754 -0.3531  0.1858
17915W        W31329  17.934   0.941  11.403  0.0588 -0.0773 -0.2544
17916W        W31330  17.627   3.685  12.642 -0.0921  0.3547 -0.0433
17917W        W31331   9.700   0.448  11.089 -0.0896  0.1036 -0.1722
17918W        W31332  17.865  17.818   6.700 -0.0208 -0.1319 -0.0383
17919W        W31333   1.689  14.434  14.844 -0.2750  0.1005  0.0262
17920W        W31334  10.723   9.460  11.698 -0.3546 -0.1196 -0.0339
17921W        W31335  16.538   1.909   5.907 -0.1171  0.2169 -0.0617
17922W        W31336   1.605   1.400  13.717 -0.0979 -0.0862 -0.1472
17923W        W31337   6.094  11.903   2.850 -0.1381 -0.3682  0.2811
17924W        W31338   4.884  11.162   1.284 -0.0091  0.2953  0.0379
17925W        W31339   3.840  12.071  12.183 -0.0188  0.1686 -0.1482
17926W        W31340   5.589  14.210  10.695 -0.1049 -0.1257  0.0290
17927W        W31341   2.064   5.036   1.453 -0.0635 -0.0137  0.2032
17928W        W31342   7.344  11.600   0.371  0.0603 -0.2301 -0.1041
17929W        W31343   0.957   0.443   0.230  0.0801  0.0104  0.1399
17930W        W31344   4.717  15.817   4.399  0.0069 -0.1443  0.0802
17931W        W31345  10.272  10.548   2.703  0.1148 -0.2009 -0.0157
17932W        W31346  12.199   3.112   3.591  0.2241  0.0181  0.2781
17933W        W31347  10.893   6.005   5.870 -0.0006 -0.0803 -0.2276
17934W        W31348  16.904   1.795  13.791  0.0891  0.0593  0.0750
17935W        W31349   1.241  15.168   3.867  0.1427 -0.0793  0.0197
17936W        W31350  13.979  11.979   5.777 -0.1952 -0.0333  0.2314
17937W        W31351   7.973   0.317  13.887  0.2291 -0.1356 -0.2762
17938W        W31352   1.353   1.935  11.179 -0.0866 -0.0583 -0.1157
17939W        W31353   4.043  13.750   2.376  0.0215  0.3672 -0.1281
17940W        W31354   8.269  13.172   2.348  0.1885  0.2021  0.1882
17941W        W31355  12.940   8.935  11.883 -0.0334 -0.5132  0.0031
17942W        W31356   3.500   1.240  12.416 -0.1451 -0.0014  0.1816
17943W        W31357   8.644  13.976   5.620 -0.2321  0.0878  0.0516
17944W        W31358   9.715   6.126   0.250 -0.1923 -0.0147 -0.0158
17945W        W31359   6.388  12.915  16.059  0.0883  0.2315 -0.2616
17946W        W31360   3.174   7.791  11.437 -0.0480  0.1620 -0.0110
17947W        W31361  15.511   9.173  15.350 -0.0752 -0.4373 -0.1149
17948W        W31362   2.945  11.583   1.607 -0.0410  0.2180  0.0355
17949W        W31363   7.858  12.373  15.882  0.1384 -0.0968 -0.2537
17950W        W31364  16.015   9.018   0.779  0.1035 -0.5319 -0.0401
17951W        W31365   4.123  13.367   0.479 -0.0421  0.0159 -0.3161
17952W        W31366  13.229   1.394  13.045 -0.0634 -0.0946  0.1718
17953W        W31367  15.820  14.359   5.225 -0.1742 -0.1646  0.0121
17954W        W31368   2.437   2.667  14.249  0.3698 -0.1636  0.0070
17955W        W31369  16.250   2.192  14.792  0.1054 -0.1150 -0.0607
17956W        W31370   1.015  15.040  14.430  0.4254  0.1159 -0.1905
17957W        W31371   2.058  13.270  15.307 -0.3466 -0.1880 -0.0031
17958W        W31372   9.157   0.309   4.363  0.1630  0.0006 -0.1361
17959W        W31373   5.237   8.499   4.804  0.2497  0.0648  0.2006
17960W        W31374   4.379   7.004   4.400 -0.0737 -0.3777 -0.0776
17961W        W31375  14.778   5.099   2.943  0.0819 -0.1339 -0.0197
17962W        W31376  17.347   8.068   3.376 -0.1965  0.0889  0.3135
17963W        W31377  13.796   6.018   1.918 -0.1277  0.1138 -0.0479
17964W        W31378   8.323  11.013  16.532  0.1471 -0.0066 -0.1034
17965W        W31379  17.525   9.548   1.187  0.2231 -0.1301  0.2126
17966W        W31380  12.837   3.794  10.981 -0.0142  0.1252  0.1269
17967W        W31381   3.544  11.714   4.957  0.0167  0.0671 -0.1451
17968W        W31382  16.167   9.570   3.218  0.0473 -0.1374  0.1295
17969W        W31383   4.170   7.479   2.911  0.2104  0.0876  0.1369
17970W        W31384  10.365   5.360  14.261 -0.1302 -0.0617 -0.3009
17971W        W31385  16.002   4.245  14.246 -0.0905 -0.2021 -0.0644
17972W        W31386   4.112   9.532   4.204 -0.0245  0.1768 -0.1774
17973W        W31387   8.133  14.426   4.409  0.3496  0.0945  0.0685
17974W        W31388   9.545  13.178  13.725 -0.0818  0.1373 -0.4674
17975W        W31389  13.555   4.501  12.774  0.1053 -0.1030 -0.0549
17976W        W31390   0.940   6.649   5.776 -0.1489  0.3069  0.3039
17977W        W31391   0.566  13.888  12.868 -0.2330  0.1938 -0.1573
17978W        W31392  14.055   0.943  13.696 -0.0033  0.2711 -0.1476
17979W        W31393   0.655   7.562   1.016  0.4197 -0.1891 -0.1139
17980W        W31394   8.592   6.064  16.289  0.0568 -0.0351  0.0048
17981W        W31395  17.464  12.288   4.721  0.1157  0.2854  0.0455
17982W        W31396   9.995   9.248  11.185 -0.0359 -0.3420  0.2348
17983W        W31397   1.144   5.869   1.788 -0.3579 -0.1463  0.0723
17984W        W31398   5.066  12.240   0.280 -0.1184 -0.0175  0.2936
17985W        W31399   5.000   6.756   5.911  0.1637  0.2374 -0.0904
17986W        W31400  12.002   8.541  16.210 -0.0841  0.0425 -0.0741
17987W        W31401  10.136  11.308   5.010  0.1666 -0.0786  0.0148
17988W        W31402   4.251   3.375   2.430  0.2089 -0.1445 -0.0097
17989W        W31403   6.332  14.984  14.639 -0.0072  0.0037  0.0813
17990W        W31404  15.411   4.560  16.060  0.3788  0.0276  0.2571
17991W        W31405   2.525   2.868   5.262  0.1201 -0.1023 -0.0702
17992W        W31406   3.111   7.172  12.390  0.1184 -0.2326 -0.1554
17993W        W31407   6.542  16.887  13.387  0.1933 -0.0799  0.1348
17994W        W31408  13.540   6.714  12.536  0.1549  0.0718  0.1245
17995W        W31409  17.186  16.969  15.791  0.0330  0.3267  0.1262
17996W        W31410   2.520   4.647   4.576 -0.2872  0.2463  0.0886
17997W        W31411   5.597   1.634   2.420  0.0311 -0.1085  0.0279
17998W        W31412   8.759   6.064  11.748  0.2855 -0.1258 -0.0387
17999W        W31413  18.047   1.150  14.836 -0.1630 -0.0679  0.0172
18000W        W31414   0.095  17.753  13.024 -0.1856  0.0123  0.1240
18001W        W31415  15.614  11.051  15.689  0.0076  0.2721 -0.1973
18002W        W31416   2.108   0.153   3.200 -0.0559 -0.0700 -0.0559
18003W        W31417   4.814  15.180  12.782 -0.1106  0.1538  0.0114
18004W        W31418  10.088   8.505  11.795 -0.2490  0.1022  0.1597
18005W        W31419  15.095   5.415  15.785 -0.1333 -0.3126  0.1222
18006W        W31420   0.614  16.682  13.099 -0.0717 -0.1610 -0.1159
18007W        W31421   8.077   0.280  15.708  0.0035  0.0057  0.2699
18008W        W31422  10.788  10.778  12.193 -0.3420  0.1437 -0.1851
18009W        W31423  10.205   2.148   5.180 -0.1144 -0.1437  0.1816
18010W        W31424  14.764  16.542   0.288 -0.2077 -0.0157 -0.0573
18011W        W31425   5.240   6.039   6.424 -0.1127  0.3163 -0.2859
18012W        W31426  16.863  16.640   0.917  0.0573 -0.2251 -0.1846
18013W        W31427   4.477  15.474   3.241  0.0902  0.0103  0.1107
18014W        W31428   1.800  14.159   1.820  0.1643  0.0174  0.0993
18015W        W31429   4.714  16.564   0.389 -0.2393 -0.1755 -0.0049
18016W        W31430   5.725  14.085   4.563  0.3098  0.0998  0.1813
18017W        W31431  14.607  14.005  11.910  0.0674  0.2794  0.0266
18018W        W31432   6.681   1.665  14.539  0.1674 -0.1328 -0.1746
18019W        W31433   5.540   9.085   0.858  0.0414  0.2936  0.3516
18020W        W31434   0.083  14.250  11.306 -0.0001 -0.0100  0.0084
18021W        W31435  14.617   0.866   0.817  0.0593  0.1560 -0.1525
18022W        W31436   6.620  17.909  14.410  0.1346  0.0623  0.0936
18023W        W31437  11.617  13.595   9.912 -0.0858  0.1717 -0.0753
18024W        W31438   1.876   0.706  10.644  0.0874 -0.0340 -0.2444
18025W        W31439   4.563   7.080  10.016 -0.1074  0.0442 -0.1604
18026W        W31440  11.712   6.182  12.649 -0.2397 -0.3611 -0.1465
18027W        W31441   1.899  13.600  10.178 -0.0644  0.0366  0.0934
18028W        W31442   7.075  10.636  11.832  0.2476  0.0977  0.1741
18029W        W31443   7.448  16.499  14.904 -0.2836 -0.2658  0.3082
18030W        W31444  17.494   3.463   1.993  0.1018  0.0360  0.1206
18031W        W31445   3.504   9.550   2.192  0.0816 -0.1440  0.2712
18032W        W31446   6.886   2.635  14.107  0.0238 -0.1574  0.1802
18033W        W31447  10.210  12.624  11.024 -0.0083  0.0401  0.2462
18034W        W31448   7.774   4.253  10.834  0.0071 -0.1529  0.0445
18035W        W31449  11.313   3.138  15.850  0.0157 -0.2445 -0.2938
18036W        W31450   8.545   0.294   3.134  0.2129  0.5428  0.1063
18037W        W31451   4.259   7.589   1.719  0.2013 -0.0658  0.0876
18038W        W31452  11.269  16.898  10.226  0.1170 -0.0698  0.0285
18039W        W31453   1.350  14.729   3.558  0.0777  0.2533  0.0388
18040W        W31454   3.577   9.505   6.037  0.2811  0.1877 -0.2301
18041W        W31455   8.680   8.673  16.252  0.4662 -0.1185 -0.2244
18042W        W31456  11.317   1.205  10.641 -0.3441  0.0543  0.2628
18043W        W31457   2.677   8.578   6.168 -0.1265 -0.2029 -0.1223
18044W        W31458   8.244  16.480  11.403 -0.0772  0.0214  0.0524
18045W        W31459   4.811  14.942   4.564  0.0434  0.0435 -0.1571
18046W        W31460  15.287   1.934  16.204 -0.1254  0.0009  0.2058
18047W        W31461   4.637  14.623   4.253 -0.0950  0.1088 -0.1297
18048W        W31462   3.983   8.845  13.890 -0.4326 -0.2588  0.0547
18049W        W31463   8.869   6.494  12.134 -0.3116  0.1193 -0.0034
18050W        W31464  13.730   5.654   0.399  0.1514 -0.0424  0.1937
18051W        W31465   7.093  10.862   1.172 -0.0726  0.0950 -0.0069
18052W        W31466   8.122   5.595  11.151 -0.0152  0.3565 -0.1856
18053W        W31467   7.831  17.295   3.834  0.0176 -0.1679  0.1292
18054W        W31468   1.310  15.335  11.952 -0.1112 -0.0365  0.2147
18055W        W31469  14.547  17.148   3.132  0.1072 -0.1706 -0.0037
18056W        W31470  13.352  13.930   1.027  0.2741 -0.1038  0.1086
18057W        W31471   1.794  18.006   3.611 -0.0339 -0.0423  0.1421
18058W        W31472  14.044   3.422  12.391 -0.2382  0.0517  0.2517
18059W        W31473   0.437   1.017   4.863 -0.1026  0.1713 -0.1830
18060W        W31474  14.548   2.498  14.158 -0.0699 -0.0657  0.2528
18061W        W31475   3.239  12.060   3.306  0.0043 -0.0905 -0.0923
18062W        W31476   2.368   5.642  14.372  0.0908  0.1037  0.1979
18063W        W31477   3.764   0.904   2.756  0.1674 -0.0462  0.1724
18064W        W31478  16.268   7.186   1.932 -0.1197  0.0329  0.0435
18065W        W31479   6.939  17.654   1.777 -0.0465 -0.1866 -0.2138
18066W        W31480  10.479   8.816  10.458  0.2020 -0.1153 -0.2374
18067W        W31481  16.211  15.493  13.774 -0.0577 -0.0264 -0.2108
18068W        W31482   2.989   3.384   2.310 -0.0351  0.0785 -0.1106
18069W        W31483  14.804   6.857  11.810 -0.1179  0.4681  0.1586
18070W        W31484   8.790  14.959   2.707  0.1204 -0.1143 -0.2515
18071W        W31485   7.764   3.386   1.689  0.0924 -0.2857 -0.0275
18072W        W31486   4.718   4.584   5.684  0.0164 -0.3274 -0.1477
18073W        W31487  14.534  16.499   3.846 -0.1678  0.0057 -0.1402
18074W        W31488  13.431  10.281   1.052  0.1526  0.1366 -0.1797
18075W        W31489   2.273   9.321  12.981 -0.2435  0.1012 -0.0552
18076W        W31490   6.357  12.882  16.628  0.1313 -0.3465 -0.0025
18077W        W31491  16.795  16.368   2.073 -0.1758 -0.1790 -0.1351
18078W        W31492   6.991  14.105  11.346  0.2505 -0.2471 -0.3982
18079W        W31493  14.655  10.165  14.714 -0.2856 -0.0477  0.0370
18080W        W31494   4.617   4.523   4.368 -0.1608 -0.2519  0.2724
18081W        W31495  14.585   7.500  16.424  0.0371  0.1385 -0.0965
18082W        W31496  16.400  12.181  11.491 -0.0750 -0.1254 -0.0770
18083W        W31497  13.032   0.733  10.005  0.0442  0.2162  0.0031
18084W        W31498  17.616   5.176   2.938 -0.2017 -0.0261 -0.0184
18085W        W31499   4.254   1.222  15.237  0.1591  0.0473 -0.5038
18086W        W31500   7.885   4.182  15.108 -0.2034  0.0955  0.2328
18087W        W31501  11.380   4.434  16.110  0.1698  0.3517 -0.1009
18088W        W31502  14.543  10.562  12.802 -0.2984 -0.1275  0.0877
18089W        W31503  14.345   6.182  16.037 -0.0535  0.0922 -0.0384
18090W        W31504   1.071   0.787   2.438  0.1223  0.0047 -0.0389
18091W        W31505  11.207  15.718   3.238  0.0121  0.0729  0.1648
18092W        W31506   6.551   8.809  11.121  0.0561  0.0253 -0.0759
18093W        W31507  15.147   7.254  11.745 -0.2865  0.0828  0.1638
18094W        W31508  15.273  16.800  14.517  0.0710  0.1018 -0.0631
18095W        W31509   6.753   9.878  15.750 -0.0597  0.1073  0.0477
18096W        W31510  16.139   6.515  12.523  0.2281 -0.2616  0.2603
18097W        W31511   9.835  13.127   5.227  0.0819  0.0081  0.2594
18098W        W31512   7.076  10.622   2.058  0.1668 -0.0929 -0.0123
18099W        W31513  12.212   2.840   2.860 -0.2841 -0.1496  0.0009
18100W        W31514  11.797  15.379   1.508 -0.0434  0.4581  0.0728
18101W        W31515   1.205   5.874   4.735  0.1700  0.2647 -0.0264
18102W        W31516   5.138   2.957  13.766 -0.1049 -0.2351 -0.0148
18103W        W31517   5.750  13.864  15.211  0.1188 -0.0213  0.4429
18104W        W31518  13.427   5.545  15.393  0.0357  0.0087  0.2425
18105W        W31519  15.184  12.490   6.420 -0.0337  0.5777  0.1467
18106W        W31520  17.483   4.703  12.662  0.1789  0.0828  0.0233
18107W        W31521  10.265  17.069   4.931 -0.1840  0.2035 -0.0839
18108W        W31522   3.549   8.029   0.221  0.0572  0.2234 -0.0856
18109W        W31523  17.347   5.649  12.512 -0.2813 -0.2687  0.0827
18110W        W31524  12.539   6.478   3.119 -0.1050  0.1128  0.0535
18111W        W31525   4.114   4.488   2.370  0.0051  0.1022  0.0926
18112W        W31526  10.726  12.677  14.575  0.2928  0.2479  0.2178
18113W        W31527  14.804  10.563  10.331  0.0709 -0.1502 -0.1089
18114W        W31528  12.446   5.078   4.326  0.0532 -0.1524  0.0636
18115W        W31529   3.966  15.960   2.053 -0.0316  0.4250  0.0427
18116W        W31530   0.695  13.448   2.542  0.0431  0.0556 -0.3369
18117W        W31531   1.526   0.909   1.514 -0.1242 -0.4567  0.2194
18118W        W31532  11.186   0.880  16.314  0.1034 -0.2389 -0.2486
18119W        W31533  10.137   6.178   2.832  0.2749 -0.1237  0.3281
18120W        W31534  12.811  11.346  11.650 -0.0248  0.0915 -0.1010
18121W        W31535   3.500   8.214  12.727 -0.1520 -0.3819  0.1810
18122W        W31536   4.218  12.284   5.168  0.0443  0.0856  0.1220
18123W        W31537  17.931   3.581  14.886 -0.0819 -0.2392  0.2111
18124W        W31538   6.066   8.241  14.488  0.0893 -0.2463  0.0134
18125W        W31539   4.922   3.776   6.042  0.0679  0.1229  0.2763
18126W        W31540  17.948   1.114  16.155 -0.0200  0.1680 -0.1865
18127W        W31541   7.285   8.547  13.425 -0.1973 -0.0397  0.3854
18128W        W31542   9.702  10.052   2.161 -0.0185 -0.2020  0.0927
18129W        W31543   8.587   4.696   2.257 -0.6383  0.5011 -0.3254
18130W        W31544   0.737   0.947   1.724  0.0679  0.1072 -0.1947
18131W        W31545   5.418   2.566  13.893  0.1472 -0.0879  0.0642
18132W        W31546   3.017  15.218  14.835  0.0125 -0.2184  0.3261
18133W        W31547  15.278  18.037  14.140  0.3325 -0.1541  0.0958
18134W        W31548   8.374  10.561  12.660 -0.1938 -0.0966  0.0095
18135W        W31549   4.998   8.551  14.671  0.1090  0.2545 -0.1415
18136W        W31550   6.253  12.163   1.955  0.2015  0.0614 -0.3737
18137W        W31551  17.554   8.571  12.123  0.0606  0.2195  0.0520
18138W        W31552  13.770  17.273  14.242  0.0400  0.2313 -0.2110
18139W        W31553   2.442  12.438   3.098 -0.1518 -0.3797 -0.0349
18140W        W31554   7.935   2.872  13.989  0.3821  0.2067 -0.1683
18141W        W31555  11.873   4.377  14.015  0.0677  0.0120 -0.0431
18142W        W31556   9.246  10.334  11.305  0.2315  0.2123  0.0768
18143W        W31557  11.128  12.776   2.220  0.3602  0.0398  0.1626
18144W        W31558   9.757   5.660  15.595  0.0639 -0.1780 -0.1136
18145W        W31559  16.493   9.324  15.085 -0.1628  0.0189  0.0638
18146W        W31560   8.889   8.762  11.402  0.1607  0.1762 -0.1492
18147W        W31561  13.939   9.698   2.381 -0.0594  0.1614  0.0828
18148W        W31562  17.015   9.008  11.771 -0.0052  0.1170  0.0031
18149W        W31563   9.872  15.769   4.713 -0.0459 -0.1231  0.0030
18150W        W31564   3.691  11.361   2.816  0.1962  0.0449  0.0123
18151W        W31565   2.080   6.783  16.633 -0.3516 -0.1232  0.0700
18152W        W31566   8.835   9.551  11.674 -0.0286 -0.0259 -0.6078
18153W        W31567  14.965  14.070   5.216 -0.1303 -0.1028 -0.1256
18154W        W31568   8.234   9.386  15.511  0.0467 -0.2256  0.0814
18155W        W31569   2.721   3.640   4.063  0.0471 -0.1519  0.1479
18156W        W31570   0.806   8.724  10.640 -0.0016 -0.1534  0.4082
18157W        W31571  13.369   8.619  12.858 -0.1256  0.1043 -0.0940
18158W        W31572   9.593   2.957   1.713  0.0690  0.0319  0.1652
18159W        W31573   9.904  18.014  14.634 -0.0415 -0.0842  0.4565
18160W        W31574   2.565   5.989  11.395  0.0231 -0.0288  0.0267
18161W        W31575  16.280  15.261  13.316  0.1192 -0.2060  0.1968
18162W        W31576   6.160  15.138   4.967  0.0466  0.1650 -0.0288
18163W        W31577  11.867   3.420   2.159 -0.2237  0.2694 -0.1498
18164W        W31578   8.987  14.214   5.833  0.0346 -0.1910  0.0024
18165W        W31579  10.138   0.231  13.167  0.1871 -0.2664  0.1456
18166W        W31580  16.272   3.718  12.388  0.0162 -0.3812  0.1898
18167W        W31581  16.278  17.364   1.090 -0.0662  0.0873 -0.0712
18168W        W31582   2.868   9.016   0.256  0.0650  0.0924  0.0337
18169W        W31583  12.514   0.349   1.293 -0.0620 -0.4560 -0.0160
18170W        W31584   1.468  10.952  14.074 -0.0253  0.1602  0.0345
18171W        W31585  17.169   1.612   1.205  0.0368 -0.1331  0.0844
18172W        W31586   1.650   6.373   5.315 -0.0019 -0.2498 -0.0254
18173W        W31587  15.291   8.495   4.085 -0.0016  0.2298 -0.2989
18174W        W31588  11.865  16.480   5.288  0.1255  0.0312  0.0977
18175W        W31589  14.761   1.805  14.555 -0.1543  0.5184 -0.0443
18176W        W31590  13.797  13.450  13.850  0.0717 -0.1788 -0.0666
18177W        W31591   3.534   7.569  11.098 -0.0654 -0.3720 -0.1463
18178W        W31592   9.695   5.712   5.697 -0.1320  0.0103 -0.3117
18179W        W31593   5.168   0.674  12.375 -0.0143 -0.0641 -0.3756
18180W        W31594   2.408   6.706   5.234 -0.0031  0.1156  0.0403
18181W        W31595   4.876  13.959  10.898  0.0926  0.2129 -0.1150
18182W        W31596  10.940  15.211   0.330  0.1479 -0.2010  0.0967
18183W        W31597   7.091   8.181  16.454  0.2208 -0.0776  0.1311
18184W        W31598   0.255  14.735   1.718 -0.0321  0.4233 -0.0279
18185W        W31599   0.403   8.242   2.051  0.1614  0.2383 -0.0194
18186W        W31600  11.356  15.163   6.553 -0.1464 -0.1431  0.1711
18187W        W31601   0.600  17.706  16.402  0.2026  0.0697  0.1419
18188W        W31602  16.951   9.945  12.959 -0.1580 -0.1191  0.2321
18189W        W31603   8.558   5.577  11.398  0.1059  0.0189  0.0888
18190W        W31604  14.933   7.745   5.306  0.0493  0.2287 -0.0191
18191W        W31605  15.903  17.758   3.974 -0.3089 -0.1833 -0.1115
18192W        W31606   7.556  13.816  11.251 -0.4312 -0.1537 -0.1078
18193W        W31607  15.379  12.313   4.067  0.2794 -0.2766  0.0784
18194W        W31608   4.332   1.383  11.185  0.1757  0.0480  0.2677
18195W        W31609  10.638   2.212  15.072 -0.2442  0.3468  0.2054
18196W        W31610  17.041   6.355   3.166 -0.0917  0.1645 -0.1517
18197W        W31611   3.314  17.820  14.767 -0.1886 -0.0321  0.1020
18198W        W31612  14.647  11.380  15.882  0.0552 -0.1323 -0.2522
18199W        W31613  12.035  17.887  13.713 -0.1665  0.1175 -0.1788
18200W        W31614  12.058   8.487  10.900 -0.0010  0.0096 -0.1557
18201W        W31615  11.412   8.171   2.175 -0.1343  0.1047  0.1371
18202W        W31616  15.472   6.182   4.015  0.0878 -0.0814  0.2925
18203W        W31617  11.203  17.528  13.259  0.3758 -0.2786 -0.0417
18204W        W31618   8.614  14.342   1.108  0.1423  0.1474 -0.1710
18205W        W31619   4.602   6.452   2.389 -0.1384  0.0249 -0.0517
18206W        W31620   8.788   7.013  14.334 -0.0060 -0.2478  0.3169
18207W        W31621   2.363  10.063   0.844  0.2267  0.2049  0.4500
18208W        W31622   1.389   8.771  13.676 -0.1348  0.2345  0.0932
18209W        W31623   4.653  16.570   4.034  0.1883  0.1991  0.1270
18210W        W31624   5.920   5.313  10.885 -0.0661 -0.2535  0.4466
18211W        W31625  11.324  10.176  14.045 -0.1712  0.1564 -0.2336
18212W        W31626   8.877  13.118   1.312 -0.2763  0.3804  0.0401
18213W        W31627  16.305   3.895   1.754 -0.0608 -0.2259  0.2271
18214W        W31628   0.004   5.723  14.729  0.0068  0.0215  0.2129
18215W        W31629   7.324   3.004  10.793 -0.1195 -0.0573  0.1648
18216W        W31630  17.985  14.568   4.833 -0.0924  0.0390  0.0858
18217W        W31631   9.423   9.098   1.760  0.3713  0.0169  0.0749
18218W        W31632   4.670  12.841  13.145  0.0152 -0.2784  0.3416
18219W        W31633   8.568  14.775  15.397 -0.1471  0.5314 -0.1092
18220W        W31634   6.221  12.938  13.674 -0.2160 -0.1574  0.0927
18221W        W31635  11.621  10.655   1.484  0.3174 -0.2102 -0.1239
18222W        W31636  12.982  11.071  10.691 -0.0690  0.0333 -0.0077
18223W        W31637   9.473  15.535   4.836  0.0169  0.1198  0.4505
18224W        W31638   4.532   8.336   4.846 -0.2830 -0.0793 -0.0444
18225W        W31639   3.530  15.808   4.838  0.2614 -0.1687  0.1682
18226W        W31640   4.360   3.671   4.787  0.0020 -0.0518  0.1385
18227W        W31641  12.520   5.447  12.118 -0.0802 -0.0435 -0.0877
18228W        W31642   5.435   3.673  10.766 -0.2851  0.0034  0.0049
18229W        W31643   1.959  12.905  15.680 -0.1947  0.0512 -0.1045
18230W        W31644   8.492  16.873   9.973 -0.1095 -0.1678  0.0828
18231W        W31645  11.601   3.852   0.569  0.0741  0.2775 -0.0341
18232W        W31646   0.594   9.951   4.171  0.1243 -0.1914  0.0115
18233W        W31647  14.346  12.932  15.035  0.0014 -0.2983 -0.3753
18234W        W31648  12.011  12.355   0.531  0.3259 -0.0083  0.1369
18235W        W31649   3.609   9.993  16.091 -0.0205  0.0261  0.1989
18236W        W31650  16.257   0.688  11.795  0.3548  0.0230  0.0497
18237W        W31651   9.250   8.436   2.631 -0.0181  0.0745  0.3367
18238W        W31652   6.405  11.308   3.586 -0.1460  0.1336  0.0402
18239W        W31653  12.721  12.145   3.596  0.2761 -0.1417  0.0045
18240W        W31654   5.556   1.506  16.096 -0.0058  0.0350 -0.0628
18241W        W31655   2.231  10.117   1.510 -0.1242 -0.0285  0.0478
18242W        W31656  15.288   1.341   4.363 -0.0150 -0.1820  0.1342
18243W        W31657  10.983  10.502  14.300 -0.0944 -0.0923 -0.1469
18244W        W31658  17.898   7.926  14.788  0.0736  0.0671  0.1464
18245W        W31659  12.727  11.058   2.771  0.1604  0.0564 -0.0913
18246W        W31660   6.448   8.965   2.003  0.0804 -0.1894 -0.0249
18247W        W31661   8.896  16.922   4.626 -0.1087  0.3691 -0.0046
18248W        W31662   9.157   1.837   0.904  0.0165 -0.3698  0.1469
18249W        W31663  15.379  18.018   1.113  0.1808 -0.2262  0.1220
18250W        W31664   3.657   2.298  14.866 -0.0622 -0.3216  0.0357
18251W        W31665   2.251   0.026  12.690  0.0718 -0.0758  0.1978
18252W        W31666  11.352   2.804  16.680 -0.2480 -0.1223 -0.3081
18253W        W31667  15.969  11.197   4.244  0.0624  0.1134 -0.0112
18254W        W31668  17.340  16.860  11.901  0.3082 -0.1097  0.3162
18255W        W31669  14.462   1.147   2.723  0.1995  0.1236  0.3085
18256W        W31670   1.585   6.464   3.197 -0.3141 -0.1625 -0.0181
18257W        W31671   4.060   9.625  10.736  0.1779 -0.0372  0.3033
18258W        W31672   4.456  11.890  13.333  0.0055  0.3893 -0.2024
18259W        W31673  14.337   9.108  10.933  0.1898 -0.1217  0.0684
18260W        W31674   7.104   1.747  10.870 -0.1750  0.1063 -0.1305
18261W        W31675   2.951   3.866   6.451  0.0661 -0.0019  0.0471
18262W        W31676   3.204   0.208   3.162 -0.0677  0.2241 -0.0207
18263W        W31677   8.594  17.483  13.886  0.1684  0.2360  0.2949
18264W        W31678  16.000   8.347   2.630  0.1358 -0.1094  0.3704
18265W        W31679   4.499   8.646  12.713 -0.2155 -0.0979 -0.0404
18266W        W31680  11.984   6.874   1.016  0.1041 -0.1505  0.2976
18267W        W31681  17.789  13.086   1.101  0.0264 -0.1591 -0.0544
18268W        W31682   6.907   3.880   0.940  0.1896 -0.0341 -0.0713
18269W        W31683  17.082  10.164   5.353  0.0602 -0.1991 -0.0307
18270W        W31684   9.347   8.750   5.850  0.3577 -0.0423 -0.2041
18271W        W31685  16.535   2.389   1.844 -0.0184  0.1800  0.1492
18272W        W31686  13.413   5.671   2.097  0.1458  0.2545  0.1160
18273W        W31687   7.533   5.364   3.747 -0.0356 -0.0103  0.1011
18274W        W31688   7.685  14.622  10.739 -0.0477  0.0727  0.0199
18275W        W31689   6.645  17.103   2.124  0.0026  0.0153  0.0123
18276W        W31690   4.323  10.125   6.107  0.4038  0.1859  0.2577
18277W        W31691  17.495   6.722  11.494 -0.0238  0.1371 -0.0228
18278W        W31692  10.024  13.763   5.453  0.0207  0.0007 -0.0120
18279W        W31693  15.526  16.966  14.105 -0.0018 -0.0148 -0.1737
18280W        W31694  10.906   6.549   3.728 -0.2526 -0.0273  0.3349
18281W        W31695   3.474   3.846  13.323 -0.0462  0.0253 -0.0333
18282W        W31696   2.217   5.808   5.642  0.3122 -0.0339  0.0718
18283W        W31697  12.823   9.483   4.827  0.0753 -0.1195 -0.2422
18284W        W31698   7.567  11.102  15.205 -0.0282  0.0053 -0.0321
18285W        W31699   3.960   0.852   4.772 -0.1089  0.1883  0.0757
18286W        W31700  17.198   9.957   1.157  0.0307 -0.0939  0.0490
18287W        W31701  10.543   4.668  16.304 -0.0445 -0.1100 -0.0050
18288W        W31702   7.337  15.221   1.111  0.1619  0.1936  0.0849
18289W        W31703  11.587  16.163  12.869 -0.1249 -0.2017 -0.0529
18290W        W31704   2.296   7.696   1.895  0.0317  0.2106  0.0262
18291W        W31705   8.488  14.849  14.071 -0.1804  0.2343 -0.1511
18292W        W31706   0.756   5.500   0.099 -0.3123  0.0016  0.2256
18293W        W31707   1.690   5.755   0.881 -0.0132 -0.0776 -0.0640
18294W        W31708   3.793  15.338  15.445  0.0990  0.2114  0.1124
18295W        W31709   8.117   1.078   2.303  0.1051  0.0613 -0.2406
18296W        W31710   2.199   1.650   3.477  0.2098  0.3345  0.0642
18297W        W31711   8.634  12.153  13.315 -0.1124 -0.0524  0.1214
18298W        W31712  17.516   7.644   1.249  0.0978 -0.3241  0.0546
18299W        W31713   4.661  10.062  12.793  0.0219  0.1725  0.1572
18300W        W31714  12.667  17.717  12.848  0.1063 -0.0833 -0.0252
18301W        W31715  16.422  16.872  14.872 -0.3759 -0.1739  0.1851
18302W        W31716  11.412  13.423   3.681  0.1631 -0.2303 -0.0530
18303W        W31717   1.629   6.601   4.567 -0.1924 -0.1344  0.0535
18304W        W31718  13.068   6.135  12.151  0.2174 -0.3253 -0.0730
18305W        W31719   5.015  16.214   4.287 -0.0922  0.0272 -0.1364
18306W        W31720   2.155   6.749   1.179  0.1081  0.2930 -0.1868
18307W        W31721  13.219   1.896  10.824 -0.3299 -0.2690 -0.1000
18308W        W31722  16.088  15.778   0.591 -0.1098 -0.0178  0.1446
18309W        W31723  15.446  12.847  13.743  0.0314  0.0817  0.0069
18310W        W31724   5.738   7.629  10.002 -0.1349  0.1182  0.1882
18311W        W31725  15.055  16.219   2.731 -0.4548 -0.1362  0.1008
18312W        W31726  12.130  10.506   0.862  0.0863  0.1239 -0.1229
18313W        W31727   7.634  13.240  11.116  0.1598  0.1531 -0.2367
18314W        W31728  16.555   0.709   5.355  0.1862 -0.2483 -0.1625
18315W        W31729  14.647   5.826  11.335 -0.3715  0.3792  0.2300
18316W        W31730   1.437   4.596  15.293  0.0894  0.2022  0.0370
18317W        W31731   4.127   1.608  16.684  0.1433  0.0789 -0.0199
18318W        W31732   5.369   5.079  15.734 -0.0504 -0.0576 -0.1035
18319W        W31733  17.073  15.593  12.850 -0.4317 -0.4902 -0.0061
18320W        W31734   4.340   2.701   4.711  0.2116  0.4526 -0.3009
18321W        W31735  14.883  11.617   5.887  0.0013 -0.3033 -0.1257
18322W        W31736   1.906  17.758   3.169 -0.1935  0.4341  0.0060
18323W        W31737   6.398  16.638   3.371 -0.2928  0.1564  0.1198
18324W        W31738  15.538  14.830  15.834 -0.1775  0.0504  0.0046
18325W        W31739   4.143   5.137  15.416 -0.1812 -0.2146 -0.0686
18326W        W31740  11.038   0.226   5.908  0.0163 -0.0468 -0.1523
18327W        W31741  13.957   0.870  12.823 -0.1200 -0.1003 -0.2371
18328W        W31742   6.991   1.016  11.221  0.1896  0.0299 -0.0023
18329W        W31743  17.830   9.619  11.824 -0.2997  0.1840 -0.0248
18330W        W31744   5.859   3.711   0.031 -0.0839  0.2614  0.0534
18331W        W31745  16.189  14.258  12.101  0.2346  0.3587  0.0456
18332W        W31746   9.124  16.340  14.844 -0.0777  0.2365 -0.0310
18333W        W31747   5.622  16.288   1.280  0.0289  0.2239 -0.0728
18334W        W31748   7.623  11.650   1.934  0.0392 -0.0617  0.0802
18335W        W31749   4.118   7.010   5.917 -0.0889 -0.1807 -0.0650
18336W        W31750   2.064  12.750   3.068 -0.1336  0.1380  0.0328
18337W        W31751   8.828  17.147   5.372 -0.0153  0.1606 -0.0018
18338W        W31752   0.016   3.692  11.095 -0.0624  0.1495  0.0938
18339W        W31753   4.093   3.003  12.369 -0.1029 -0.3722  0.4695
18340W        W31754  10.200  16.907  14.699 -0.0282 -0.1491  0.0962
18341W        W31755  11.436   0.442  13.201 -0.0536 -0.2032 -0.0599
18342W        W31756  15.758  12.244   5.163  0.4025 -0.0997  0.1639
18343W        W31757   9.531   3.560  15.629 -0.2214  0.0101  0.0443
18344W        W31758   6.148  10.716  12.122  0.1089  0.0354  0.0825
18345W        W31759   2.793  11.290   3.642  0.1138 -0.3448 -0.1014
18346W        W31760   4.475  13.043   1.782  0.1060 -0.1706  0.1616
18347W        W31761  13.270  14.210  15.334  0.0492 -0.0312 -0.0366
18348W        W31762  11.975  12.968  13.235 -0.1735 -0.1213 -0.0518
18349W        W31763   2.419  10.719   5.118 -0.3426  0.3526 -0.3324
18350W        W31764   8.627   8.035   4.587 -0.0203  0.0337  0.1935
18351W        W31765   6.193  13.761   1.139 -0.1743  0.0858  0.0468
18352W        W31766   9.082   4.241   2.563 -0.1130 -0.1061  0.0656
18353W        W31767  11.466  16.318   0.846 -0.0150 -0.2194 -0.1861
18354W        W31768   6.699   1.533  16.127 -0.0086  0.0837  0.2685
18355W        W31769   7.232  18.017   6.128 -0.0368 -0.2697 -0.0366
18356W        W31770   9.340   7.443   0.964  0.1392  0.1067  0.0657
18357W        W31771  13.296   2.103  14.204  0.1627  0.0083 -0.0143
18358W        W31772  12.781   9.060   5.261 -0.1865  0.2555 -0.1277
18359W        W31773   2.395  15.656  15.538  0.0137  0.2105  0.5171
18360W        W31774   5.546   5.645  10.826  0.2517  0.1777  0.1333
18361W        W31775   4.745   0.036  12.889 -0.2301  0.1110 -0.1187
18362W        W31776  15.291   5.712   4.579 -0.1222 -0.0926  0.0063
18363W        W31777   3.487   2.297   5.735  0.0961  0.2344  0.2397
18364W        W31778  13.381  14.198   3.261  0.0055  0.1461 -0.2062
18365W        W31779  10.157  13.885  12.800  0.0127  0.0300  0.3618
18366W        W31780   3.079  17.567   1.169  0.4158  0.0474  0.2200
18367W        W31781   0.410   5.444  15.337  0.1003 -0.0993  0.2665
18368W        W31782   3.388   4.612  13.982  0.1475 -0.1054 -0.0212
18369W        W31783  16.259   6.543   4.019 -0.1661 -0.1390 -0.0389
18370W        W31784  17.112  13.920  13.667 -0.0490  0.0203 -0.1350
18371W        W31785   8.108   5.116   1.545 -0.3220  0.2121 -0.1072
18372W        W31786  13.213   4.202   0.637  0.0556 -0.0287  0.5053
18373W        W31787   7.874  15.031  15.670 -0.0684 -0.2537 -0.3939
18374W        W31788   3.745  14.211  12.773 -0.0420  0.1766 -0.0089
18375W        W31789  18.036  17.532   0.412 -0.0335  0.1805  0.0711
18376W        W31790   1.773   3.822  14.163 -0.1222 -0.0078  0.0301
18377W        W31791   7.339   9.228   2.087 -0.2730 -0.1955 -0.1960
18378W        W31792   8.390  14.679  10.839  0.1010  0.1259 -0.0935
18379W        W31793   7.926   5.544   2.679 -0.0920 -0.0441  0.1539
18380W        W31794   1.823  15.672   1.238 -0.1341 -0.0600  0.0351
18381W        W31795   7.350   9.131  12.337  0.3325 -0.2086 -0.0500
18382W        W31796  14.188   8.007   4.152 -0.2547 -0.0461  0.1337
18383W        W31797   7.294   2.833  14.822 -0.3374 -0.2244  0.1461
18384W        W31798  16.271   0.602   4.413  0.0767 -0.2507 -0.1092
18385W        W31799   1.685   6.622  15.250  0.0240 -0.1101  0.5133
18386W        W31800   0.104  17.812   1.637  0.1527  0.1998  0.0911
18387W        W31801   6.984   8.204   3.510  0.0356 -0.1114 -0.1809
18388W        W31802   0.427  15.645   1.383  0.0795  0.0267 -0.1491
18389W        W31803  15.438   7.429  14.251 -0.1128  0.4457  0.1291
18390W        W31804  12.262  15.172  15.114 -0.2187  0.0883 -0.0506
18391W        W31805  15.595  12.029  11.101  0.2346  0.2232 -0.0990
18392W        W31806   1.135   6.552   3.466  0.1264  0.0016  0.3456
18393W        W31807   2.680  17.476  13.594 -0.0969 -0.0177 -0.0422
18394W        W31808   2.442   7.327   3.087  0.4338  0.0193 -0.0219
18395W        W31809   9.435   2.178  13.159 -0.1799 -0.0443  0.0507
18396W        W31810   4.181  11.063  14.346  0.1562 -0.0649 -0.3778
18397W        W31811   5.280   1.116  12.639  0.1652  0.1236 -0.1129
18398W        W31812   0.497  12.881   3.326  0.1061 -0.2359  0.0523
18399W        W31813   5.689   7.383   1.942  0.0469  0.2114  0.1767
18400W        W31814   0.404   4.382  14.315  0.1420 -0.0382  0.0425
18401W        W31815   1.684   3.120  11.751 -0.1475  0.1870 -0.1608
18402W        W31816  17.319  16.886  11.362 -0.0737 -0.0651 -0.0453
18403W        W31817  13.052  12.387   4.855 -0.0365  0.0753 -0.1289
18404W        W31818  14.246   4.959   4.385  0.2580 -0.1730  0.3916
18405W        W31819   6.451  13.905  13.045 -0.3821 -0.0874 -0.0988
18406W        W31820  11.222   8.637  12.206  0.0590  0.1335 -0.0995
18407W        W31821  15.876  11.392   4.909 -0.3445  0.0550  0.2664
18408W        W31822   5.591  10.602   1.769 -0.2236  0.0648 -0.1321
18409W        W31823  13.397  16.320   0.279 -0.1708 -0.0860  0.2754
18410W        W31824   3.739  10.275  11.767  0.1662 -0.0032  0.0404
18411W        W31825   4.405   0.874   3.251 -0.0601  0.0877  0.2511
18412W        W31826   0.164  14.166   1.712  0.0328  0.1698  0.2623
18413W        W31827  12.402  16.040  11.223 -0.3940 -0.2960  0.0846
18414W        W31828  14.089   5.184  11.546 -0.0378  0.0541  0.1551
18415W        W31829  14.205   7.119  15.255  0.2248 -0.1101  0.0373
18416W        W31830   2.121   8.309  15.954 -0.1497 -0.3766  0.2626
18417W        W31831  14.199  12.968  11.185  0.2240 -0.2178 -0.0048
18418W        W31832  15.758  16.539  11.390  0.4480  0.0068 -0.1973
18419W        W31833   3.348   7.896   2.758 -0.2112 -0.0815 -0.0517
18420W        W31834  10.676   1.787  11.646 -0.0373  0.0435 -0.3292
18421W        W31835   0.269   6.987  15.047 -0.0486 -0.0060 -0.0643
18422W        W31836   0.800  10.528   5.917  0.0953 -0.2770  0.0008
18423W        W31837  16.245   4.607   0.730  0.0880  0.2746  0.0518
18424W        W31838   7.735  10.676   0.346 -0.1108 -0.0408 -0.0179
18425W        W31839   3.253  10.369   4.724 -0.0295 -0.0173  0.3615
18426W        W31840   8.633  17.128  15.949 -0.2832  0.4890 -0.1302
18427W        W31841   4.395  17.420  14.819  0.0932  0.2904 -0.0627
18428W        W31842  12.177  14.277  12.843  0.0211 -0.0000  0.0896
18429W        W31843  15.907   5.721  15.945 -0.0261 -0.2369  0.1171
18430W        W31844   9.385   9.290   5.116 -0.1520  0.0956 -0.0826
18431W        W31845  15.793   1.211   4.157  0.1209 -0.2372  0.0401
18432W        W31846   5.513  10.740   4.452  0.1990 -0.3123 -0.2691
18433W        W31847   1.373   6.352   5.786  0.0018 -0.1017 -0.0602
18434W        W31848   7.429  10.939  10.913 -0.2824  0.0738  0.1519
18435W        W31849   3.723   4.377  16.538 -0.1124 -0.0472  0.1090
18436W        W31850  15.725   9.673   1.242  0.1912 -0.0605 -0.1697
18437W        W31851  13.770  10.740   1.315  0.0407  0.1032  0.0832
18438W        W31852  17.807   9.440   0.839 -0.2762  0.1448  0.1282
18439W        W31853  17.475  17.225   3.168  0.1363  0.0888 -0.1414
18440W        W31854   7.901  16.854  13.714 -0.2351 -0.3356 -0.0333
18441W        W31855  16.393   8.565   3.438  0.0219  0.0488  0.2521
18442W        W31856   8.676   2.798  14.224  0.0070 -0.4947 -0.4046
18443W        W31857  12.145  12.766  15.755 -0.0280 -0.0573 -0.1403
18444W        W31858  10.292  11.169  15.703  0.0487  0.1071  0.1404
18445W        W31859  15.921   1.567  11.533 -0.1845 -0.0550 -0.1571
18446W        W31860  13.093   9.503   1.714 -0.0032  0.1379 -0.0119
18447W        W31861   2.861   5.507   3.701  0.0093 -0.1026  0.0555
18448W        W31862   9.030  12.107  13.646 -0.0566  0.0533 -0.0009
18449W        W31863  13.950   5.966   5.146 -0.1245  0.0034 -0.1616
18450W        W31864  12.245   0.992   1.125 -0.0615 -0.0529  0.1457
18451W        W31865   3.625   8.053  11.347 -0.0733 -0.2297  0.2152
18452W        W31866   0.102   9.161  13.281 -0.0637 -0.1605  0.2029
18453W        W31867  15.170  17.209  11.056  0.1779  0.0857  0.2542
18454W        W31868   2.133   1.497   1.076  0.0414 -0.2460 -0.0106
18455W        W31869  10.374  16.978  15.186  0.2674 -0.3280  0.2191
18456W        W31870   8.764  11.781  12.299 -0.1191 -0.3218  0.2808
18457W        W31871   3.286   6.682  14.711 -0.0041  0.0053 -0.0471
18458W        W31872   4.665   4.938   2.979 -0.0271 -0.1634 -0.0202
18459W        W31873  13.585   9.537   3.411  0.3094 -0.1072 -0.3573
18460W        W31874   0.478   3.286  15.682  0.0191  0.1111 -0.0513
18461W        W31875   6.520   1.517  13.431  0.0385 -0.1773  0.0036
18462W        W31876  10.907  14.877  12.407  0.1683 -0.0452 -0.0409
18463W        W31877   2.314   4.861  14.957 -0.1459 -0.0022 -0.2707
18464W        W31878   2.715   3.733   4.695  0.2182 -0.5036 -0.1884
18465W        W31879  14.627  11.895   1.952  0.1584  0.2216  0.0388
18466W        W31880   7.212  12.644   1.831  0.0671  0.1322 -0.0357
18467W        W31881   1.144  16.989   3.794  0.3160  0.2164 -0.4345
18468W        W31882  10.029  15.983   0.305  0.1369  0.0919 -0.0807
18469W        W31883   7.399   3.300   3.747  0.2995 -0.0822  0.1580
18470W        W31884  17.208   0.196  11.902  0.0570  0.1754  0.1025
18471W        W31885  16.022  14.614   2.966  0.1641  0.1540  0.3445
18472W        W31886   4.722  14.704   2.640  0.2641 -0.0328 -0.0258
18473W        W31887   8.958  11.286   0.407  0.2808  0.0725 -0.4281
18474W        W31888   3.472   6.615   1.832  0.2298  0.3203  0.3181
18475W        W31889   5.004  15.581  16.159 -0.1550  0.2382  0.3702
18476W        W31890  11.960   2.474   5.271 -0.2021  0.1616  0.1367
18477W        W31891   1.960  17.013  15.551  0.0210  0.3761 -0.0562
18478W        W31892  10.487  12.044  10.228  0.1704 -0.1283  0.2182
18479W        W31893  13.907   0.510   5.317  0.0870  0.0484 -0.0018
18480W        W31894   9.237   9.518   6.263 -0.3819  0.1356  0.0864
18481W        W31895  12.588   1.906  15.295  0.0172 -0.0065  0.0286
18482W        W31896   9.605   5.046  14.635 -0.2446 -0.0362  0.1693
18483W        W31897   7.828   4.582   0.257 -0.2081  0.2239 -0.3024
18484W        W31898   2.165   8.442  16.464 -0.0126  0.1758  0.4815
18485W        W31899   2.155   3.048   2.780  0.1191 -0.0519 -0.1031
18486W        W31900   7.926   7.203  16.547 -0.3964 -0.0578  0.1367
18487W        W31901   8.838  12.877  13.276 -0.0822  0.1775 -0.0264
18488W        W31902   7.802  10.529   2.706  0.1610 -0.1093 -0.2982
18489W        W31903  14.698   7.170  15.439  0.1412  0.4377 -0.0766
18490W        W31904  12.975   7.896  13.210  0.0011 -0.0729 -0.0189
18491W        W31905   5.749  15.660  15.827 -0.0290  0.1798  0.4253
18492W        W31906  12.503   0.403   6.293  0.0538  0.4450  0.2677
18493W        W31907   4.041  13.148  14.427  0.0453  0.2772 -0.2840
18494W        W31908  15.479   7.591   1.675  0.2376 -0.0787  0.1150
18495W        W31909   9.347   9.860   4.505 -0.1620 -0.2869  0.2614
18496W        W31910  17.353  14.663   1.361 -0.0945  0.2487 -0.1066
18497W        W31911   1.260   7.911   5.630  0.2622 -0.3369 -0.0989
18498W        W31912   5.796   9.824  12.136  0.0736 -0.0802 -0.2535
18499W        W31913   9.865  17.569   9.965 -0.3979  0.0594  0.1939
18500W        W31914   9.636   9.752  13.053  0.0854 -0.1062  0.0291
18501W        W31915   9.137  16.769   0.963  0.0087  0.0271 -0.1596
18502W        W31916   2.245   3.696   5.016 -0.0229 -0.1339  0.1157
18503W        W31917  11.541   9.440  12.411  0.0853  0.1059  0.2431
18504W        W31918   3.894   0.506   1.227  0.0730  0.0227  0.0449
18505W        W31919  11.941  12.485  16.200 -0.0804  0.0798  0.1301
18506W        W31920  13.672  15.815   1.610  0.1960  0.2615 -0.2020
18507W        W31921  11.712  15.740  11.287  0.1980 -0.4382  0.2209
18508W        W31922   9.656  17.234  12.111  0.1660  0.1197 -0.1253
18509W        W31923  14.565   8.230  15.894  0.0519  0.2117 -0.2252
18510W        W31924  14.963  15.517   3.387 -0.0232 -0.1167  0.1435
18511W        W31925   3.375  16.916   3.037  0.4158  0.2373  0.1264
18512W        W31926   4.588   3.419  11.773 -0.1221 -0.1757 -0.1450
18513W        W31927  17.252   3.346  12.861 -0.0145  0.2301  0.2384
18514W        W31928   0.157  16.584   5.696  0.3934  0.0941 -0.0440
18515W        W31929   8.370   6.501  13.601  0.0315 -0.0713  0.1997
18516W        W31930  16.962   9.245   0.581  0.1578 -0.2774 -0.0134
18517W        W31931   6.150  15.332   1.937 -0.1528 -0.1379 -0.1153
18518W        W31932   9.520   2.193  11.509 -0.1530 -0.3362  0.2809
18519W        W31933   8.975  17.864  13.020  0.0046 -0.4203 -0.1481
18520W        W31934   5.945  16.739  15.030  0.0075 -0.1114  0.0849
18521W        W31935  14.234   5.783   2.082  0.2357  0.1541 -0.0203
18522W        W31936   4.466   6.065  13.655  0.2191  0.0585 -0.0718
18523W        W31937   3.992   0.396   4.160  0.2016  0.2444  0.0348
18524W        W31938  13.921  14.672   0.937  0.0047 -0.0588  0.0747
18525W        W31939   8.143   9.432   0.340 -0.1992  0.0768  0.1445
18526W        W31940  13.034   8.100   4.733 -0.0590  0.2401 -0.0332
18527W        W31941   1.847   1.813  13.162  0.0500  0.1271  0.0614
18528W        W31942   5.995  10.427   0.769 -0.0942  0.3286  0.3431
18529W        W31943  13.456   5.810  11.923 -0.1723 -0.0617 -0.1012
18530W        W31944   9.376  14.769  12.872  0.1976 -0.2247  0.0477
18531W        W31945   5.492  11.881  12.001  0.0643 -0.0155 -0.0204
18532W        W31946   5.267  17.118   2.473 -0.2147 -0.4137  0.0272
18533W        W31947  13.036   8.928  13.130  0.2502 -0.2823 -0.3496
18534W        W31948  15.043   2.938   2.022 -0.3251  0.0019 -0.2871
18535W        W31949  17.639  17.408  14.790  0.2134  0.4160  0.1684
18536W        W31950  13.769  17.427  10.746 -0.1717  0.0903 -0.4437
18537W        W31951   3.206  13.842  11.237  0.0657 -0.0810 -0.2163
18538W        W31952  14.080   4.512  15.897 -0.0959 -0.3545  0.2702
18539W        W31953  10.518   8.961  12.918  0.0780 -0.2727  0.1302
18540W        W31954  12.808  13.298   4.677 -0.2428  0.1058  0.1186
18541W        W31955  17.840   5.340   4.311  0.0147  0.0890 -0.0097
18542W        W31956  12.691  11.160  15.766 -0.0455  0.1427  0.1087
18543W        W31957   8.602   6.177  13.830  0.0427 -0.4183 -0.3618
18544W        W31958  17.923   5.101   5.987  0.1194 -0.2995  0.3036
18545W        W31959   8.031  10.854   0.882 -0.2113 -0.0426  0.2339
18546W        W31960   2.636   3.830   5.506  0.1042  0.2692  0.0656
18547W        W31961  17.765  14.904   4.525 -0.0663  0.1124  0.2173
18548W        W31962   4.666   4.306   0.359  0.0843  0.0700  0.1299
18549W        W31963   9.831  10.960  15.531  0.2644  0.1606 -0.1232
18550W        W31964   3.759  13.886  14.762  0.0104 -0.0582  0.0978
18551W        W31965  16.638  11.390   5.896  0.1825 -0.2324  0.1839
18552W        W31966   5.337   3.179  13.279 -0.2486 -0.0718 -0.0389
18553W        W31967  13.088   3.890  15.597  0.1428  0.1212 -0.1507
18554W        W31968  17.070   8.005   2.396  0.0264 -0.0288  0.1210
18555W        W31969   0.710   7.389  15.084 -0.0454  0.0545 -0.0068
18556W        W31970  14.482  17.340   0.092 -0.1673 -0.0673 -0.1162
18557W        W31971  12.036  15.503   3.455  0.2711 -0.1285 -0.3291
18558W        W31972   2.423  11.140   2.283 -0.2027 -0.0450  0.0284
18559W        W31973  17.774   4.460   4.643 -0.2911 -0.3660  0.0157
18560W        W31974   5.088  17.020   5.788  0.0645 -0.1938  0.1541
18561W        W31975  13.579   1.677   1.146 -0.2598  0.0816  0.0166
18562W        W31976  10.461   0.907  11.238 -0.0384  0.1661  0.3869
18563W        W31977  11.663   0.996  11.410 -0.1576  0.0844 -0.2056
18564W        W31978   5.960   6.783  14.284 -0.3582 -0.1663  0.3190
18565W        W31979  15.924   3.772   5.172 -0.4458 -0.0295  0.1703
18566W        W31980  12.916   6.168   0.356  0.2243  0.0443 -0.0639
18567W        W31981  16.004  11.419  15.563  0.0180  0.2010  0.2666
18568W        W31982  11.301  12.011  15.148 -0.1595 -0.2269  0.0114
18569W        W31983  12.253  13.424  16.539  0.0586  0.1394  0.0400
18570W        W31984  13.018   2.085  15.506 -0.1123 -0.0002  0.0257
18571W        W31985  11.556   2.140  15.949  0.1046  0.0641 -0.0795
18572W        W31986  16.208   4.175  12.800  0.2389 -0.1427  0.0606
18573W        W31987   7.065  17.962   3.038 -0.3550  0.1397  0.0881
18574W        W31988  11.124   9.026   2.672 -0.1702 -0.1660  0.0575
18575W        W31989  14.001  16.645   5.541  0.2330 -0.0440 -0.0027
18576W        W31990  12.447   5.540   0.673 -0.0429  0.2658 -0.1322
18577W        W31991  12.724  11.302   1.855 -0.1110 -0.0856 -0.2067
18578W        W31992   6.333  16.369   0.982  0.4086  0.2694 -0.0236
18579W        W31993  13.556   0.075  14.518  0.1445 -0.5039  0.2419
18580W        W31994   7.412  13.982   1.720  0.0693 -0.0209 -0.0116
18581W        W31995   6.427   0.365   1.944 -0.3287  0.3436  0.0885
18582W        W31996   4.288   5.992   2.610  0.1645 -0.0394  0.0429
18583W        W31997  14.653   5.252  15.999  0.1614  0.0608 -0.0032
18584W        W31998  13.408  12.714  13.799 -0.2001 -0.0567  0.1521
18585W        W31999   2.394   9.079  15.561 -0.2911  0.2654 -0.2061
18586W        W32000   9.625  14.425   0.191  0.1900 -0.2058  0.3740
18587W        W32001  13.452  16.766  12.770  0.3534  0.3132  0.0292
18588W        W32002   7.653   1.050  16.020 -0.1027 -0.1402 -0.0357
18589W        W32003   7.801   5.223  13.093  0.0998  0.0924 -0.1372
18590W        W32004   2.377   1.955   5.728 -0.2412 -0.1643  0.1803
18591W        W32005   0.944  11.786  14.106  0.0475  0.1092 -0.4374
18592W        W32006   7.236  15.404   4.073  0.1317  0.2573 -0.3552
18593W        W32007   1.612   6.602   6.354  0.3700 -0.1935  0.0816
18594W        W32008  15.793   0.657  16.675 -0.1177 -0.1351  0.1349
18595W        W32009   9.028  14.273  13.018  0.2193 -0.2243  0.0051
18596W        W32010   0.538   3.052   6.356 -0.1649  0.3228  0.0628
18597W        W32011   3.323  11.831  16.530 -0.3211 -0.0880 -0.0267
18598W        W32012  14.582   6.281   5.031  0.0385  0.0242  0.1950
18599W        W32013  16.373   3.887   6.780 -0.4285 -0.1177  0.0068
18600W        W32014   8.780  14.670   0.130  0.2252  0.0249  0.1084
18601W        W32015   0.006   2.700  16.335 -0.0938  0.1063  0.0010
18602W        W32016  12.651   2.878   4.844  0.1400 -0.2088 -0.2014
18603W        W32017  11.494   3.893  10.959 -0.1687  0.1541  0.0882
18604W        W32018   4.231  15.136  11.547  0.0014 -0.1045  0.1049
18605W        W32019   1.498   4.438   0.003  0.1425  0.1894 -0.1580
18606W        W32020   6.504  17.494   4.581  0.1970 -0.2010 -0.1450
18607W        W32021  14.882  14.187   0.931  0.0784 -0.0195 -0.1840
18608W        W32022   4.048  16.563  15.000  0.2066 -0.3474 -0.1516
18609W        W32023  14.520  13.331   3.000  0.2377  0.0992  0.0348
18610W        W32024  12.675   3.015   2.775  0.0517 -0.1212  0.0395
18611W        W32025   4.972   1.186   6.162 -0.0115 -0.0498  0.4114
18612W        W32026  12.009  11.685  16.672  0.0392  0.1503 -0.2049
18613W        W32027  17.808  14.868  15.898 -0.1196  0.0310 -0.0582
18614W        W32028   2.111   2.874  15.719  0.2323  0.0879  0.0755
18615W        W32029  10.033   9.103  13.028  0.0808  0.0133 -0.1258
18616W        W32030  13.390  10.194  15.695  0.4240 -0.0405 -0.2777
18617W        W32031  10.598   3.737  12.927  0.1398 -0.1558 -0.0835
18618W        W32032  16.521   4.804  16.228 -0.1046  0.0967  0.2022
18619W        W32033   6.468   9.016  12.699 -0.2052  0.1649  0.0465
18620W        W32034  14.997   8.284   0.178  0.0704 -0.0338  0.2298
18621W        W32035  13.871  13.307   1.366 -0.0377  0.1400 -0.0822
18622W        W32036   2.178   3.292  14.088  0.0559 -0.1418 -0.0249
18623W        W32037   5.589  16.605   5.836 -0.2827  0.5022  0.0501
18624W        W32038   5.395   5.871   2.735 -0.0309 -0.1462  0.0535
18625W        W32039   1.298   9.314  15.412  0.1054 -0.2057 -0.0634
18626W        W32040   3.889   4.135  13.143 -0.1830  0.1751 -0.1048
18627W        W32041   7.706  17.591  14.915  0.3054 -0.1658 -0.1786
18628W        W32042  14.393  16.826  13.896 -0.1786 -0.1959 -0.1832
18629W        W32043   5.190  17.946   4.616 -0.0833  0.1543 -0.3241
18630W        W32044  16.678   3.248  16.427  0.2860 -0.1882 -0.1445
18631W        W32045  14.948   8.026   1.789 -0.0773  0.2219 -0.3092
18632W        W32046  14.992  14.592  11.188  0.0107 -0.1684  0.2806
18633W        W32047   9.221   3.279  15.320  0.1163 -0.0332  0.2439
18634W        W32048   1.134  16.435   5.034 -0.1098  0.1737 -0.0819
18635W        W32049   3.599  15.374   0.492  0.1530  0.0280  0.0214
18636W        W32050   1.533  13.193  15.977  0.1815  0.1451 -0.3386
18637W        W32051  13.971   5.108  10.899  0.3099  0.2156 -0.1644
18638W        W32052   6.610   9.161   5.545  0.2792 -0.0379  0.1784
18639W        W32053   8.779  10.859  14.394  0.2405  0.0246 -0.2321
18640W        W32054  17.958   1.983   3.037 -0.1716 -0.0351 -0.2309
18641W        W32055  11.699   7.738  12.998  0.2602  0.0967  0.0250
18642W        W32056   9.073  10.578   5.429 -0.0001  0.1380 -0.0590
18643W        W32057  15.016   3.718  11.199  0.1120  0.1293  0.0529
18644W        W32058  13.324   6.342   6.204 -0.0868  0.0425 -0.0671
18645W        W32059  17.312   9.575  15.111 -0.0452 -0.1944 -0.1233
18646W        W32060   5.929  17.440  13.192  0.0291 -0.0176 -0.0459
18647W        W32061  11.238   8.896   3.595 -0.1142  0.0095  0.0753
18648W        W32062  12.026  16.346  16.065 -0.3540 -0.0280  0.2142
18649W        W32063  11.026  11.880  16.069 -0.3068  0.1040 -0.0850
18650W        W32064   4.658  17.406  12.603 -0.0061 -0.0104 -0.0505
18651W        W32065  17.016   7.535  14.372 -0.0761 -0.3324  0.1375
18652W        W32066   3.554   2.322  11.686  0.1986  0.0450 -0.0826
18653W        W32067   8.827  13.529   5.103  0.0322  0.0419 -0.0893
18654W        W32068   7.560   5.377  15.638 -0.1028 -0.0725  0.0272
18655W        W32069   5.343   4.269  13.858 -0.2431 -0.1421 -0.0841
18656W        W32070   4.449  13.504   4.635 -0.0089  0.1148  0.0939
18657W        W32071  17.517  13.869   4.862  0.2035 -0.2017 -0.0505
18658W        W32072  17.331  17.574   6.520  0.1080 -0.0889 -0.0120
18659W        W32073   6.157   6.512   5.360  0.0383 -0.2593  0.0099
18660W        W32074  14.709  12.874  16.523 -0.1684  0.0914  0.2521
18661W        W32075   7.696   9.140   2.487 -0.1893 -0.1303  0.0810
18662W        W32076   0.244   4.874  12.636 -0.3497 -0.2796  0.0151
18663W        W32077   1.736   1.313   5.756 -0.1992  0.1866  0.2152
18664W        W32078   2.662  16.683  16.539  0.1125  0.0659  0.2111
18665W        W32079  13.188   6.457   5.004  0.1489  0.1177 -0.2900
18666W        W32080  14.009   3.226  11.111  0.2623 -0.1484  0.1998
18667W        W32081   9.996  10.988   0.310 -0.1674 -0.0440  0.0213
18668W        W32082   7.184   1.638   1.499 -0.0233 -0.1985 -0.3780
18669W        W32083   7.657  14.927   3.315 -0.1818 -0.0154  0.0475
18670W        W32084   3.895   4.893  12.096  0.2159  0.1869  0.0937
18671W        W32085   7.658  14.817  12.059 -0.0867 -0.0454 -0.1138
18672W        W32086  10.416  14.594   5.310 -0.1641 -0.1707 -0.2744
18673W        W32087   4.832   3.079   0.415 -0.1515 -0.0211  0.1646
18674W        W32088  15.538  15.025  10.820 -0.0567 -0.4576 -0.0467
18675W        W32089  17.879  15.133   5.589  0.0870 -0.1395  0.0851
18676W        W32090   2.720   4.046  13.635 -0.5841 -0.1081 -0.0110
18677W        W32091  16.170   2.605   0.085 -0.1185 -0.0260 -0.0534
18678W        W32092  13.636  17.750   6.595 -0.0554 -0.0929  0.0558
18679W        W32093   2.634   6.989  11.595  0.1092 -0.0483  0.0578
18680W        W32094   3.441  15.525   3.029  0.1101 -0.3144  0.0328
18681W        W32095  14.339   8.148   1.131  0.1131 -0.0754  0.1228
18682W        W32096  16.861  15.743  11.412  0.0222  0.0127 -0.0474
18683W        W32097  14.075   2.345   3.429 -0.0392  0.0468  0.2551
18684W        W32098   3.460   9.102  12.392  0.1580 -0.0298 -0.0325
18685W        W32099  10.262   3.620   5.400  0.2583 -0.1969 -0.1472
18686W        W32100  17.071  16.239   5.652 -0.0561  0.1511 -0.0321
18687W        W32101  15.335   3.883   2.010 -0.1221 -0.0837 -0.2295
18688W        W32102   7.837   5.292   4.112  0.2700 -0.0311 -0.1100
18689W        W32103  17.272   6.511   2.733 -0.1572  0.1431 -0.0212
18690W        W32104  16.270  17.180  11.893 -0.1844  0.1154  0.1437
18691W        W32105   9.824  12.705  14.996  0.1965  0.2922 -0.0605
18692W        W32106  10.300   4.019  15.697  0.0531 -0.0729  0.1051
18693W        W32107  17.032  13.981   4.070 -0.4186 -0.0565  0.1022
18694W        W32108   5.910   8.711   0.874  0.2799 -0.0899 -0.1704
18695W        W32109  10.360   2.989  12.293 -0.0164  0.0617  0.1883
18696W        W32110  17.141   1.806   2.919 -0.1661  0.1793  0.3294
18697W        W32111  14.550  14.378  16.354  0.0455 -0.3281 -0.1718
18698W        W32112   8.675  13.561   1.585  0.1543 -0.1228 -0.2147
18699W        W32113  12.185  14.752  16.443 -0.1576  0.2061  0.1329
18700W        W32114  10.815   8.626   0.658 -0.4087 -0.2884  0.1414
18701W        W32115  10.976  14.987   5.612 -0.0326  0.1626  0.2676
18702W        W32116   7.896  17.199  15.540 -0.1230 -0.0764 -0.2578
18703W        W32117  15.830   8.245   0.394 -0.0473 -0.0123  0.0681
18704W        W32118  13.988   0.824   4.489  0.0355 -0.1069  0.5246
18705W        W32119  10.588  14.695  13.779  0.0737 -0.1725 -0.3071
18706W        W32120  17.022   5.446   6.036 -0.0830 -0.1002 -0.1548
18707W        W32121   0.176  11.892  11.484 -0.0332 -0.0069 -0.1078
18708W        W32122   7.704   8.267   0.617 -0.0747 -0.2939  0.0507
18709W        W32123  12.000   1.036   1.571  0.0118 -0.2206 -0.0765
18710W        W32124   0.570  14.622   4.215 -0.1004  0.0385 -0.3014
18711W        W32125   4.943   9.651   2.931 -0.0325  0.0822  0.1514
18712W        W32126  10.301  14.010  12.339 -0.1062 -0.1009 -0.1007
18713W        W32127  12.704  14.647  11.629  0.0217  0.1113 -0.1896
18714W        W32128  15.945  15.171  12.335  0.1291  0.1658 -0.1569
18715W        W32129  16.724   4.492   0.940  0.2521  0.3382  0.0677
18716W        W32130  11.682  14.796  14.469 -0.1691  0.0054  0.0310
18717W        W32131   6.796  10.030   3.303 -0.1417  0.1930  0.0564
18718W        W32132   1.140  13.292   3.776 -0.0797 -0.2061 -0.1616
18719W        W32133   8.414  18.012   1.399  0.0984  0.2469  0.1187
18720W        W32134   2.391   3.134   0.234  0.0185  0.0641 -0.1096
18721W        W32135  15.257  16.356   1.206  0.0501 -0.1008  0.1158
18722W        W32136   1.622   3.717  11.942  0.1377 -0.0523 -0.1477
18723W        W32137  14.893  17.901  15.375  0.0078  0.0245 -0.2090
18724W        W32138   9.172   5.517  16.526  0.3915 -0.3196  0.0069
18725W        W32139   1.298   3.457   2.543  0.1029 -0.2835  0.0516
18726W        W32140   2.850  15.413   5.198 -0.1504 -0.0584  0.2494
18727W        W32141   9.026  10.922  15.161  0.0112 -0.1002  0.0482
18728W        W32142  12.259  15.038   4.654  0.1642 -0.0546  0.0599
18729W        W32143   1.895  12.623  12.678  0.3545 -0.3920 -0.2080
18730W        W32144  12.487  13.597  13.213 -0.1260 -0.5535  0.1323
18731W        W32145   8.203   6.672   4.652 -0.1627 -0.0898 -0.1035
18732W        W32146  17.267   9.751  14.293  0.0170 -0.0020  0.2615
18733W        W32147   9.744  13.863  15.200 -0.1505  0.1476 -0.1430
18734W        W32148   9.559   9.420  13.985  0.0325 -0.0457 -0.0718
18735W        W32149  14.458  11.772   2.790  0.0415 -0.0206 -0.0405
18736W        W32150   3.552  13.213  10.523  0.2499  0.1905  0.2188
18737W        W32151   7.503   9.086   4.788 -0.5767  0.3666  0.2352
18738W        W32152  13.515   7.319  16.527  0.0493  0.0660 -0.1357
18739W        W32153   8.975  14.235  15.393 -0.1566 -0.0721  0.1579
18740W        W32154   2.183  15.482  13.739 -0.1340  0.1776  0.0826
18741W        W32155  11.184   8.475   4.563 -0.1389 -0.0348  0.4254
18742W        W32156   7.734  12.049   1.166  0.3222  0.0742 -0.0850
18743W        W32157  10.967   0.827  15.752  0.2217  0.0944 -0.3786
18744W        W32158  11.835   8.227  15.240 -0.0745 -0.0951  0.1747
18745W        W32159  17.351  15.350   4.857  0.4126  0.0670  0.1813
18746W        W32160   4.652  16.374  13.492  0.1681  0.0299  0.2355
18747W        W32161  14.025  11.262  15.902 -0.0394 -0.0153 -0.0369
18748W        W32162  10.822  11.333  15.924  0.0506  0.1566 -0.0387
18749W        W32163   6.959   6.104   6.103  0.1601  0.2748  0.1698
18750W        W32164  13.540   2.757   1.401 -0.1998 -0.1017  0.0896
18751W        W32165   8.435  15.758   4.146 -0.0187 -0.3819 -0.1060
18752W        W32166   4.204  15.979  16.493  0.3892  0.1519  0.0117
18753W        W32167  13.977  10.329   1.145  0.0141  0.1004 -0.2292
18754W        W32168   8.031   5.366  13.903  0.0551  0.3689  0.0972
18755W        W32169  15.565   8.851  16.440  0.3201  0.2449  0.0312
18756W        W32170   4.368  15.115  13.671 -0.0351  0.1173 -0.1371
18757W        W32171  12.437   0.838   3.685 -0.0943  0.1197 -0.3257
18758W        W32172  11.139  14.410   2.091  0.1911  0.0308  0.2936
18759W        W32173   9.110  12.192   0.140 -0.1184 -0.1972  0.1026
18760W        W32174   8.111  17.020  12.177 -0.0882 -0.0061  0.1525
18761W        W32175   8.793   3.825   3.740  0.2678  0.1060 -0.0390
18762W        W32176  11.003   6.146  11.196 -0.3605 -0.1007  0.0974
18763W        W32177   7.510  10.475   5.433 -0.1889  0.2931  0.0582
18764W        W32178   4.618   0.145  14.995  0.4567 -0.1762 -0.1732
18765W        W32179  13.864  11.256   0.984  0.0638 -0.0523 -0.0982
18766W        W32180   9.677   1.002   0.627  0.1501  0.0048  0.0714
18767W        W32181   8.563   5.863   0.042 -0.0246 -0.0369 -0.0204
18768W        W32182  14.861   1.664   3.114 -0.0480  0.0772  0.2891
18769W        W32183   4.865   0.436   2.075  0.3737 -0.0373 -0.1556
18770W        W32184   9.815   9.370  12.694 -0.0921  0.0043  0.0151
18771W        W32185   1.292   0.521  15.097 -0.3953 -0.0906  0.0169
18772W        W32186  11.437   0.842  10.941 -0.1282 -0.0198 -0.0582
18773W        W32187   4.941  11.260  13.490 -0.2852 -0.2322 -0.0606
18774W        W32188  12.429   0.956  14.017  0.0409 -0.1325 -0.1512
18775W        W32189   7.237   2.051   2.452 -0.1252 -0.3231  0.1386
18776W        W32190  14.842  11.970  16.477 -0.1598  0.2416 -0.0797
18777W        W32191  15.501  13.970  14.833  0.3089 -0.1820  0.1575
18778W        W32192  14.065  13.522  11.837  0.1966 -0.0813  0.1671
18779W        W32193   3.364   0.783   3.962  0.1006  0.2054 -0.0462
18780W        W32194   2.667   7.529  13.612 -0.3464 -0.0871  0.0023
18781W        W32195   0.165  14.978  12.356  0.1631 -0.2222  0.0756
18782W        W32196   8.396  15.274  12.102  0.1198 -0.1279 -0.0531
18783W        W32197   0.967   9.117   3.136 -0.0759  0.0739  0.3723
18784W        W32198   0.842   9.156  15.062  0.0907  0.1176 -0.0997
18785W        W32199  16.572  10.520  15.517 -0.1408  0.2691 -0.0088
18786W        W32200  12.657   1.055   2.620 -0.1473  0.0884 -0.1224
18787W        W32201   8.580  10.275   0.208 -0.0771 -0.0999  0.2025
18788W        W32202  15.127   7.897  15.466 -0.3284 -0.0700  0.0501
18789W        W32203  10.727   7.371   5.231 -0.1250 -0.0556  0.1412
18790W        W32204  10.326  16.203   5.204  0.2904 -0.2379 -0.1783
18791W        W32205  12.688   2.628   3.073  0.1019  0.0808 -0.1948
18792W        W32206   4.054   7.148   4.738  0.0362 -0.1158 -0.0106
18793W        W32207  14.748   2.848  11.420 -0.4702  0.1454 -0.2900
18794W        W32208  17.578  15.842   3.098 -0.0144  0.0795  0.0580
18795W        W32209   1.481   3.668  14.570 -0.1406  0.0412  0.0995
18796W        W32210   6.750  14.966   2.724  0.2101 -0.0480  0.1754
18797W        W32211   3.232   6.693   0.624 -0.0055  0.1753  0.0371
18798W        W32212  17.700   0.209  16.310 -0.1042  0.1519  0.1617
18799W        W32213   1.997  14.823   4.132 -0.3353 -0.0934  0.0434
18800W        W32214  14.955   4.810   3.344 -0.0289  0.1107  0.1616
18801W        W32215   0.921   1.474  16.010  0.1442 -0.1378  0.1801
18802W        W32216   8.088  12.956  12.393 -0.1640 -0.1580 -0.1288
18803W        W32217   7.973  11.867  13.439 -0.2068 -0.2563  0.0361
18804W        W32218  15.102  16.598  16.696  0.0002  0.0263 -0.1725
18805W        W32219  12.425  15.106  14.469 -0.1056 -0.1305 -0.1914
18806W        W32220  16.615  15.633   2.652  0.0748 -0.1951 -0.1741
18807W        W32221  12.416  16.192   1.088  0.1005 -0.2577  0.0873
18808W        W32222   0.644   1.907  11.990 -0.2195  0.0832  0.2177
18809W        W32223  13.639  13.824   4.041 -0.0717 -0.0095  0.2095
18810W        W32224   0.835  11.988  12.349 -0.0385  0.0728  0.0755
18811W        W32225   6.384  12.573  12.285  0.2292  0.0605  0.0624
18812W        W32226   0.257   5.839   1.378  0.1119  0.0879 -0.1005
18813W        W32227   0.525  10.868   1.682  0.0666 -0.1734 -0.2319
18814W        W32228  14.683   9.677  14.898  0.0554 -0.1799 -0.0300
18815W        W32229   9.120   5.265   0.298  0.2078 -0.1428 -0.1030
18816W        W32230   2.326   6.259  13.099 -0.1036 -0.1708 -0.2913
18817W        W32231  11.014  17.028  14.191  0.1284 -0.1075 -0.0866
18818W        W32232   0.275  10.090   4.646  0.1103 -0.0034  0.1052
18819W        W32233  12.233   8.368  12.441  0.2286 -0.4164  0.0705
18820W        W32234  11.125  18.031  13.114 -0.0156 -0.1854 -0.0510
18821W        W32235   0.220  12.639  12.024 -0.0912 -0.0435  0.0444
18822W        W32236   8.296  14.033  16.029 -0.0461 -0.1161 -0.1941
18823W        W32237  14.306   4.417   2.571 -0.4118 -0.0073  0.0249
18824W        W32238  15.089  13.327  16.366 -0.2166  0.1196 -0.1353
18825W        W32239  14.732   6.905   4.876  0.3375  0.3057 -0.0704
18826W        W32240   5.753   1.821   0.296  0.0103  0.0354  0.0940
18827W        W32241  16.695   2.861   1.849  0.0449 -0.0100 -0.0038
18828W        W32242   2.028  17.264   4.144  0.0711 -0.0734  0.0740
18829W        W32243  12.779  16.735  13.484  0.0452 -0.4057  0.1082
18830W        W32244  17.240   2.408  12.764  0.0133 -0.2169 -0.4418
18831W        W32245   0.390   7.314  13.020  0.3573 -0.2222 -0.0817
18832W        W32246   1.996  14.156   5.684  0.4287 -0.0956 -0.0973
18833W        W32247  17.442  10.288   2.492 -0.2057  0.1971  0.1487
18834W        W32248  11.162  12.373  14.288  0.3400 -0.0014  0.1515
18835W        W32249  11.972  10.397   2.810  0.0697 -0.0999  0.0523
18836W        W32250   1.178  12.122  13.520  0.1713 -0.1868  0.1798
18837W        W32251  16.845   6.635   5.961  0.0453 -0.0344 -0.0563
18838W        W32252  17.293   6.928  13.472 -0.1403 -0.0907 -0.3159
18839W        W32253   3.266  12.616  13.269  0.1187 -0.1145  0.2132
18840W        W32254   1.808  10.019  15.143  0.1139  0.0646  0.0838
18841W        W32255   7.356   4.890  12.781 -0.2251 -0.0484  0.1858
18842W        W32256   6.432  10.764  11.666 -0.0174  0.1393 -0.0019
18843W        W32257   7.390   3.053  13.498 -0.0937  0.0064 -0.1021
18844W        W32258  15.903   7.406   1.672  0.1589 -0.0383 -0.0124
18845W        W32259  17.222   6.620  14.270  0.2570 -0.0070  0.0585
18846W        W32260   2.337  16.871  11.368 -0.1586  0.0913 -0.1945
18847W        W32261  17.687   0.095  14.630  0.0737  0.0983  0.0412
18848W        W32262   4.539   4.259  12.392  0.1710 -0.0415 -0.2134
18849W        W32263   9.728  15.434  12.230  0.1334  0.1179  0.4655
18850W        W32264   9.465  13.678  13.391 -0.2008  0.2685 -0.0448
18851W        W32265   8.267   2.062   0.736  0.0961  0.0404 -0.3927
18852W        W32266  17.798   4.242   6.131 -0.2200 -0.3766  0.0798
18853W        W32267   8.642   2.426  13.542 -0.0400 -0.1614 -0.0640
18854W        W32268  13.246   1.522  11.639 -0.2115 -0.3240  0.0120
18855W        W32269   5.146  10.107  14.524 -0.0154 -0.1296 -0.2903
18856W        W32270  17.334  16.260   4.575  0.0080  0.0947  0.3108
18857W        W32271  15.814   3.165  13.987  0.1797  0.0809  0.0645
18858W        W32272   7.612  17.045  11.963 -0.2777  0.0744  0.1410
18859W        W32273   8.580   8.619   0.944 -0.1683 -0.0603  0.0752
18860W        W32274  16.777  15.317  13.206  0.3123 -0.2446  0.1753
18861W        W32275  17.658   3.657   2.959 -0.1589  0.1016 -0.1274
18862W        W32276  17.606   3.423   4.405 -0.0081 -0.1779  0.0572
18863W        W32277  17.030   7.623   1.234  0.3705  0.2700 -0.0778
18864W        W32278  17.374  15.350   3.953  0.3151 -0.0612  0.0494
18865W        W32279  10.638  14.081  11.257 -0.1489  0.0493  0.3550
18866W        W32280   4.254   9.539   2.689  0.3223 -0.2581  0.1927
18867W        W32281  15.954   4.639   4.369  0.0629 -0.3250 -0.2266
18868W        W32282  12.280   5.107  14.325  0.0719  0.1780  0.1571
18869W        W32283   8.355   8.553  13.521 -0.2668 -0.0917  0.0741
18870W        W32284   3.602  12.940  10.995  0.3112 -0.3130 -0.1267
18871W        W32285   5.509  12.015   5.149 -0.1743 -0.0838  0.1340
18872W        W32286  11.466   2.147   4.921  0.0661 -0.1185  0.0204
18873W        W32287   9.564   0.551   3.495  0.2137  0.3631 -0.0566
18874W        W32288   8.960  12.668  11.265 -0.0665 -0.1954  0.0614
18875W        W32289   7.602   1.840  10.688  0.2788 -0.0922  0.0584
18876W        W32290   3.973   6.119  15.958  0.0419  0.1511  0.0040
18877W        W32291   7.686  17.288   2.239 -0.4189 -0.0604 -0.3253
18878W        W32292  13.426   6.120   4.071  0.2070 -0.1467  0.0850
18879W        W32293  11.697  12.607  11.920  0.2944  0.1165 -0.0219
18880W        W32294   9.252   4.167   5.235  0.3576  0.1817  0.2089
18881W        W32295  17.357   5.167  12.321 -0.1617  0.1084 -0.0029
18882W        W32296   7.667   8.912  16.079 -0.1642 -0.1568 -0.1059
18883W        W32297   6.746  12.141   0.605 -0.3449  0.1464  0.3186
18884W        W32298  14.368   2.844  14.518  0.0490 -0.1008  0.1621
18885W        W32299   3.359   5.911  15.218  0.1209 -0.2994  0.2199
18886W        W32300   9.127  17.604  12.123  0.1787 -0.0435 -0.2703
18887W        W32301  17.685  10.140   3.935 -0.0805 -0.1405 -0.0603
18888W        W32302  15.918  10.965   0.320  0.1740  0.1918  0.3165
18889W        W32303   2.910  13.564  14.895  0.0444 -0.2047 -0.2647
18890W        W32304   7.404  12.819  11.453 -0.1362  0.0709 -0.0161
18891W        W32305   3.596   1.135   0.409  0.1096  0.1426 -0.0172
18892W        W32306   5.843  11.438  12.828  0.1724  0.1470  0.2484
18893W        W32307   6.265   6.513  16.617  0.2357  0.2792 -0.1273
18894W        W32308   0.600   2.887   4.989  0.1923 -0.1003  0.0471
18895W        W32309   7.205  16.236  16.067  0.1722 -0.2421 -0.3303
18896W        W32310  16.766  10.718  12.649  0.1792  0.2323 -0.0776
18897W        W32311   6.962  16.325   4.934 -0.1013  0.2196  0.1493
18898W        W32312  17.764   9.708   3.705 -0.1113 -0.2616 -0.3652
18899W        W32313   3.274  10.989  12.213 -0.2949  0.0325  0.0334
18900W        W32314   0.657  10.958   5.074 -0.1516 -0.1177 -0.0779
18901W        W32315  14.835  17.891  12.308  0.0849  0.4331 -0.1629
18902W        W32316  17.037  11.321  13.527  0.1459  0.3802  0.0371
18903W        W32317   8.332   5.359  15.606  0.2180 -0.0449 -0.1135
18904W        W32318  13.543  14.873  13.629 -0.0962 -0.3162  0.1553
18905W        W32319  15.209   2.408  16.350  0.1576 -0.0383 -0.1434
18906W        W32320   1.016   3.059   4.005  0.3784  0.0538  0.1539
18907W        W32321   5.316  12.044   1.981  0.1448 -0.0184 -0.4936
18908W        W32322   8.577  14.352   4.206  0.0646 -0.1030 -0.1958
18909W        W32323  16.394  10.313  14.002 -0.0483  0.2609 -0.1298
18910W        W32324   4.001  13.945  13.942 -0.1026 -0.3623  0.0491
18911W        W32325  11.240   4.872  11.564 -0.1850 -0.0173  0.0981
18912W        W32326   5.755  15.924   0.126 -0.1318  0.0295 -0.2446
18913W        W32327   8.323   8.403  14.409 -0.1469 -0.0231  0.0552
18914W        W32328   7.612   7.980   9.990  0.2236  0.1116 -0.1757
18915W        W32329   3.435  16.256   1.355 -0.1428  0.3085  0.2099
18916W        W32330   9.237   2.447   5.220 -0.4574 -0.1437  0.0433
18917W        W32331  12.520  11.104  14.027 -0.1611 -0.0427  0.0787
18918W        W32332  17.269   6.041   0.389  0.1728 -0.0326  0.2305
18919W        W32333   4.338   1.161   4.959  0.4653  0.0075  0.2332
18920W        W32334   0.297  13.422  15.079 -0.0622 -0.2410 -0.1051
18921W        W32335  11.796  16.501   5.811  0.0082 -0.1649  0.1153
18922W        W32336   2.272   4.002   5.915 -0.1850  0.3594  0.1076
18923W        W32337   7.625   6.726   0.696 -0.0070 -0.2144  0.2719
18924W        W32338   5.140  14.433  11.453 -0.1071 -0.0681 -0.4329
18925W        W32339   1.879   9.763   5.376  0.1853 -0.0336 -0.0815
18926W        W32340   2.160   0.832  14.833 -0.0108  0.0910  0.0352
18927W        W32341  11.898  14.131  15.888  0.1805  0.0436  0.1003
18928W        W32342   9.379   7.391  14.168  0.1633  0.3970 -0.1492
18929W        W32343   3.422  15.243  13.470  0.0346  0.1503 -0.1024
18930W        W32344   3.655  11.449  14.127 -0.2688  0.2663  0.0712
18931W        W32345   3.260   4.156  10.889  0.1667  0.1642  0.2601
18932W        W32346   8.881  14.981   5.282 -0.0700  0.0145 -0.2440
18933W        W32347   3.638  12.043   2.052 -0.0812  0.2691  0.0663
18934W        W32348  11.250   7.191  13.711  0.0331 -0.3043 -0.1076
18935W        W32349   8.876   7.721  15.552 -0.2584 -0.2293 -0.1188
18936W        W32350  12.274   6.597  15.236 -0.0055  0.2849 -0.1058
18937W        W32351  16.115   8.118  16.702  0.0596 -0.0203 -0.1614
18938W        W32352   3.934  14.402  13.470  0.0002  0.0716 -0.2629
18939W        W32353  17.044  13.687   3.631 -0.0193 -0.0687 -0.0327
18940W        W32354   6.129  10.774  11.151  0.0744 -0.0329 -0.1646
18941W        W32355   2.316   3.893  11.268 -0.0255 -0.2377 -0.1285
18942W        W32356  14.102   0.366  16.622  0.1029 -0.3014 -0.0047
18943W        W32357   2.935  14.346  10.788 -0.0015  0.0439 -0.2444
18944W        W32358   3.623   7.457   1.818 -0.2522  0.3369 -0.1247
18945W        W32359  11.133  15.677  16.062 -0.3258 -0.2138  0.2295
18946W        W32360  13.469  12.118  11.670  0.0515 -0.0159  0.0958
18947W        W32361   1.668   9.802  13.127 -0.2205  0.0113 -0.1829
18948W        W32362   7.078   6.657  11.297 -0.0697 -0.1446  0.2364
18949W        W32363   4.077   5.656  10.866 -0.1910  0.1316 -0.0081
18950W        W32364   5.479  13.116   1.471  0.0719  0.1355  0.0306
18951W        W32365   3.291   6.953   5.905 -0.2185 -0.0186 -0.0519
18952W        W32366   8.042   0.803  13.924  0.0544  0.2783  0.3572
18953W        W32367   4.849   4.274   0.844  0.0550  0.4707  0.0097
18954W        W32368  10.427   4.247  16.498 -0.0903  0.1321 -0.1348
18955W        W32369  10.122  11.623  13.337 -0.1247 -0.1487 -0.0414
18956W        W32370   5.048   0.224   6.212 -0.1051  0.2487 -0.1366
18957W        W32371  11.551   6.152   6.180 -0.2283 -0.3812  0.0417
18958W        W32372   5.453   0.794  13.709 -0.0645  0.3850 -0.0301
18959W        W32373  14.573   3.999   0.550  0.1945 -0.0184 -0.1932
18960W        W32374   2.008   0.383  11.769 -0.0158  0.0938 -0.1495
18961W        W32375  14.984  15.738   5.134 -0.1326 -0.0600  0.0070
18962W        W32376  14.850  16.063   2.149 -0.1012 -0.1945 -0.0544
18963W        W32377  16.725   3.738  16.356  0.1458  0.1674 -0.2452
18964W        W32378  17.221  16.692  15.415  0.4348  0.1230  0.1361
18965W        W32379  16.274  17.875  14.393 -0.4963 -0.0523 -0.2154
18966W        W32380   9.968  12.326  11.344 -0.0987 -0.0845  0.0597
18967W        W32381  11.777  17.780  16.359  0.2204 -0.3098  0.4323
18968W        W32382   0.990   4.139  12.916  0.0151  0.1049 -0.1395
18969W        W32383  16.928  13.998  13.203  0.0207  0.0312  0.0202
18970W        W32384   7.866  16.496   2.383  0.1397 -0.2152 -0.2655
18971W        W32385  17.009  16.337   2.611  0.0636  0.1566 -0.1561
18972W        W32386   4.702  16.744   4.885 -0.0881 -0.1114  0.0275
18973W        W32387  15.352  11.596   1.190 -0.1181  0.0563 -0.1360
18974W        W32388  13.021  16.075  15.333  0.1070  0.0012  0.1790
18975W        W32389   2.972   1.241  14.164 -0.1751 -0.1143  0.0568
18976W        W32390   4.821   8.140   6.548  0.1263  0.0677  0.0004
18977W        W32391   0.029   4.820   2.763 -0.1920 -0.0991  0.2070
18978W        W32392  18.043   3.839   6.735 -0.0132 -0.0995 -0.0282
18979W        W32393   9.502  14.744   2.506 -0.0950 -0.0822  0.1476
18980W        W32394  13.492  10.660   5.017  0.0562 -0.0899 -0.0937
18981W        W32395  12.994   5.889   3.048  0.1620  0.0152 -0.2281
18982W        W32396   5.429  14.106   5.502  0.3398 -0.0472 -0.0559
18983W        W32397   4.809  13.762  12.739 -0.1419 -0.1885 -0.2573
18984W        W32398  12.142   5.802   1.464  0.1066 -0.0454 -0.2177
18985W        W32399   8.557  10.513   5.401 -0.0780  0.2294  0.0707
18986W        W32400   9.197   6.430  16.072  0.0542  0.0615 -0.0841
18987W        W32401  17.953  14.062   5.094 -0.1064 -0.0761  0.0817
18988W        W32402  16.442   2.344  12.341  0.2913  0.0492 -0.2320
18989W        W32403   5.358  11.127  15.923  0.0138  0.0975  0.1236
18990W        W32404   7.419   2.054  14.142 -0.3236 -0.0323 -0.0080
18991W        W32405  16.412   1.106   2.753  0.2890  0.1680 -0.0818
18992W        W32406  16.016   3.339  11.205 -0.1684 -0.0555 -0.2463
18993W        W32407   2.790   1.994   2.127  0.0065 -0.0062  0.0707
18994W        W32408  11.810   5.335   5.298  0.2603  0.0491 -0.2433
18995W        W32409   4.033   7.984  13.891 -0.0645  0.0377  0.3008
18996W        W32410   7.284  12.101  11.947 -0.1583  0.0291 -0.1763
18997W        W32411   2.638  12.308   0.363 -0.2437  0.0075  0.2188
18998W        W32412   3.701  11.729  12.941  0.1151  0.0466 -0.0277
18999W        W32413  10.345   8.239   2.572  0.3669 -0.1097  0.1740
19000W        W32414  16.159  14.263   4.852 -0.0612  0.0409 -0.3086
19001W        W32415   6.828  11.361  13.564 -0.3130  0.2182 -0.0747
19002W        W32416  14.030   1.907   0.907 -0.0154  0.0825  0.1002
19003W        W32417   4.989   6.203   2.647 -0.1242  0.1246 -0.3178
19004W        W32418   3.819  15.605   0.140  0.0636 -0.2217  0.3793
19005W        W32419  15.109  11.091   4.578 -0.0405  0.1312 -0.0985
19006W        W32420   4.276   2.623  13.606 -0.4864  0.3344 -0.0067
19007W        W32421  11.718   0.852  12.196  0.1031  0.2065 -0.1811
19008W        W32422  14.805   8.344   3.896 -0.0130 -0.0594  0.3630
19009W        W32423   3.336   3.620  14.939 -0.2231 -0.2671 -0.0736
19010W        W32424  13.814  12.875   3.180 -0.1558 -0.0502 -0.0288
19011W        W32425  13.114   9.098  14.561  0.1830 -0.3504  0.0650
19012W        W32426   3.281   6.376  11.067 -0.1494  0.1343 -0.0987
19013W        W32427  12.814   9.439  12.872 -0.2015 -0.3126 -0.0873
19014W        W32428  17.151  10.198   0.739  0.1465 -0.0616 -0.3576
19015W        W32429  11.543   4.632  16.549  0.0205 -0.0129  0.2563
19016W        W32430  16.721   7.629  12.424  0.0441  0.1303 -0.1722
19017W        W32431   1.170   2.263   2.062  0.1384 -0.1059  0.0570
19018W        W32432   2.117  13.801  14.171 -0.1326  0.0040  0.0363
19019W        W32433   0.366   8.847  15.346  0.0330 -0.1541  0.1052
19020W        W32434  12.401   2.021   4.606 -0.1602 -0.0804 -0.2529
19021W        W32435  15.629   3.197   0.662  0.1238  0.1359  0.0736
19022W        W32436   2.359  13.001  13.808  0.1689 -0.1443  0.0833
19023W        W32437   1.054  15.778   2.015 -0.1438 -0.0912 -0.1686
19024W        W32438   0.324   0.390  15.487  0.1734 -0.2675 -0.1892
19025W        W32439   1.133   9.493  13.249  0.0461  0.4652  0.1277
19026W        W32440   8.231  16.553   1.937  0.1746 -0.0048 -0.0079
19027W        W32441  10.714  14.735   3.449  0.3578  0.0739 -0.1422
19028W        W32442  10.867  14.498   5.549  0.0371 -0.2350  0.3440
19029W        W32443  17.632  15.169  11.517 -0.0996 -0.2119 -0.3159
19030W        W32444   8.374  13.910   1.271 -0.0493  0.0952  0.1871
19031W        W32445   7.575   6.530  14.225 -0.1721  0.3191 -0.2917
19032W        W32446   4.265   6.908  15.399  0.1695 -0.0743  0.2142
19033W        W32447  11.884   1.669   2.243  0.0463  0.3237  0.0081
19034W        W32448   8.707  17.195  13.087  0.1754 -0.1535 -0.0893
19035W        W32449  12.441   6.274   4.750  0.0019 -0.2911 -0.1263
19036W        W32450   7.244   8.505   1.369  0.2217 -0.5184  0.2175
19037W        W32451   1.316   0.410  12.825 -0.1287 -0.1091 -0.0208
19038W        W32452   2.954  14.904  10.049  0.0309 -0.1294 -0.1190
19039W        W32453   2.138   9.757   4.939  0.0792 -0.0165  0.1005
19040W        W32454   3.938   6.361   0.150 -0.2467  0.0991  0.2476
19041W        W32455  14.558   0.903  16.160 -0.0237  0.4209 -0.2561
19042W        W32456  11.255   6.920  12.607  0.1386  0.0015  0.0859
19043W        W32457   1.103   8.754   2.688 -0.3581 -0.1197 -0.0238
19044W        W32458   0.065   1.369   0.770  0.1147 -0.1179  0.3303
19045W        W32459   9.545   2.707   1.045 -0.2637  0.1274  0.0245
19046W        W32460  14.731   6.591  14.055  0.4284  0.1262  0.0388
19047W        W32461   0.658   7.105   5.751  0.1797  0.2046  0.0199
19048W        W32462   2.914   2.812  13.592 -0.2573 -0.2837  0.1745
19049W        W32463   6.887  11.806   4.041 -0.1857  0.1716  0.0295
19050W        W32464   9.632   9.537   0.187  0.0426  0.1064  0.0352
19051W        W32465   4.754   8.049   2.576  0.1546  0.1474  0.0356
19052W        W32466  11.369   1.783  13.493 -0.1294 -0.0118 -0.1357
19053W        W32467   8.380   6.809  15.288  0.1966  0.3033 -0.0399
19054W        W32468  14.254   4.261   6.412  0.0369  0.1569 -0.0278
19055W        W32469   7.217   1.065   3.667 -0.0940 -0.1213  0.0788
19056W        W32470  15.647   2.053  13.626 -0.0462  0.1018  0.2468
19057W        W32471   7.436   1.921  11.761  0.2282 -0.0550  0.0727
19058W        W32472   3.404   0.971  13.306  0.2767  0.1495 -0.1859
19059W        W32473  10.035  12.261  14.868 -0.0707  0.0907  0.2800
19060W        W32474  11.875   3.249  15.868  0.2364  0.1104  0.1671
19061W        W32475  14.709   9.682  11.593  0.1858  0.1876  0.0249
19062W        W32476  16.462  11.913   0.758  0.2974  0.1195  0.1186
19063W        W32477  11.374   8.996   4.150 -0.0461  0.1516 -0.2263
19064W        W32478   6.180   4.295  11.466 -0.0263 -0.1083 -0.0616
19065W        W32479   9.439  14.472  15.718  0.0611 -0.1422 -0.0099
19066W        W32480  13.613   8.377   2.295  0.0621 -0.0481 -0.0049
19067W        W32481  10.124   7.797   4.427 -0.1303 -0.2435 -0.1077
19068W        W32482  15.400  10.935   5.572 -0.1682 -0.1649 -0.0590
19069W        W32483   1.539   9.599   5.748 -0.2250  0.2463  0.0808
19070W        W32484   3.548   7.119  12.140 -0.1105 -0.3709 -0.1344
19071W        W32485   9.725   7.382  12.583 -0.0806 -0.0355 -0.0779
19072W        W32486  14.378  13.802   3.292  0.1300  0.0499 -0.2487
19073W        W32487   9.717  11.965  14.365 -0.2683  0.0963  0.0483
19074W        W32488  15.366   1.052  11.706  0.0464  0.1178 -0.3475
19075W        W32489  11.304  15.169  14.305 -0.0550 -0.1643  0.0029
19076W        W32490   0.958  16.352  13.008 -0.0182 -0.2590  0.0099
19077W        W32491  16.631   3.209   5.336  0.0994 -0.1725  0.2341
19078W        W32492   9.400  16.795  16.226 -0.1082 -0.1123 -0.2728
19079W        W32493   2.916   2.260  12.503 -0.1329  0.2761 -0.1040
19080W        W32494  11.848  15.969   0.988  0.1537  0.2428  0.0256
19081W        W32495   2.948   4.786  16.383 -0.2224 -0.1266  0.0854
19082W        W32496   8.063   3.201  12.038  0.2931 -0.0370 -0.0843
19083W        W32497   8.566  17.734   0.912 -0.2178 -0.3634 -0.1698
19084W        W32498  13.403  13.459   1.177 -0.1292 -0.3637 -0.1210
19085W        W32499   4.552   4.774   2.486  0.0817 -0.0832  0.0543
19086W        W32500  11.757   8.131   1.391  0.0142  0.1048 -0.1690
19087W        W32501   0.295   5.835   3.004 -0.0431 -0.0176  0.0046
19088W        W32502  15.696   2.728   4.058 -0.1777 -0.0178 -0.1520
19089W        W32503  10.310  17.975   6.349 -0.3026 -0.2252 -0.0333
19090W        W32504  15.163   9.622   2.053 -0.0953  0.1270 -0.0274
19091W        W32505  17.447  14.874   5.779 -0.0144 -0.0622  0.0888
19092W        W32506   7.971  15.032   3.735 -0.1182  0.0803 -0.2103
19093W        W32507  17.815  11.726   2.541 -0.0142 -0.3057  0.2700
19094W        W32508  12.672  15.603   1.429  0.0252  0.2286  0.1144
19095W        W32509  12.511   7.623   5.160  0.0776  0.1502 -0.0130
19096W        W32510   5.428   6.546  15.991 -0.0975 -0.2204  0.3340
19097W        W32511  17.420  14.336  11.411  0.1773 -0.4933  0.0927
19098W        W32512  17.658  15.403   1.719  0.0222 -0.2083 -0.1598
19099W        W32513  17.863   9.081   1.899 -0.0451  0.2403  0.1660
19100W        W32514   9.444   6.481   5.413  0.0232 -0.3175 -0.0385
19101W        W32515   8.752   2.466  16.589 -0.1214 -0.0570 -0.1455
19102W        W32516   1.597  15.208  14.436 -0.0208 -0.2135 -0.0882
19103W        W32517   3.550   7.252  11.518  0.1909 -0.1564  0.1777
19104W        W32518  17.458   0.866   1.092 -0.3005 -0.0735 -0.0063
19105W        W32519  14.226  17.377   0.525 -0.2407 -0.2084  0.2564
19106W        W32520   3.797   0.725  11.687 -0.1287  0.1168  0.0598
19107W        W32521   1.190   6.071   3.232  0.3139 -0.1248  0.1159
19108W        W32522  13.980   7.572  15.024  0.1931 -0.2793 -0.0191
19109W        W32523   3.407  13.870  12.540 -0.1637  0.2741  0.2709
19110W        W32524   8.675   0.269   2.271 -0.3879 -0.2446  0.0583
19111W        W32525   7.668  15.623   5.111 -0.2457 -0.1709 -0.3692
19112W        W32526  16.106   5.156   4.284  0.0260  0.1718 -0.0171
19113W        W32527   5.470  17.641  15.854  0.0888 -0.2787 -0.1264
19114W        W32528  14.579  14.024  13.843  0.1008 -0.0664 -0.0706
19115W        W32529   9.365   4.878  11.060  0.0871 -0.1179 -0.1131
19116W        W32530   5.149   2.983   5.532  0.0107 -0.1726  0.0449
19117W        W32531  11.562  17.417   0.775  0.1558  0.2552  0.1448
19118W        W32532  15.421  16.576   2.744  0.1878 -0.0737  0.0022
19119W        W32533   4.723  12.890  14.665  0.1536  0.1482  0.0739
19120W        W32534  10.814  13.225  15.258  0.1683 -0.3341 -0.1163
19121W        W32535  17.776   1.855  15.542  0.1266 -0.1862  0.3646
19122W        W32536   0.106   4.950   0.501 -0.1848 -0.0962 -0.2040
19123W        W32537  12.203  14.972   0.243  0.0792 -0.2269 -0.1752
19124W        W32538   3.707  17.185  14.465 -0.0574  0.2915  0.0316
19125W        W32539   2.512  12.149  12.098 -0.2408 -0.1296  0.0226
19126W        W32540  14.296   2.748   1.707 -0.1139  0.0229  0.0750
19127W        W32541  13.210   9.451  11.572 -0.0679  0.0249 -0.1506
19128W        W32542  16.472  12.441  14.746  0.3490  0.1169 -0.2110
19129W        W32543  12.300  15.524   4.572 -0.3473 -0.0014 -0.0880
19130W        W32544  15.341   2.762   0.502  0.0315 -0.1182  0.2736
19131W        W32545  17.865  10.268   6.365  0.1086  0.2812 -0.1251
19132W        W32546   9.420  16.360   1.340  0.0440 -0.0458 -0.1596
19133W        W32547   9.772  10.464   3.965  0.1658  0.1559 -0.1419
19134W        W32548   4.785  15.724  11.231 -0.2117  0.1468 -0.1607
19135W        W32549  16.748  12.383   0.899  0.0050 -0.4076  0.0880
19136W        W32550   0.882  15.454   1.175 -0.2095  0.0092 -0.2222
19137W        W32551  17.778  13.102  13.876 -0.1323 -0.0822  0.0790
19138W        W32552  11.405   3.345  12.977 -0.0961  0.1076  0.0479
19139W        W32553  13.532  15.275   5.436 -0.2954 -0.6323  0.1950
19140W        W32554   4.408  16.073   4.086  0.2579 -0.2110  0.0482
19141W        W32555  12.839   7.284   0.201  0.0852 -0.0127  0.3658
19142W        W32556  13.158   2.728   3.520 -0.2743  0.2495  0.0147
19143W        W32557   4.290   3.419  10.770 -0.2619 -0.3654 -0.1284
19144W        W32558  14.933  16.814   3.959 -0.2296  0.0379 -0.1550
19145W        W32559  14.103  13.930   4.679 -0.0829 -0.0490 -0.2907
19146W        W32560   4.065   9.912  11.643 -0.1272  0.0685 -0.2007
19147W        W32561   0.929  16.161   3.215 -0.1377 -0.2191  0.1697
19148W        W32562  15.738   8.033  16.272 -0.1719  0.1867  0.0374
19149W        W32563   1.787  13.729   5.428  0.0233  0.1172 -0.0454
19150W        W32564   3.898   2.088  15.598 -0.1635  0.1086 -0.1256
19151W        W32565  17.939  17.042  10.818 -0.1618  0.1026 -0.1839
19152W        W32566   8.102   4.663  12.163  0.3482  0.1463 -0.1767
19153W        W32567   5.176   9.381   1.580 -0.3352  0.1117 -0.0368
19154W        W32568   1.434   1.349   3.212  0.0739  0.0048  0.0801
19155W        W32569  17.945  17.042  13.653 -0.0290  0.0093 -0.0727
19156W        W32570  12.461  15.476  14.781 -0.2178  0.1664 -0.2492
19157W        W32571   6.128  11.239  16.549 -0.1418 -0.1190  0.2028
19158W        W32572  16.788   7.422   0.184 -0.1723 -0.3632  0.0363
19159W        W32573  17.726   7.727   4.130  0.1703  0.1525  0.1507
19160W        W32574  11.439  14.759   0.786 -0.0300 -0.2147 -0.0650
19161W        W32575   1.004   8.759  13.381  0.1981  0.1376  0.0492
19162W        W32576  15.271  14.276  11.416 -0.2740 -0.1175  0.0555
19163W        W32577  12.415   4.584  12.217 -0.0648  0.2484  0.0306
19164W        W32578   9.184   1.761  13.248  0.0792 -0.3682 -0.0331
19165W        W32579   7.566   2.155   4.683 -0.0752 -0.2009 -0.1703
19166W        W32580   7.601   2.165  16.690 -0.1810 -0.0160 -0.1514
19167W        W32581   3.396  11.841   1.690  0.0195 -0.0141  0.0107
19168W        W32582  13.793   7.021   0.503  0.0561  0.0027  0.2645
19169W        W32583   4.956   7.218   6.851  0.1303 -0.1588 -0.0989
19170W        W32584  11.120  13.554  15.716  0.0127  0.0239  0.3392
19171W        W32585   1.957   2.211  13.605  0.1995 -0.0600  0.1341
19172W        W32586   0.629   0.565   5.962  0.2848 -0.0856 -0.1461
19173W        W32587  13.582  12.173   4.833  0.2261  0.1439  0.1308
19174W        W32588  13.778   5.931   7.170  0.0812  0.1970  0.1247
19175W        W32589  16.691   5.430  14.920 -0.1411 -0.0947  0.2401
19176W        W32590   8.484   6.484   0.446  0.0036 -0.1540  0.0215
19177W        W32591   1.440   9.192   2.774 -0.0637 -0.0766  0.1625
19178W        W32592  11.714   1.504   0.518  0.1281 -0.0995 -0.1723
19179W        W32593  15.195   8.883  16.074 -0.0296 -0.0195 -0.1118
19180W        W32594  12.163   8.518  11.867 -0.3867 -0.0190 -0.0016
19181W        W32595   1.561   2.502   5.085 -0.1490 -0.1276  0.0702
19182W        W32596   6.911   2.494  15.136 -0.1769 -0.1088  0.1445
19183W        W32597   7.698  10.572   5.943  0.0214 -0.0631  0.1992
19184W        W32598  12.506  10.580   4.950 -0.2445  0.0699 -0.0782
19185W        W32599   1.539   7.650  12.281  0.0748  0.1384 -0.2084
19186W        W32600   5.358  15.054   0.171  0.1596  0.2200  0.1729
19187W        W32601   3.907   2.779   2.261 -0.0632 -0.4620  0.1303
19188W        W32602  14.306   0.505   0.656 -0.1017 -0.1499 -0.1049
19189W        W32603   4.229  11.220  11.977  0.1426  0.1429 -0.4580
19190W        W32604  10.529  17.608   0.091 -0.0763  0.0835 -0.2191
19191W        W32605   9.548  13.602   1.874 -0.1026  0.2567 -0.1725
19192W        W32606   8.183   7.322  10.196  0.0668 -0.0334 -0.0561
19193W        W32607  12.259   4.023  13.864  0.1033  0.3077  0.0420
19194W        W32608  15.142  13.725  13.065  0.0334  0.0651 -0.1151
19195W        W32609   6.041   5.738   1.409 -0.1395 -0.1863  0.3005
19196W        W32610  10.148  14.521   0.889 -0.1370  0.1366 -0.1008
19197W        W32611   4.473  15.246   0.272  0.0634  0.2645  0.0541
19198W        W32612  10.522   8.956  15.214  0.0202  0.2705 -0.0841
19199W        W32613  12.886  11.244  12.557 -0.0715  0.0383 -0.1339
19200W        W32614  14.951  14.181  14.242  0.0105  0.2406  0.0812
19201W        W32615   8.660  11.665   3.135 -0.1959  0.0802  0.0652
19202W        W32616  14.830   7.298   0.180 -0.1902  0.0137  0.3875
19203W        W32617   5.628  12.998  16.329  0.1099  0.1824 -0.0834
19204W        W32618   1.974  12.612   4.547 -0.3219  0.2277  0.0177
19205W        W32619  11.014   7.614   3.026 -0.1286 -0.1019  0.1752
19206W        W32620  17.976   6.939  14.046 -0.0642 -0.2532  0.2241
19207W        W32621  11.239  10.356   1.117 -0.0986 -0.2215  0.2266
19208W        W32622  13.221  16.948  13.561 -0.0061  0.1999 -0.2025
19209W        W32623   6.813   3.982   0.133 -0.0384 -0.0312 -0.0422
19210W        W32624   4.843   5.112   0.663  0.0018 -0.1726  0.2888
19211W        W32625  13.947  15.422   3.239  0.1803  0.1245 -0.2405
19212W        W32626  11.813   6.962  12.643 -0.1073  0.0050  0.4877
19213W        W32627  15.676   3.185  16.018  0.1592 -0.1349 -0.0346
19214W        W32628  11.440  16.580   1.544  0.2457 -0.0742 -0.1916
19215W        W32629   7.946  15.052  13.162  0.0096  0.0786 -0.0458
19216W        W32630   6.586   2.309   4.643  0.0068 -0.3597 -0.0634
19217W        W32631   0.666   1.379  13.863  0.0432 -0.1005  0.1387
19218W        W32632   2.688   6.993  15.827 -0.1479  0.2235  0.1693
19219W        W32633  14.383  15.820   2.184 -0.1613  0.3888  0.1602
19220W        W32634  17.442   9.996   3.008 -0.2075  0.0211 -0.0468
19221W        W32635  15.284  14.694  14.623 -0.2465 -0.1025 -0.1826
19222W        W32636  10.984   9.533  15.799  0.0142  0.0608  0.1667
19223W        W32637   3.133   6.839   3.666  0.0471 -0.0713  0.0529
19224W        W32638  10.279   2.962  16.090  0.0817 -0.0803 -0.0740
19225W        W32639   7.095  15.356   4.944 -0.0497 -0.1700 -0.2930
19226W        W32640  14.523  14.088   2.879 -0.0600 -0.1176  0.2261
19227W        W32641  15.493   4.107   3.444  0.1656  0.2136  0.0673
19228W        W32642  15.479   0.799  16.145  0.3899 -0.0891  0.1522
19229W        W32643  12.449  11.950  14.494  0.0795 -0.1270  0.0795
19230W        W32644   3.902   7.957  11.779 -0.1027 -0.3087 -0.1825
19231W        W32645  16.546   7.466  15.847 -0.3545  0.3490  0.1140
19232W        W32646   7.277   4.002   3.001 -0.0228 -0.0313  0.1123
19233W        W32647  11.160   3.343   2.256  0.1324  0.0207 -0.0013
19234W        W32648   3.766  15.716   4.224 -0.1320  0.1544 -0.2170
19235W        W32649   5.894   1.159   4.352  0.1484 -0.1897 -0.0903
19236W        W32650   9.978  17.923   5.796 -0.1836 -0.0590 -0.0303
19237W        W32651   8.476  13.136  14.806  0.0553 -0.0559  0.2253
19238W        W32652   7.953   5.355  16.034  0.0226 -0.0849  0.1114
19239W        W32653   7.200  14.517  13.094  0.0610  0.0512  0.0822
19240W        W32654   4.485  14.368   3.017 -0.1515 -0.0848 -0.0005
19241W        W32655   2.880  16.830  15.511 -0.1627 -0.0733  0.2169
19242W        W32656  16.265   4.080  13.764 -0.1910  0.0233  0.2406
19243W        W32657   1.532   8.249   2.591  0.0879  0.2346 -0.3113
19244W        W32658   6.810   8.634  12.968 -0.0956  0.2235  0.3522
19245W        W32659   5.538   7.310  13.073 -0.0360 -0.1037 -0.3437
19246W        W32660  16.415   6.666   6.870 -0.2535  0.0206  0.0239
19247W        W32661  11.820   7.560  12.035 -0.2463  0.0292  0.0459
19248W        W32662   0.514   2.180  12.499 -0.0243  0.2462 -0.2111
19249W        W32663  17.372   9.231   1.812 -0.1906 -0.2172  0.1043
19250W        W32664  10.968   0.594   0.599 -0.2196  0.1780  0.0771
19251W        W32665   9.365  10.711  10.942 -0.2003 -0.1700 -0.3241
19252W        W32666   6.384   6.894  11.191  0.1700 -0.1444 -0.0510
19253W        W32667  15.574   5.666   2.873  0.0264 -0.0822 -0.0858
19254W        W32668   5.662  15.260   2.156  0.1895 -0.0456  0.1825
19255W        W32669   7.696   7.841  14.844  0.2595  0.3370 -0.0697
19256W        W32670   1.430   7.625   1.609  0.3908  0.2155 -0.2476
19257W        W32671   2.097  15.590  11.142 -0.0161 -0.2453 -0.1315
19258W        W32672   0.156  13.535   0.325 -0.2015 -0.3052  0.2180
19259W        W32673  17.333   2.962  14.862  0.0793  0.0329  0.1282
19260W        W32674  11.012   3.502   2.735  0.2353  0.0115 -0.1522
19261W        W32675  15.144  12.767  10.876  0.0420 -0.2221 -0.0813
19262W        W32676  17.135  17.770   4.028 -0.1043 -0.2078  0.0583
19263W        W32677  14.334   8.906   4.617 -0.2089 -0.0700 -0.1001
19264W        W32678  11.334   0.017  13.610  0.1481  0.2350  0.0342
19265W        W32679   2.083   6.941   4.638  0.2360 -0.0539  0.3396
19266W        W32680   7.653   1.616   1.800 -0.1389  0.0334 -0.0165
19267W        W32681  10.699  11.751   0.148  0.2941  0.0365  0.0031
19268W        W32682  11.250  14.748   5.288 -0.0236 -0.0856  0.0634
19269W        W32683  16.852   8.144   1.504  0.0550  0.1312 -0.1689
19270W        W32684   0.383  17.725  13.921 -0.1162 -0.1733  0.3432
19271W        W32685  13.245   0.830  12.337  0.2818  0.0198  0.2101
19272W        W32686   2.421  16.620   6.424  0.0508 -0.4031 -0.1047
19273W        W32687   9.884  10.929  13.992  0.1144  0.0287 -0.1206
19274W        W32688   4.598  14.410  14.817  0.2599  0.1214  0.0299
19275W        W32689  12.452   4.856  13.606  0.1203 -0.1357  0.1571
19276W        W32690  15.690   8.866  12.274 -0.2546  0.0398 -0.0535
19277W        W32691  11.015  15.154  15.069 -0.1441  0.1189  0.0917
19278W        W32692   4.774  16.057   0.283 -0.1604 -0.0148  0.0422
19279W        W32693   4.644  13.919  14.783  0.2773 -0.2641 -0.1299
19280W        W32694   6.588   4.300   0.839 -0.0254  0.0311  0.0326
19281W        W32695  13.596   5.622   5.302  0.1614 -0.2438  0.3002
19282W        W32696   0.735  11.324   1.603 -0.0724 -0.0065 -0.1560
19283W        W32697   7.988   2.839   4.408 -0.0856  0.0043  0.0586
19284W        W32698  12.342   3.097  14.239 -0.0478 -0.0923  0.0554
19285W        W32699   2.563  15.374  14.022 -0.3917  0.0085  0.0143
19286W        W32700  15.969   9.208  13.359  0.1195 -0.1162 -0.0092
19287W        W32701   9.941   3.269  13.672  0.0656  0.1078 -0.1896
19288W        W32702   4.680   6.477   0.055 -0.3686 -0.2575  0.0434
19289W        W32703   4.148   7.426   4.302 -0.1454 -0.0211 -0.0237
19290W        W32704  12.415   2.281   5.067 -0.3286  0.0293 -0.0288
19291W        W32705   9.972   4.217  10.598 -0.1901  0.2478 -0.2951
19292W        W32706  12.644  15.926  14.947 -0.1156 -0.0370  0.0924
19293W        W32707   2.975   1.439  16.349  0.0040 -0.1320 -0.0389
19294W        W32708  15.208  15.161   4.304  0.0763  0.4526  0.1528
19295W        W32709   0.204   0.533  11.666 -0.1350  0.1669  0.0377
19296W        W32710   5.694  10.709  15.713 -0.0276 -0.1866 -0.0795
19297W        W32711  15.666  12.363  13.308 -0.2811  0.1628  0.1215
19298W        W32712  14.016  10.804  16.159  0.0794 -0.0764  0.2393
19299W        W32713   1.351   6.571  16.037 -0.1016  0.0404  0.1647
19300W        W32714   8.423  16.355   2.738  0.1326  0.0773 -0.0980
19301W        W32715  13.256  11.382  10.180 -0.1013 -0.1691  0.0369
19302W        W32716  17.511   6.343   5.397  0.0078 -0.0834 -0.1651
19303W        W32717   7.403   5.788  10.316 -0.0674  0.3879  0.0951
19304W        W32718   9.317   5.960   5.437 -0.3677 -0.0147  0.3790
19305W        W32719   2.342   4.610   6.656 -0.0935 -0.2098 -0.1149
19306W        W32720   4.180  11.764   1.118  0.0575 -0.0562 -0.1577
19307W        W32721   8.984  11.445  14.218 -0.0151 -0.1615 -0.0183
19308W        W32722   0.850  15.525  15.097 -0.2606 -0.0752 -0.0816
19309W        W32723  15.664  10.236  12.358  0.0126  0.0557  0.2620
19310W        W32724  11.156   7.524  16.700 -0.1378 -0.1026  0.1367
19311W        W32725   9.402   0.811  16.170  0.2812  0.1434 -0.1724
19312W        W32726  17.921   3.728   2.187  0.3043  0.1650 -0.1708
19313W        W32727  10.723   4.272   3.137 -0.1902 -0.1811  0.1882
19314W        W32728   1.921   3.230   0.501 -0.2290 -0.0287 -0.2509
19315W        W32729  10.278  17.985  16.609  0.1441 -0.0264  0.0303
19316W        W32730   0.493  16.244   5.874 -0.1273  0.0217  0.4083
19317W        W32731   0.332   4.386  16.127  0.2479  0.1167  0.3447
19318W        W32732   4.607   3.054  14.480  0.0089 -0.0425  0.0925
19319W        W32733   5.023   4.075  14.361  0.0045  0.1353  0.1274
19320W        W32734  12.506   8.631  14.976 -0.0475  0.3010 -0.0151
19321W        W32735   5.087   5.376   5.630 -0.0998  0.3074  0.0164
19322W        W32736   0.288   4.783  11.261 -0.0455 -0.0307  0.2028
19323W        W32737  13.424  17.247  11.080  0.0038  0.2524 -0.1203
19324W        W32738  15.288   4.564  15.593 -0.2146  0.0136  0.0976
19325W        W32739  15.620   9.632   3.445  0.2372 -0.0727 -0.3772
19326W        W32740  18.028   9.112  12.662 -0.0449 -0.0381  0.2063
19327W        W32741   0.485   2.957   0.971  0.1212  0.1267  0.0766
19328W        W32742   6.036  16.047  11.835 -0.0412  0.1041  0.3117
19329W        W32743  10.071   6.141   1.703 -0.0870  0.0351 -0.2064
19330W        W32744  17.412  17.358   1.795 -0.1028 -0.1801 -0.0361
19331W        W32745   4.305   3.273   2.929 -0.2644  0.0461  0.2341
19332W        W32746   2.513  11.600   3.874 -0.1656  0.1751 -0.0981
19333W        W32747  15.927   2.309   2.333  0.0437  0.0975 -0.1277
19334W        W32748   2.572  16.970   5.578  0.0612 -0.1425  0.2856
19335W        W32749  13.523   3.053  15.859 -0.0506 -0.0711 -0.0076
19336W        W32750   5.119   7.089  16.398 -0.1865 -0.1234  0.1371
19337W        W32751   8.518   1.996   4.582 -0.0541  0.0974  0.1617
19338W        W32752   9.404   4.624   5.187 -0.0276  0.3315  0.1777
19339W        W32753  11.241   7.593  15.812  0.0841 -0.0594  0.1568
19340W        W32754   0.907   8.713  14.643  0.0391  0.1740 -0.2211
19341W        W32755  17.220   0.799  11.887  0.0894  0.2672 -0.2664
19342W        W32756  14.843  11.235  13.044 -0.0151 -0.1194 -0.1254
19343W        W32757   1.823   3.592  15.960 -0.1160 -0.1621  0.0492
19344W        W32758  13.839   2.006   0.350  0.2283 -0.4893  0.1189
19345W        W32759   8.829   7.525   0.122 -0.0138  0.0784  0.1541
19346W        W32760  18.044  14.687  16.280 -0.1382  0.0969 -0.2520
19347W        W32761   0.501  16.406   1.475  0.0220  0.1124  0.0186
19348W        W32762   7.247  13.023  14.932 -0.0005  0.3532 -0.0098
19349W        W32763  16.018  16.912  14.425  0.1604  0.2000 -0.1857
19350W        W32764  14.490  10.828  15.233 -0.1053 -0.1261  0.0733
19351W        W32765   6.833  16.581   5.850  0.2657 -0.1799 -0.0424
19352W        W32766   0.308   0.672  13.822  0.1260  0.2518 -0.4093
19353W        W32767   5.756   4.713  15.099  0.0782  0.1269 -0.2403
19354W        W32768   6.187   8.044  16.311 -0.0255  0.2756  0.2713
19355W        W32769   7.868   0.492   0.736 -0.2103 -0.0514 -0.0262
19356W        W32770   9.076   9.234  14.201 -0.1528 -0.1021 -0.2002
19357W        W32771  17.412  18.014   6.365 -0.3288  0.0821 -0.3903
19358W        W32772  15.293  10.628   1.013  0.0961 -0.0128  0.0758
19359W        W32773   4.024   3.567  13.328 -0.1488  0.3990 -0.0511
19360W        W32774  14.653  15.927  15.301 -0.1509 -0.0753 -0.1006
19361W        W32775   4.269  11.633   0.152  0.0529 -0.1264  0.1570
19362W        W32776  16.841  11.090  13.068 -0.0445 -0.1108  0.1153
19363W        W32777   6.558   3.349  14.958  0.3581  0.0849 -0.1490
19364W        W32778   5.921   8.354  15.950 -0.1698  0.1270  0.0354
19365W        W32779   4.359   8.288   0.233  0.0735 -0.0988  0.2757
19366W        W32780   0.548   8.352   1.024 -0.0544 -0.0012 -0.0475
19367W        W32781  10.986   7.941   3.398  0.1064  0.1251 -0.0369
19368W        W32782   4.096  16.541   4.188  0.1967 -0.1492 -0.0441
19369W        W32783  14.807  15.940   3.127 -0.1155  0.0435 -0.1137
19370W        W32784   2.258  17.330  14.743 -0.1368  0.0739  0.0131
19371W        W32785  14.214   7.809  11.239 -0.0518 -0.0189 -0.4351
19372W        W32786   5.032   0.403  16.416 -0.1226 -0.1631 -0.0427
19373W        W32787   3.183  17.973   0.792  0.1576  0.1345 -0.0630
19374W        W32788   0.261   7.321  14.210 -0.3438 -0.1260 -0.0284
19375W        W32789   0.733   9.945  13.394  0.1520 -0.0363 -0.1493
19376W        W32790   4.604   9.302  14.570  0.2697 -0.0589  0.0143
19377W        W32791  15.803   2.124   2.814  0.0461 -0.1420 -0.2222
19378W        W32792   7.104  10.648  15.839  0.0512 -0.1345  0.1974
19379W        W32793  17.845  10.153   4.444  0.0003 -0.0932  0.2843
19380W        W32794  13.443  13.037   2.209  0.0541  0.2802  0.0268
19381W        W32795  10.229  11.797  14.803 -0.2108  0.0796 -0.1470
19382W        W32796   2.254   7.232  15.807 -0.0582  0.0036 -0.2389
19383W        W32797  10.767  16.579  10.920  0.0762 -0.0983  0.1306
19384W        W32798  11.532  16.193  11.373 -0.1559 -0.1181 -0.0368
19385W        W32799   5.578   5.220  11.202  0.0309 -0.0269 -0.1124
19386W        W32800   3.795  10.606   0.706 -0.1987  0.2269  0.3628
19387W        W32801   3.281   5.574  14.324 -0.0465  0.1351 -0.0793
19388W        W32802   3.508   5.883  16.101  0.1224 -0.0281 -0.0773
19389W        W32803  13.454   2.318  16.258  0.3468 -0.3299  0.2693
19390W        W32804   5.871   6.890  11.007  0.0927 -0.1660  0.1594
19391W        W32805   4.576  11.395   5.913  0.2380 -0.0507  0.0448
19392W        W32806   3.595   4.916  13.497  0.1079  0.2476 -0.1149
19393W        W32807   5.893   6.791  12.055 -0.3553  0.0465  0.1740
19394W        W32808  17.220  13.737   0.746 -0.1109 -0.2131  0.3059
19395W        W32809   9.179   4.895  16.625 -0.1342 -0.2288  0.0712
19396W        W32810   8.782   2.627  14.922  0.4078  0.2964 -0.1536
19397W        W32811   7.625  12.150  14.775  0.2808  0.2764  0.0355
19398W        W32812  15.568  16.468  12.265 -0.1745 -0.0681  0.2993
19399W        W32813   9.618   1.329  10.934  0.1756  0.1512 -0.1470
19400W        W32814   8.855   9.974  14.334  0.2605  0.2915  0.3380
19401W        W32815  16.747  10.932  15.352 -0.1492  0.0129  0.2922
19402W        W32816   0.722   6.969   1.766  0.0132 -0.2206 -0.2111
19403W        W32817  14.393  15.547  13.785 -0.0457 -0.1579 -0.3792
19404W        W32818  15.636   1.747   3.228 -0.2278  0.1462 -0.0693
19405W        W32819   2.520   4.168  16.230 -0.1072 -0.2022  0.0968
19406W        W32820  15.659   7.338  16.535 -0.0845  0.1330 -0.2213
19407W        W32821   4.444   0.363   2.404  0.3322 -0.0130 -0.2060
19408W        W32822  17.567  11.957  12.080 -0.2709 -0.3160 -0.1564
19409W        W32823   3.675  15.961  13.070  0.1227 -0.0820  0.0103
19410W        W32824   6.842  11.887  12.010  0.0703 -0.0278 -0.1682
19411W        W32825   1.803   3.805   1.806 -0.0667 -0.2152 -0.1068
19412W        W32826   5.738   6.566  13.110 -0.2527 -0.0844  0.0898
19413W        W32827   5.314  10.914  12.639  0.0034  0.4080 -0.1735
19414W        W32828  12.434   9.825  13.339  0.3177  0.2322 -0.0927
19415W        W32829  12.851   0.455  10.852  0.1390  0.1431  0.4281
19416W        W32830  12.712   9.132   1.538  0.1656 -0.2933  0.0009
19417W        W32831   6.187  17.212  14.234 -0.1529  0.2510 -0.2337
19418W        W32832  11.721   8.952  15.834 -0.0577  0.1578 -0.1688
19419W        W32833  16.681   2.130  13.574  0.0531 -0.3004  0.0760
19420W        W32834  12.900  11.676   3.610  0.0183  0.0830  0.2365
19421W        W32835   2.173   2.186  14.664 -0.0755 -0.2031  0.0153
19422W        W32836  11.010   1.174   0.085  0.0078 -0.2291  0.0498
19423W        W32837  14.687   7.747  12.282 -0.3444 -0.0593 -0.0675
19424W        W32838  14.782  16.519   2.406 -0.0952  0.1125  0.0918
19425W        W32839   3.501   2.109  16.180  0.1899 -0.0622  0.1904
19426W        W32840  16.931  14.379  11.650  0.2718  0.2887 -0.0171
19427W        W32841  14.196   9.587  11.246 -0.0700  0.1693  0.0492
19428W        W32842   6.947   1.483   2.013 -0.0324  0.0856 -0.0882
19429W        W32843   5.217   7.225   1.274 -0.0202  0.1190 -0.1430
19430W        W32844  16.769   7.002  11.422 -0.1436  0.2794  0.1063
19431W        W32845   1.425   5.376   1.111  0.2442  0.2520 -0.0872
19432W        W32846  10.484   3.994  12.425 -0.2041  0.0788 -0.0376
19433W        W32847  18.005   8.648  15.212  0.0621  0.0244 -0.0347
19434W        W32848  11.776   1.006   6.256 -0.2532 -0.1345  0.0483
19435W        W32849  16.608  15.032  10.597 -0.2555 -0.0858 -0.1104
19436W        W32850   6.232   6.160   2.915 -0.0249  0.1601  0.2740
19437W        W32851   2.165   9.618   2.561  0.2006  0.0031 -0.1099
19438W        W32852   5.788  17.863   0.939 -0.1677  0.1267  0.2230
19439W        W32853   6.209   4.012   5.017  0.0321  0.4974  0.1330
19440W        W32854   8.826  10.912   4.264 -0.1116  0.0014  0.2238
19441W        W32855   9.413   7.863  11.840  0.2525 -0.0317  0.0969
19442W        W32856  12.585   5.031  11.284  0.2761  0.0939 -0.0007
19443W        W32857  13.135  15.837  13.509  0.0754 -0.1561 -0.0298
19444W        W32858   6.551  16.943  11.054 -0.2557  0.1116 -0.1363
19445W        W32859   3.894   2.754   5.077  0.3190 -0.2913  0.4615
19446W        W32860   9.337   6.980  14.450  0.0631  0.0276 -0.0956
19447W        W32861   5.657   9.290  15.578 -0.2663  0.2040  0.0732
19448W        W32862  11.829   9.625  11.058  0.0380 -0.2211  0.4421
19449W        W32863  15.032  12.866   4.739  0.2432  0.0453 -0.0258
19450W        W32864   1.415  16.313  12.269 -0.1670  0.0572  0.0332
19451W        W32865  16.429  16.781   5.630 -0.2021 -0.1511  0.1955
19452W        W32866  17.365   7.697   6.673 -0.1653 -0.1935 -0.5795
19453W        W32867   6.377   9.330  11.318 -0.0338 -0.0161  0.0390
19454W        W32868   3.380   3.287  16.643  0.0776 -0.0722  0.3944
19455W        W32869   5.071  15.411   2.569 -0.1553 -0.2038  0.0310
19456W        W32870   5.842   8.714   5.783  0.3179  0.2002 -0.2060
19457W        W32871  12.793   5.660   6.176  0.1661  0.0607  0.2217
19458W        W32872  17.077  16.113  12.620 -0.1037 -0.1262  0.1221
19459W        W32873   5.318  17.887  12.198  0.1672 -0.2797 -0.0168
19460W        W32874  17.705  12.637  16.279  0.1011 -0.3511 -0.1097
19461W        W32875  17.409  13.672   2.849 -0.2226 -0.3636 -0.0831
19462W        W32876   1.470   5.540  15.563 -0.0447  0.1480 -0.1931
19463W        W32877  13.796  12.985   1.818  0.0696 -0.1946  0.0859
19464W        W32878  16.872   2.074  11.085  0.2424  0.0081 -0.2863
19465W        W32879   2.312   7.142  12.143  0.0093  0.1244  0.1822
19466W        W32880  12.581   2.915  12.056 -0.2288  0.1761  0.1955
19467W        W32881  17.774  11.806  11.631 -0.0807 -0.1203 -0.0490
19468W        W32882   0.289   5.752   4.508 -0.3486 -0.1643  0.0814
19469W        W32883   1.226   3.924   6.937 -0.0297 -0.0520  0.4041
19470W        W32884   2.945   2.624  14.079 -0.0420  0.0703  0.1469
19471W        W32885  10.919   3.230   0.810  0.1425  0.2535 -0.0281
19472W        W32886  16.898  10.248  16.516 -0.4167  0.3986  0.0591
19473W        W32887   9.157   7.322   1.908 -0.0321  0.1422 -0.2097
19474W        W32888   5.294   9.130  13.123  0.1333  0.0524  0.1138
19475W        W32889  11.625   5.091  16.396 -0.1393  0.3720 -0.0150
19476W        W32890   0.195  11.143  11.100 -0.0056 -0.3148  0.1034
19477W        W32891  12.630  14.608  12.597  0.4431  0.0783  0.0447
19478W        W32892   7.615  13.705   0.794 -0.4009 -0.3176  0.2395
19479W        W32893  13.864   7.535  14.213 -0.0598  0.0108  0.1161
19480W        W32894   8.383  11.590  14.346 -0.1505 -0.0902  0.1496
19481W        W32895  15.144   9.231   4.718  0.1745  0.0023 -0.0904
19482W        W32896   4.061  11.696  14.303 -0.0506 -0.0202  0.0376
19483W        W32897   3.125  15.570   4.775 -0.0287 -0.4044  0.0712
19484W        W32898  12.462  17.597  15.769  0.2771  0.4115 -0.0935
19485W        W32899   7.160   6.792   2.465  0.0791 -0.0996  0.1279
19486W        W32900  16.587   6.128  15.359  0.1875  0.3780  0.0065
19487W        W32901   4.279  12.105  11.919  0.0134 -0.0648 -0.0997
19488W        W32902   5.605   3.963   1.137  0.1717 -0.0903  0.1029
19489W        W32903   4.379   6.041  12.258 -0.1554 -0.0099  0.4763
19490W        W32904   5.708   6.880   3.582 -0.1352  0.3319 -0.2646
19491W        W32905  14.602   9.368   4.728  0.1354  0.1453  0.1496
19492W        W32906  15.952  16.799   3.647  0.0671  0.2586  0.3221
19493W        W32907   9.415  16.206  11.077  0.3176  0.1624 -0.0637
19494W        W32908  17.712   4.439  13.880 -0.1174  0.0441  0.1045
19495W        W32909  10.097   4.026   4.227 -0.1313  0.0464  0.0518
19496W        W32910   3.238  13.208   1.406  0.1059 -0.0522 -0.0334
19497W        W32911   9.126   9.706  13.931 -0.0605  0.0849 -0.4034
19498W        W32912  13.777   4.755  14.956  0.0927 -0.2233  0.2012
19499W        W32913  16.751   0.445   2.198 -0.2689 -0.3254 -0.0307
19500W        W32914  10.960   0.920  11.136 -0.2679 -0.2082 -0.3434
19501W        W32915  10.226  11.948  12.245 -0.2537  0.2553  0.1135
19502W        W32916  17.201   4.968   3.276  0.0464 -0.0338 -0.2677
19503W        W32917   2.007  11.525   3.918 -0.1196 -0.0493  0.0458
19504W        W32918  15.681  12.585  16.301 -0.2887  0.2159  0.1119
19505W        W32919   4.240   4.046  11.563  0.2301  0.2536  0.0150
19506W        W32920   7.103   6.000   4.289  0.0628  0.0498  0.2253
19507W        W32921  13.550   6.777   0.110 -0.2788  0.2429  0.0297
19508W        W32922   2.868  10.103   0.370 -0.0359  0.1343  0.3478
19509W        W32923  14.153   1.680  16.348  0.2547 -0.3541 -0.0501
19510W        W32924   5.370   4.883  13.784 -0.0556 -0.1603 -0.2052
19511W        W32925  12.384  10.025  11.575 -0.1840  0.0307  0.0152
19512W        W32926   5.580   7.468   4.256  0.1805 -0.1076 -0.0676
19513W        W32927  17.288  15.563  12.275  0.1035 -0.0202 -0.0664
19514W        W32928   6.997  10.842   4.922 -0.1085 -0.2806  0.0713
19515W        W32929   6.959   0.256  12.654 -0.1254  0.0384  0.1032
19516W        W32930  15.489   6.034  13.776 -0.0150  0.2303 -0.0553
19517W        W32931  16.438   5.997   2.366  0.1295  0.0120  0.0070
19518W        W32932  15.207   3.391   0.902 -0.0932 -0.3107  0.2117
19519W        W32933  10.055   8.529  12.779 -0.0606 -0.1390 -0.0092
19520W        W32934   8.088  12.416  14.694  0.1112 -0.3810  0.0385
19521W        W32935  11.950  11.469   3.630 -0.0495  0.2169 -0.2477
19522W        W32936   7.015  15.839   0.578 -0.1468 -0.0089 -0.0997
19523W        W32937   0.830  11.316  13.133 -0.1018 -0.1366 -0.1307
19524W        W32938  17.242   0.189   5.174 -0.3800 -0.0879 -0.0098
19525W        W32939   1.170  15.797  14.841  0.0178 -0.1596 -0.0317
19526W        W32940   4.723   1.240   4.601  0.1067  0.1379 -0.2061
19527W        W32941   0.449  12.924   4.412  0.1483 -0.0856  0.1616
19528W        W32942   5.411   6.265  12.283 -0.0452  0.0354 -0.2102
19529W        W32943   6.484   5.052  14.414 -0.1296 -0.1698 -0.1436
19530W        W32944   6.193  12.730   2.969 -0.2249  0.0032 -0.1049
19531W        W32945  13.066  11.229  11.134 -0.0509  0.1638 -0.2450
19532W        W32946  17.702   9.564   5.668 -0.1859 -0.0680 -0.2163
19533W        W32947  12.736   7.881   5.980 -0.0272  0.2086 -0.0290
19534W        W32948  14.692  14.610   1.450 -0.2017  0.0038 -0.0411
19535W        W32949   9.695  12.349   3.310 -0.0942  0.0382  0.3800
19536W        W32950   4.393  13.349   3.054 -0.3033 -0.0615 -0.0254
19537W        W32951   4.548   0.836  15.157 -0.1432 -0.1313  0.2732
19538W        W32952  14.888   1.647  11.017  0.0572 -0.3436  0.0784
19539W        W32953   0.858   2.013   3.983 -0.0493 -0.2173 -0.1073
19540W        W32954   5.488   2.257  12.858 -0.0357 -0.0523 -0.2326
19541W        W32955   7.965  15.659   4.426  0.0817  0.0052 -0.4384
19542W        W32956  16.512  13.484  14.761  0.0604 -0.0829 -0.0587
19543W        W32957   5.812   5.227  15.975 -0.4005  0.0123  0.0447
19544W        W32958  11.937  10.876   1.981  0.0149 -0.1186 -0.0416
19545W        W32959  15.687   4.507  15.204  0.0440 -0.1160  0.3467
19546W        W32960   6.682  14.020  10.702 -0.2902 -0.0350  0.2228
19547W        W32961   8.204   0.535   4.094  0.1139  0.1880 -0.0395
19548W        W32962   3.524   4.085  15.445  0.0018  0.2648 -0.0214
19549W        W32963  15.345   9.083   5.172  0.0975 -0.2110 -0.1517
19550W        W32964   3.455  13.321  14.356  0.0383 -0.0764 -0.0225
19551W        W32965   2.078  16.275  14.812  0.0237  0.3779  0.0622
19552W        W32966  12.988   7.593   1.775 -0.4042  0.0298  0.0905
19553W        W32967   4.102   1.704   6.041  0.1917 -0.1961  0.1674
19554W        W32968   3.789  10.348  15.036  0.0771  0.2215  0.3751
19555W        W32969  15.949  11.856   0.545  0.2272 -0.3092 -0.1999
19556W        W32970   8.204   4.140   2.798 -0.1324  0.0793 -0.2062
19557W        W32971   5.716   6.832  15.698  0.0734 -0.1117  0.1261
19558W        W32972   9.941  10.959   5.856  0.0602  0.1878 -0.1641
19559W        W32973  13.440   9.996  15.005 -0.2343 -0.1004  0.1271
19560W        W32974  16.904   2.240   4.012  0.0252  0.1072  0.1593
19561W        W32975   2.785   7.819   0.693 -0.1650  0.0074  0.0926
19562W        W32976  15.250   4.561  16.614  0.1530 -0.0646  0.2802
19563W        W32977   7.746   4.364   2.971 -0.2500 -0.0206  0.1235
19564W        W32978   1.934  17.044   5.104 -0.1422 -0.0572 -0.0572
19565W        W32979   2.047   4.473   4.587  0.1578 -0.1124 -0.0811
19566W        W32980   3.202   5.116   5.873  0.0321  0.0467 -0.0525
19567W        W32981   4.631   7.370  13.073  0.2686 -0.1169 -0.0785
19568W        W32982  17.232   8.988  12.231 -0.1210  0.2070 -0.2146
19569W        W32983  15.330   8.803   4.473 -0.0704 -0.1395 -0.0930
19570W        W32984  13.849  17.417   6.339 -0.0423  0.2030  0.0727
19571W        W32985  13.499   0.989   6.103 -0.0522 -0.1332 -0.0474
19572W        W32986   7.678  15.234  10.568 -0.3261 -0.2344  0.0033
19573W        W32987   4.160   0.877  16.216 -0.1372  0.1565 -0.1507
19574W        W32988  13.347   7.845  15.585 -0.0985  0.0301  0.0527
19575W        W32989  12.933   7.826  14.086 -0.0248 -0.1845 -0.1485
19576W        W32990   7.444  16.130   1.521  0.0253 -0.0432  0.1521
19577W        W32991   7.178  13.743   3.624 -0.1626  0.1350 -0.0503
19578W        W32992  11.930  16.167  14.951  0.0818 -0.2301  0.2820
19579W        W32993  16.771   6.962   5.536 -0.0249  0.0231 -0.2529
19580W        W32994  11.526   8.558   3.863  0.0055 -0.3121  0.1593
19581W        W32995   1.135  16.775  15.028  0.1999 -0.0714 -0.0384
19582W        W32996   4.630   5.235  12.720 -0.3964 -0.0857 -0.3694
19583W        W32997   8.947   4.186  12.018  0.0582  0.0962 -0.2189
19584W        W32998   2.982  10.420  16.607 -0.2075  0.2457 -0.0159
19585W        W32999  11.438  14.438  13.685 -0.1490 -0.2842  0.1732
19586W        W33000   9.015   8.462   5.546  0.0742 -0.0664  0.0075
19587W        W33001   7.304  13.584   9.969  0.0147 -0.2362  0.1848
19588W        W33002   8.969   3.379  11.699  0.3716  0.0355  0.0530
19589W        W33003  14.268   9.165  15.694 -0.2266 -0.3488  0.0095
19590W        W33004   7.306   5.372  16.263 -0.2683  0.3274  0.2795
19591W        W33005   7.754   2.297   4.230  0.1242  0.0796 -0.0940
19592W        W33006   0.558  10.909  15.221  0.1005 -0.2515 -0.0335
19593W        W33007   2.652  16.814   3.884  0.0378 -0.0191  0.1972
19594W        W33008   0.327  10.939   2.224 -0.1938  0.3326 -0.0518
19595W        W33009  17.012  13.573  14.608 -0.0352  0.0383 -0.1059
19596W        W33010   9.590   0.550   4.556  0.0752 -0.3351  0.1533
19597W        W33011  11.077   8.989  16.498  0.0324  0.1361 -0.1282
19598W        W33012   6.030   4.769  16.212 -0.0927 -0.1137  0.1986
19599W        W33013   0.855   6.762   4.159  0.1332 -0.1393 -0.0051
19600W        W33014  13.189  10.317   0.577 -0.1642  0.3561  0.1860
19601W        W33015   3.438  15.262   0.982  0.2508  0.1906 -0.4097
19602W        W33016   2.073   4.893  12.658  0.1204 -0.2562  0.0589
19603W        W33017   8.324   1.171   0.802 -0.2083  0.0646 -0.1725
19604W        W33018  10.589   1.165   2.662  0.2278  0.0422 -0.0973
19605W        W33019   3.483  12.997   3.096  0.2129  0.1526  0.1662
19606W        W33020  12.404  13.866   2.384 -0.0418 -0.0885  0.1120
19607W        W33021  16.809   0.509  12.068  0.0812 -0.3391  0.0080
19608W        W33022   2.420  13.716  16.410  0.2598 -0.0026 -0.2084
19609W        W33023  12.821   7.069  12.772  0.1899 -0.0632 -0.0745
19610W        W33024  14.918   9.925   5.187 -0.0401 -0.1308 -0.1628
19611W        W33025  16.430   3.539  14.604  0.0668  0.3850 -0.1797
19612W        W33026  12.621  15.260   2.883 -0.0013 -0.2748  0.1214
19613W        W33027  16.329  15.941   3.359 -0.0022 -0.0350 -0.1478
19614W        W33028   8.397  13.747   4.975  0.1096  0.1544 -0.0965
19615W        W33029   2.182  16.909   2.791  0.0542 -0.0904  0.1410
19616W        W33030   5.428   5.373   2.535  0.0798  0.1538  0.0872
19617W        W33031  16.377   3.649  12.859  0.0553  0.0808  0.3037
19618W        W33032  17.109   9.913   4.007  0.0894 -0.2472  0.3674
19619W        W33033   9.801   7.213   0.186  0.1243 -0.0278  0.3123
19620W        W33034   4.500  14.810   1.581  0.0814 -0.1214 -0.0977
19621W        W33035  17.809   6.023  15.032  0.0971  0.1549 -0.1247
19622W        W33036  11.304  16.780   4.360  0.1532  0.1974 -0.1808
19623W        W33037   4.233  14.787  12.039 -0.0009  0.0798  0.2701
19624W        W33038  12.355  12.177  13.142 -0.0316  0.2509 -0.0454
19625W        W33039   6.312  14.467  14.670  0.1846  0.0604 -0.0331
19626W        W33040   6.898  13.180  13.386 -0.1783  0.0203 -0.2616
19627W        W33041   5.144  14.053   2.271 -0.2935 -0.1130  0.0328
19628W        W33042   2.753  15.144  12.487  0.0112 -0.1088  0.2401
19629W        W33043   3.039  17.020  16.371  0.3699  0.3060  0.0485
19630W        W33044   9.944   2.047  11.220 -0.0997 -0.1378  0.0840
19631W        W33045   8.639  13.451   5.550  0.0642  0.0742 -0.0832
19632W        W33046   5.928  12.364  12.299 -0.0579 -0.2106  0.2591
19633W        W33047   8.175   2.349  10.006  0.0398 -0.1577  0.2641
19634W        W33048   8.235   0.053  12.899  0.0070  0.3374  0.0230
19635W        W33049   3.826   8.935   4.799 -0.1566  0.0118  0.2882
19636W        W33050  10.571   2.597   2.867 -0.0559  0.0367 -0.1181
19637W        W33051   1.811  13.594   1.265 -0.1499  0.0499 -0.0089
19638W        W33052  10.437  16.787  13.989  0.1656 -0.0098  0.0923
19639W        W33053  17.584  13.307   4.896  0.3000 -0.0282  0.0390
19640W        W33054  10.245  16.056  14.641  0.3052  0.3753  0.0061
19641W        W33055   3.417   1.455  11.423  0.0005  0.0565 -0.0748
19642W        W33056   9.490  17.306  10.840 -0.0994  0.1626  0.1871
19643W        W33057  15.215  16.323   0.559  0.0216 -0.2465 -0.0157
19644W        W33058  13.622   5.136  13.600  0.1959 -0.0855  0.4525
19645W        W33059  12.293   6.437  13.811 -0.1520  0.2066  0.0522
19646W        W33060   7.321  17.759  13.442  0.2892  0.1910 -0.1815
19647W        W33061  13.921   4.569   4.828 -0.0295  0.4872 -0.0153
19648W        W33062   8.115  17.661  15.584  0.0487 -0.1639  0.2332
19649W        W33063   1.607  14.874   3.153 -0.1349 -0.2880  0.1269
19650W        W33064  13.438  13.583   2.145 -0.3038  0.2299 -0.1400
19651W        W33065   8.553   2.346   2.305 -0.0126  0.0958  0.1097
19652W        W33066  11.991  17.557   3.298  0.2176 -0.0997  0.2466
19653W        W33067   6.979   5.401  14.724 -0.0409  0.0278  0.1092
19654W        W33068   0.138   2.074   0.261 -0.2288 -0.2927 -0.0561
19655W        W33069   3.635  10.592   1.597 -0.0395 -0.1647 -0.0705
19656W        W33070   0.269   2.078  14.893  0.0192  0.1496 -0.3525
19657W        W33071  17.161   7.101   0.378  0.2099 -0.0616 -0.0714
19658W        W33072   6.326   7.146  14.322  0.2771 -0.2499 -0.0686
19659W        W33073   5.272   7.412   0.372  0.0978 -0.0275 -0.0182
19660W        W33074   3.308   6.410  11.600  0.0060  0.0541  0.1376
19661W        W33075   0.024   7.594  12.681  0.3893 -0.1994 -0.0609
19662W        W33076  12.066  14.693   1.991 -0.0003 -0.1398 -0.0684
19663W        W33077  16.574   6.218   3.243  0.0286 -0.0298  0.0662
19664W        W33078   0.473   5.376   0.476 -0.0261  0.1784 -0.1045
19665W        W33079  16.202  15.687  12.285 -0.1549 -0.0027 -0.2127
19666W        W33080  13.196  10.842   0.619 -0.3823 -0.2413 -0.3181
19667W        W33081   1.558   4.319   4.577  0.1489 -0.0880  0.0383
19668W        W33082   2.028   2.135   5.201  0.0207  0.1216  0.0281
19669W        W33083  14.845   0.152  13.779  0.0649 -0.1366 -0.1624
19670W        W33084  11.648  10.262  15.494 -0.2108 -0.1049 -0.0520
19671W        W33085  10.785  16.516  12.630 -0.3337  0.1320  0.0679
19672W        W33086  12.287   6.728   4.791  0.2701 -0.4223  0.1383
19673W        W33087   6.792   2.887   0.799  0.4237  0.0582 -0.2096
19674W        W33088   7.481   4.125   6.045  0.0125  0.0711  0.0803
19675W        W33089  11.941   1.284   3.925 -0.0631 -0.0808 -0.0358
19676W        W33090  11.910   9.566  16.302 -0.1902  0.2588  0.1990
19677W        W33091  17.653   3.695   5.375 -0.2324 -0.2970  0.0860
19678W        W33092   9.140   7.577   2.300 -0.0498 -0.0478 -0.2999
19679W        W33093   7.972   6.021   2.172 -0.1886 -0.0045  0.1244
19680W        W33094   2.198   6.820   4.121  0.1105 -0.0226  0.1008
19681W        W33095   8.992   9.177   1.527  0.1912 -0.1787 -0.1880
19682W        W33096   5.531   4.603  14.214 -0.2226  0.1187  0.1709
19683W        W33097  16.294   2.542  11.338  0.2777  0.0335  0.0292
19684W        W33098   4.244   8.282  10.180 -0.0039 -0.0036  0.3004
19685W        W33099  13.725   1.309  11.503 -0.0283  0.2813  0.3379
19686W        W33100   3.392  17.964  12.273 -0.3085 -0.0504  0.1108
19687W        W33101   4.661   7.415   4.211 -0.0162  0.1589 -0.0135
19688W        W33102  11.288  13.707  12.932  0.1649 -0.3185  0.2110
19689W        W33103  14.207  17.148  10.201  0.1977 -0.0657  0.0299
19690W        W33104   1.053  14.336   4.142 -0.3169 -0.1212 -0.1585
19691W        W33105  12.279   0.142   0.523 -0.2594  0.0425  0.2368
19692W        W33106   6.718  17.926  15.416 -0.0498  0.1322  0.1610
19693W        W33107   3.996   7.098  11.880  0.0195 -0.0779  0.0646
19694W        W33108  17.539  15.337   2.569 -0.1754 -0.3339 -0.3115
19695W        W33109   9.388   5.403  11.573 -0.1120  0.4317  0.1036
19696W        W33110  15.253   7.727   2.206 -0.0864  0.0894 -0.0896
19697W        W33111   7.320  16.801  13.768  0.0200 -0.0595 -0.1580
19698W        W33112   0.647  13.324  13.200 -0.3349 -0.5135  0.1639
19699W        W33113  12.466   8.789  12.572  0.0696 -0.3453  0.0791
19700W        W33114  17.147  16.988   0.185  0.2477 -0.3107  0.0735
19701W        W33115   6.992  12.012  11.350  0.1036  0.0948 -0.3256
19702W        W33116  11.168   0.919  13.982  0.0545  0.0763 -0.0165
19703W        W33117   9.734   7.543  11.728 -0.1184 -0.0896 -0.0595
19704W        W33118  12.421   8.935  16.432 -0.2979 -0.1563  0.3486
19705W        W33119   6.559   2.185  14.717  0.0477  0.1500 -0.0236
19706W        W33120  11.260  17.984  11.382 -0.1026  0.0213  0.0796
19707W        W33121   4.992   9.117  12.271 -0.0731  0.1809 -0.2251
19708W        W33122  16.156   8.524  15.239  0.1414 -0.0868  0.2420
19709W        W33123  12.595  17.156  14.142 -0.2665 -0.3088  0.0832
19710W        W33124   5.806  16.507  13.640  0.0423  0.0849 -0.1266
19711W        W33125  10.344   1.844   1.306  0.1013  0.1051  0.1024
19712W        W33126   5.875   5.483   0.963  0.4432 -0.1516 -0.0788
19713W        W33127   4.549   2.991   3.462  0.0070 -0.0699 -0.0918
19714W        W33128  14.876   8.854  13.739 -0.1563 -0.1099 -0.1611
19715W        W33129   4.829   3.463  12.609  0.0764 -0.1678 -0.2278
19716W        W33130  15.476   2.326  14.031  0.1609  0.1444  0.3620
19717W        W33131  15.418   1.770   1.394 -0.3499  0.0430 -0.0365
19718W        W33132   2.839   1.816   0.157  0.0591  0.2023  0.1401
19719W        W33133   6.759  13.921   4.370  0.1688  0.0475  0.1247
19720W        W33134  13.911   3.566  14.358  0.1572  0.1168 -0.0343
19721W        W33135  12.703   6.416   5.613  0.0907 -0.0655 -0.0434
19722W        W33136   2.610   4.613  15.312  0.0095  0.0664  0.1005
19723W        W33137   4.726   6.075   4.372 -0.0352 -0.1751  0.3041
19724W        W33138   7.248  12.199  13.627  0.0154 -0.0844 -0.1614
19725W        W33139   4.591  11.980  15.938  0.0632  0.2277 -0.0992
19726W        W33140  16.623  17.505  13.101 -0.3070 -0.2751 -0.0679
19727W        W33141  16.070  16.887   5.281 -0.2750 -0.1766 -0.2716
19728W        W33142   7.803  11.952   6.258  0.0893  0.2042  0.1737
19729W        W33143   0.039   4.120  13.536  0.3910  0.2087 -0.0110
19730W        W33144   2.145   8.873  14.278 -0.1347  0.1616  0.0742
19731W        W33145  15.631  17.306   1.418 -0.1509  0.1813  0.4066
19732W        W33146   2.285   7.976   0.713 -0.0920 -0.1553  0.4096
19733W        W33147   0.863  15.508  11.074 -0.0669 -0.1240  0.1322
19734W        W33148   5.070  11.586  13.127 -0.0703  0.3341  0.0900
19735W        W33149   4.513  13.222  11.294  0.0695 -0.2272  0.0770
19736W        W33150   8.721  12.577  10.824  0.3060 -0.0048  0.2021
19737W        W33151  14.754  11.083   2.291 -0.2486 -0.0515 -0.5036
19738W        W33152   8.063  12.753   4.397  0.0427 -0.1428 -0.1752
19739W        W33153   6.759  16.715  12.905  0.1755  0.2052  0.1739
19740W        W33154   5.685  12.343  14.569  0.0910 -0.3249 -0.2036
19741W        W33155  10.338   8.134  10.762 -0.2084 -0.0257 -0.0046
19742W        W33156   8.076  15.075  16.290 -0.0026 -0.0937 -0.0997
19743W        W33157  17.337  15.135   1.490  0.3007 -0.0875  0.2454
19744W        W33158  14.803   4.399  13.167  0.0083 -0.1112 -0.2080
19745W        W33159   9.173  11.977  12.016 -0.3520  0.2327  0.2386
19746W        W33160  14.172  12.317  13.297 -0.3297  0.1506  0.0499
19747W        W33161   1.881  13.622   2.136  0.1784  0.0200  0.0172
19748W        W33162  14.212  17.583   3.363  0.0373  0.1263  0.0025
19749W        W33163   8.856  13.840  14.338  0.2324 -0.0104 -0.1021
19750W        W33164  15.972   4.521  12.517  0.3032  0.0765 -0.1218
19751W        W33165   1.415   4.215  11.719  0.0797  0.1160 -0.3500
19752W        W33166   0.656   0.420  15.846  0.2524 -0.2350 -0.0868
19753W        W33167  12.979   8.600  15.265 -0.1322 -0.3518  0.0205
19754W        W33168  15.211  13.050  12.550  0.2204 -0.0365  0.2385
19755W        W33169   0.249   1.071  12.932 -0.2728  0.1327  0.0669
19756W        W33170   8.988   2.219  15.850 -0.0709  0.0230  0.1239
19757W        W33171   3.167  17.766   6.329 -0.0464 -0.0318  0.0259
19758W        W33172   9.294   4.322   2.046  0.0449  0.0477 -0.1068
19759W        W33173  16.131  17.476   5.902  0.1096 -0.1195  0.3154
19760W        W33174  16.212   1.456   3.934 -0.1243 -0.0852  0.0439
19761W        W33175  10.124  15.648  14.426 -0.2702  0.0490 -0.0545
19762W        W33176  10.032   2.372  12.013  0.1687  0.0358 -0.2166
19763W        W33177   9.738   7.037  14.172 -0.0550  0.1469 -0.2256
19764W        W33178  12.943  16.352   4.173 -0.0013  0.0554 -0.0368
19765W        W33179  11.430   1.736   3.516  0.0369  0.0863 -0.0142
19766W        W33180  13.304   5.140   2.315  0.1928 -0.0724 -0.1731
19767W        W33181   5.913  10.563  11.610  0.0918 -0.2084  0.0701
19768W        W33182  16.648   7.512  13.418  0.1001 -0.0060 -0.2070
19769W        W33183   6.289  10.007  13.979 -0.1066  0.0836  0.2348
19770W        W33184   4.290   2.352   5.134 -0.0676 -0.0920 -0.1265
19771W        W33185   6.627   0.761  16.671 -0.1321 -0.5478 -0.0977
19772W        W33186   0.770   8.222   5.089  0.1897 -0.1991 -0.1659
19773W        W33187   3.914  18.005  12.366 -0.3848  0.0110 -0.1531
19774W        W33188  16.618   9.892   3.064 -0.1257  0.0808  0.0328
19775W        W33189   8.950   8.653  11.977  0.0445  0.1788 -0.3562
19776W        W33190  13.344  13.352  15.110  0.2707  0.0722 -0.2545
19777W        W33191   7.703  17.697   4.120  0.2630  0.1513 -0.2291
19778W        W33192   5.887   6.210  10.869  0.0327  0.0495 -0.3237
19779W        W33193  11.436  11.507  12.368 -0.0756 -0.2101  0.2298
19780W        W33194   7.043   1.975  12.208  0.0895 -0.0776 -0.1780
19781W        W33195   4.783  11.933  14.287 -0.2287  0.0683 -0.3433
19782W        W33196  12.399  13.271   3.521  0.0833  0.1796  0.0325
19783W        W33197  11.645  13.076   3.376 -0.2358 -0.3646  0.0710
19784W        W33198   7.367   7.857  11.187  0.2699 -0.2529 -0.1364
19785W        W33199   9.935  12.909  12.945 -0.0326  0.4543 -0.2278
19786W        W33200  13.665   3.882  15.725 -0.2913 -0.0203 -0.0459
19787W        W33201   9.699   6.316  11.039  0.2591  0.0764  0.0862
19788W        W33202   3.428  15.631  10.664  0.1100 -0.0654 -0.1571
19789W        W33203   6.145   9.633  14.961  0.2702 -0.0085 -0.0639
19790W        W33204   3.249   0.930   2.968  0.2504  0.0683  0.0074
19791W        W33205  11.675   9.259   3.572  0.1241 -0.3967  0.1473
19792W        W33206  14.736   5.754   3.844  0.0701 -0.1556  0.0220
19793W        W33207   3.793   1.620   0.375  0.0454  0.2531  0.3294
19794W        W33208  18.044  12.142  15.087  0.0636 -0.0701  0.1345
19795W        W33209  11.971   4.015   2.857  0.0410 -0.1614  0.2380
19796W        W33210  12.779   9.039   3.773  0.0255 -0.1076  0.0976
19797W        W33211  14.160  10.180  11.414  0.0546  0.0837  0.3303
19798W        W33212  12.839  17.588  14.262  0.0631 -0.2130 -0.1651
19799W        W33213   8.813   5.436   4.477  0.1626  0.1036 -0.3236
19800W        W33214   6.199  11.385   2.675  0.2487  0.0722  0.0331
19801W        W33215   7.675   9.868  14.935 -0.1314  0.1694 -0.0678
19802W        W33216   9.968  10.894   5.312  0.0720  0.3977  0.0256
19803W        W33217  14.851  10.219   0.681  0.0108  0.2788 -0.1102
19804W        W33218   9.281   7.398  10.814 -0.0212 -0.0783 -0.0390
19805W        W33219   5.153   9.450  15.171 -0.0480  0.0387 -0.0043
19806W        W33220   7.340   8.503  15.254  0.0192  0.1043  0.0813
19807W        W33221  11.875   7.188  14.028 -0.1549 -0.0936  0.0020
19808W        W33222   1.670   6.251   2.649  0.1157 -0.0892  0.1720
19809W        W33223   7.416   5.789   4.575 -0.0069 -0.2365  0.1057
19810W        W33224   4.235   0.505  10.742 -0.0129 -0.1879  0.1206
19811W        W33225   5.896  13.196  11.405 -0.0503 -0.0031 -0.0571
19812W        W33226   6.841  12.875  14.678 -0.1166  0.0337  0.1216
19813W        W33227  15.441   9.735  15.324  0.2348 -0.1150 -0.2292
19814W        W33228   7.167   2.353   3.283 -0.1372  0.0644 -0.0492
19815W        W33229   6.900  12.417   3.235 -0.1211 -0.2405 -0.1537
19816W        W33230   6.440   0.738  11.413 -0.1880 -0.0520 -0.1253
19817W        W33231  17.862  18.051  13.221 -0.0692  0.0335 -0.1527
19818W        W33232   7.909   0.209   5.101  0.0125  0.1400  0.2623
19819W        W33233   4.832  17.947   1.446 -0.1253 -0.1486  0.0749
19820W        W33234   0.954   7.379   1.951  0.0801  0.1875 -0.3314
19821W        W33235  15.662   5.309  11.702 -0.1106  0.0450 -0.1493
19822W        W33236   2.515   5.847   5.113 -0.0537  0.3137  0.0444
19823W        W33237  13.865  12.895  14.886  0.1325  0.1434 -0.5935
19824W        W33238  14.819  16.077  13.486  0.1938  0.2214 -0.0746
19825W        W33239   5.592  13.125  11.882  0.0553  0.1079  0.2776
19826W        W33240   3.596   4.092   1.121 -0.0843 -0.3020  0.0635
19827W        W33241   7.252   4.525   2.184 -0.0099  0.2610 -0.0606
19828W        W33242  10.901   6.243  14.155  0.2818  0.3860  0.1736
19829W        W33243   3.567  10.497   1.107  0.2298  0.3035  0.0292
19830W        W33244   2.179  11.481   4.415 -0.1647  0.2891  0.3057
19831W        W33245  16.435   4.476  14.004 -0.2128 -0.1279 -0.2215
19832W        W33246  12.976   5.828  13.054 -0.1678  0.2053  0.0935
19833W        W33247   0.258  11.579  12.826 -0.2416 -0.2562 -0.0847
19834W        W33248   2.279   2.314   1.801  0.0182  0.0477  0.0892
19835W        W33249   1.771   5.008   2.587 -0.1328 -0.1144  0.0108
19836W        W33250   1.113  10.585   4.636 -0.2467  0.0245  0.1683
19837W        W33251   1.884   9.973   0.572 -0.2194 -0.0215 -0.0312
19838W        W33252  11.444  12.338  16.486  0.1959 -0.2101 -0.2527
19839W        W33253   0.277   5.433   4.086  0.1713 -0.1513  0.0035
19840W        W33254   7.274  11.246   1.864 -0.0784  0.1105 -0.1626
19841W        W33255  10.415  10.859  15.160  0.0524 -0.3704 -0.0086
19842W        W33256  14.645   9.036   2.722 -0.0067 -0.1047  0.0838
19843W        W33257  11.176  12.627   3.244  0.0935  0.0164 -0.0352
19844W        W33258   4.384  16.838   3.493 -0.2520  0.2296  0.1168
19845W        W33259   0.857   4.518  15.445 -0.0419 -0.1278 -0.1516
19846W        W33260   5.177  13.224  10.819 -0.1711  0.1226  0.0566
19847W        W33261  17.524  15.893   5.839 -0.3005  0.0921 -0.1846
19848W        W33262  12.383  14.319   2.741  0.0455 -0.2002  0.1759
19849W        W33263  11.273  14.208  12.097 -0.0776 -0.3318  0.0565
19850W        W33264  16.373   9.595   2.703  0.1341 -0.0698 -0.1852
19851W        W33265   0.341   1.140   1.115  0.1120 -0.2099 -0.1987
19852W        W33266   2.813   4.852  12.164 -0.1498 -0.2997  0.2513
19853W        W33267  15.498   9.590   4.856 -0.0831  0.1502  0.0374
19854W        W33268  10.944   4.604  15.958  0.1014 -0.1724  0.1679
19855W        W33269  14.152  16.019  15.192 -0.1608 -0.3238  0.0340
19856W        W33270   9.540  15.030   4.710 -0.0959  0.1079  0.1939
19857W        W33271  13.839   2.052   1.937  0.0629  0.1166 -0.0963
19858W        W33272   9.818   8.196  16.683  0.2178  0.1669  0.2150
19859W        W33273   1.531  10.692  11.521  0.3286  0.1725  0.1478
19860W        W33274   1.379  17.742   1.145  0.1870  0.0824  0.2150
19861W        W33275   1.998   2.196   3.271  0.1486  0.0039 -0.0443
19862W        W33276  12.684   0.634  12.683 -0.2420 -0.0172  0.0474
19863W        W33277  15.397   7.756  11.605  0.0467 -0.1045 -0.0067
19864W        W33278   6.565   2.392   0.603  0.0632 -0.1929 -0.1546
19865W        W33279   1.271  11.747  12.320 -0.0690  0.0397  0.0445
19866W        W33280   1.976  14.246  12.827 -0.1096 -0.0814  0.0153
19867W        W33281   4.724   6.087   3.530  0.1743  0.2504  0.0784
19868W        W33282   8.963  16.621  10.832  0.0996  0.3928  0.1263
19869W        W33283   8.063   8.076   1.558  0.0605 -0.2457 -0.3171
19870W        W33284   2.938   0.253   5.197  0.1762  0.0302 -0.0991
19871W        W33285   0.223  11.409  15.941 -0.0893 -0.0835  0.1098
19872W        W33286  14.925   0.584  12.772  0.0525 -0.0286  0.1313
19873W        W33287  11.353  15.456  15.334  0.0592  0.1101  0.1167
19874W        W33288   9.132  14.225  14.520 -0.1554 -0.1162  0.1872
19875W        W33289  15.555   3.539  14.801  0.0287 -0.1716 -0.1944
19876W        W33290  10.591  12.036   6.224  0.0087  0.0504  0.1282
19877W        W33291   7.175  13.968  14.318 -0.0703  0.1514  0.1433
19878W        W33292   1.869   7.502   3.000  0.0786 -0.1302  0.2504
19879W        W33293   7.211   6.897   3.362  0.2159  0.0620 -0.0072
19880W        W33294  11.488  10.836   4.583 -0.1903  0.3410  0.0064
19881W        W33295   5.446  11.412   1.883 -0.0622  0.1959 -0.0397
19882W        W33296   4.188   8.481   5.167  0.1549  0.0923  0.0267
19883W        W33297   4.490   1.314   5.890  0.1927  0.1864  0.0782
19884W        W33298  17.280   0.837   6.254 -0.1909  0.2785 -0.0980
19885W        W33299   1.368   6.884  15.607 -0.1366  0.0131 -0.1759
19886W        W33300   4.588   6.487  13.454 -0.1110  0.0160 -0.0653
19887W        W33301  11.904   7.134   2.904 -0.0946 -0.0643 -0.0290
19888W        W33302   1.864   5.471  15.216 -0.0223  0.0658 -0.0209
19889W        W33303  13.401  14.261  14.839  0.0688 -0.1778 -0.1504
19890W        W33304  16.549  11.851   3.161 -0.0856  0.0709  0.0673
19891W        W33305   1.734   1.354   4.599 -0.1575 -0.0825  0.1673
19892W        W33306   0.365   5.999   0.545  0.1212 -0.0523  0.0233
19893W        W33307  12.866   1.782  14.042  0.0654  0.0232  0.0767
19894W        W33308   0.798  12.333  12.683  0.2787  0.0441  0.2986
19895W        W33309  13.552   6.256  12.254  0.0620 -0.2468  0.2301
19896W        W33310  14.233   6.511  12.647  0.1915  0.0313 -0.1430
19897W        W33311  11.796  14.258   2.771  0.1147 -0.1113  0.2032
19898W        W33312   4.693  16.162  16.244 -0.2947 -0.0385  0.0140
19899W        W33313  12.043   5.306  16.472  0.0321  0.0657 -0.0109
19900W        W33314   9.761  13.321   3.471  0.0517 -0.2068  0.3403
19901W        W33315  14.117  15.067  16.414  0.0832 -0.0868  0.0196
19902W        W33316   0.084   1.609   5.459 -0.1642 -0.0804 -0.1869
19903W        W33317   7.236  10.781   0.458  0.0892  0.0884 -0.0215
19904W        W33318   7.383  11.591  11.365  0.0634 -0.1028  0.0774
19905W        W33319   1.600  13.540  13.369  0.0624  0.1351 -0.0390
19906W        W33320  10.735   3.586   0.531  0.0435 -0.0053  0.0910
19907W        W33321  14.780  17.927  11.282  0.2309  0.1174  0.0066
19908W        W33322   3.725  16.260  15.220 -0.1253  0.4057 -0.0656
19909W        W33323  10.932   3.281  13.607  0.0522 -0.2797 -0.0764
19910W        W33324   6.457   0.479  14.911  0.1503 -0.1354  0.0064
19911W        W33325   0.756  15.150   4.022  0.0986 -0.0473 -0.0240
19912W        W33326  16.020   5.569   6.181  0.1161  0.0854  0.0711
19913W        W33327   7.843  17.784  13.723 -0.0089  0.0839 -0.3197
19914W        W33328   7.445   0.130   5.255 -0.0362 -0.2039 -0.1493
19915W        W33329  15.749   7.958   5.875 -0.2006 -0.1180  0.0172
19916W        W33330  13.235   6.195   1.197  0.1055 -0.0512  0.1974
19917W        W33331  14.742  10.532  11.953  0.2935  0.0053 -0.0875
19918W        W33332  10.760   6.856   5.492 -0.3082  0.2165  0.0995
19919W        W33333  10.471   7.280   4.096  0.1304  0.1143 -0.0306
19920W        W33334   9.258   2.955   4.799  0.1094 -0.3342  0.0325
19921W        W33335   7.916   0.306   2.834  0.3985  0.1726 -0.3220
19922W        W33336  13.325  17.582   3.106  0.1352 -0.0123 -0.0376
19923W        W33337  17.863   7.934   3.081  0.0570  0.1119 -0.0022
19924W        W33338  14.922  10.459  12.412 -0.0419  0.0556 -0.0036
19925W        W33339   9.889   4.624  11.066 -0.0640  0.1404 -0.0313
19926W        W33340   8.203  14.600  13.181 -0.3678  0.0573 -0.0859
19927W        W33341   6.175   7.522   2.540  0.2139 -0.0713  0.2234
19928W        W33342  11.182   3.837   0.089  0.2537 -0.0663 -0.2088
19929W        W33343   0.658  11.141   0.622  0.0039  0.0940  0.1463
19930W        W33344   5.928   6.104  13.034 -0.0079  0.1910  0.1122
19931W        W33345  10.948  15.894   1.392 -0.1294  0.0384  0.0271
19932W        W33346   3.201  13.031   5.957  0.0538  0.0433 -0.0534
19933W        W33347  15.299   7.998  15.022 -0.1763 -0.0113  0.1259
19934W        W33348   1.960   3.883   3.468  0.1194  0.0388  0.3859
19935W        W33349   9.088   0.726   2.412 -0.1685 -0.1755 -0.0566
19936W        W33350  11.260   2.027   3.095 -0.0404  0.0915  0.1754
19937W        W33351   6.239   5.007  15.824 -0.0578  0.0019 -0.0160
19938W        W33352  12.701   6.282   3.527  0.2009  0.2524 -0.1450
19939W        W33353   2.879   6.553   5.761 -0.0564  0.5814 -0.1347
19940W        W33354  12.420   2.477   2.463 -0.2228  0.2305 -0.0814
19941W        W33355  10.287   9.514  12.436  0.2398 -0.0496  0.1559
19942W        W33356  12.931   7.832  11.187  0.0216 -0.0404  0.1617
19943W        W33357  11.005  16.785   5.199 -0.0035  0.0894 -0.1086
19944W        W33358   0.952   2.971   6.537 -0.0940 -0.1172  0.0033
19945W        W33359  11.400  13.294  12.509  0.1477 -0.0834 -0.3644
19946W        W33360  16.117  16.047  11.122 -0.1655  0.2646 -0.0239
19947W        W33361  17.110  14.966  15.246 -0.0267 -0.0648 -0.1087
19948W        W33362  14.736  11.857   0.740  0.1962  0.1655  0.2568
19949W        W33363  10.497   7.706  13.081  0.2355  0.1219  0.0462
19950W        W33364  16.571   6.057   1.881  0.3999  0.3958  0.3726
19951W        W33365   6.164   7.051   0.250 -0.2263  0.2082 -0.2979
19952W        W33366   6.489   9.722  16.285  0.2253  0.1196  0.1871
19953W        W33367   3.372  10.023  12.065 -0.0401  0.3677 -0.1607
19954W        W33368   4.749   1.297  15.073  0.0881 -0.2428  0.1374
19955W        W33369  15.733   2.722   1.497 -0.0338 -0.0942 -0.0413
19956W        W33370  18.025  17.319  14.493 -0.0845 -0.0410 -0.3015
19957W        W33371   9.314  10.210  13.049 -0.1267 -0.0677 -0.2681
19958W        W33372   0.851  17.047  11.247  0.1800 -0.3218  0.1014
19959W        W33373  11.431   7.863   3.211  0.0267 -0.2087  0.2168
19960W        W33374  11.567   0.828   5.269 -0.1763 -0.0391 -0.1805
19961W        W33375   3.253  10.761  12.752 -0.0385  0.2464  0.0570
19962W        W33376   9.640   2.035   0.102 -0.1325  0.0601  0.0065
19963W        W33377   6.380  11.870   3.234 -0.0603 -0.0850  0.1240
19964W        W33378   8.813  15.859   2.147  0.1332  0.2445 -0.0982
19965W        W33379   1.818  10.839   1.486  0.1551 -0.0562  0.1929
19966W        W33380  15.435  15.020  13.171 -0.0158  0.1409 -0.4479
19967W        W33381  10.631  12.676   1.504 -0.0483  0.1850  0.0098
19968W        W33382  12.449   2.175   0.635 -0.1531 -0.0878  0.1362
19969W        W33383   5.848   3.907  11.396  0.2746 -0.0274 -0.2522
19970W        W33384  11.995   3.204  15.109  0.3174  0.0821 -0.1349
19971W        W33385  16.356   2.412   4.880  0.0631 -0.0809  0.1361
19972W        W33386   8.875  13.785   0.088 -0.1690 -0.4499 -0.0160
19973W        W33387  10.709   9.127  15.666  0.0792  0.1545 -0.0787
19974W        W33388   1.988  14.568   5.261  0.0827  0.0242 -0.1214
19975W        W33389   3.336   7.672  12.688 -0.1248  0.1693 -0.1856
19976W        W33390  15.168  12.062   3.293 -0.4878  0.1994 -0.2964
19977W        W33391   8.464   1.603   0.958 -0.0909  0.3092 -0.1127
19978W        W33392   3.903   7.277   3.838  0.0519  0.0919 -0.1397
19979W        W33393   9.327  14.015   1.735  0.2305 -0.0519  0.0812
19980W        W33394   6.889  17.179   5.912  0.0924 -0.2774  0.0343
19981W        W33395   9.247   4.473   5.697  0.0637 -0.0746 -0.0151
19982W        W33396   5.879   4.323   5.157 -0.3624 -0.2110 -0.2513
19983W        W33397   4.440   4.205   5.436 -0.0293  0.0353  0.2281
19984W        W33398  14.204   4.523   1.161 -0.0096  0.0499 -0.1298
19985W        W33399   3.346   0.422   5.010 -0.2074  0.2316  0.1776
19986W        W33400   6.851  16.376  15.771 -0.2148 -0.0188 -0.0003
19987W        W33401   9.787  13.602  13.783  0.0256  0.1345  0.1622
19988W        W33402   0.225   7.138  13.659 -0.2400  0.1616  0.1036
19989W        W33403  16.451  14.533   5.243  0.1577 -0.0505  0.2841
19990W        W33404  14.621   7.776   3.932 -0.0785  0.0808 -0.3700
19991W        W33405   5.084  16.404   4.864  0.0165  0.0061 -0.2426
19992W        W33406  17.537   5.169   1.928  0.0148  0.1109  0.1493
19993W        W33407   6.621  13.857  14.974 -0.1924  0.0792  0.2398
19994W        W33408  14.647   0.254  12.966  0.1250  0.1007  0.3351
19995W        W33409   1.081   9.994  15.945 -0.1063  0.1746  0.2663
19996W        W33410   4.457  16.832   4.426  0.1890  0.1846  0.2897
19997W        W33411  15.094   7.445   5.687 -0.1176  0.0451 -0.2158
19998W        W33412   9.208  15.846  14.708 -0.2215  0.0986  0.2024
19999W        W33413   0.733   0.319   1.572  0.1612  0.0902  0.2516
20000W        W33414   2.616   1.689  10.830 -0.1919  0.2386  0.1792
20001W        W33415  12.260  11.285  14.836 -0.0147  0.1056  0.1224
20002W        W33416   1.059   4.708  13.648  0.0111 -0.2166 -0.1211
20003W        W33417   3.012   1.730   5.283  0.1484 -0.0665  0.0338
20004W        W33418  10.299  13.441   4.613 -0.1855  0.4479 -0.1217
20005W        W33419  12.234  16.830   4.558 -0.3813 -0.3477 -0.1221
20006W        W33420   5.015   6.874  13.672  0.2592  0.0559  0.0180
20007W        W33421   2.486   7.940  15.794  0.2342 -0.2262 -0.0364
20008W        W33422   2.607   8.186   4.707 -0.2010 -0.0407 -0.2562
20009W        W33423   1.990   8.212   2.912  0.3082  0.0746 -0.0716
20010W        W33424   1.609  16.723  12.081  0.2467 -0.1273 -0.0689
20011W        W33425  14.174   6.100   3.512  0.0650  0.0291  0.2521
20012W        W33426  15.264   6.291  15.410 -0.0401  0.1708  0.2983
20013W        W33427   7.814  13.340   0.492 -0.1559  0.1899  0.1035
20014W        W33428  15.011  15.470   6.387  0.0980  0.3837  0.0054
20015W        W33429   6.385   5.006  11.576  0.1078 -0.1870 -0.0165
20016W        W33430  14.550  13.429   3.613  0.0672  0.0209 -0.2364
20017W        W33431  17.875   2.686  14.017  0.0482  0.0305 -0.2977
20018W        W33432  16.172  15.135  16.194 -0.1246 -0.1815  0.1484
20019W        W33433   2.812  14.579  15.596 -0.3188  0.0810  0.0288
20020W        W33434   4.305  15.274  14.686  0.1288 -0.0779  0.1073
20021W        W33435  12.058   1.630  11.048  0.0715  0.0758  0.0106
20022W        W33436   6.415   7.898   0.069 -0.0072  0.0462 -0.1716
20023W        W33437  12.937   4.274  15.039  0.2005 -0.1217  0.0981
20024W        W33438   8.832  10.746  12.594 -0.1221  0.1765 -0.0809
20025W        W33439  15.863   9.549  16.649 -0.0732  0.1427 -0.2303
20026W        W33440   9.232   2.488   4.634  0.1062  0.0514  0.3818
20027W        W33441   1.366   2.911  16.134  0.0652 -0.0717 -0.0656
20028W        W33442   6.820   9.535   1.514  0.0450 -0.1521  0.0987
20029W        W33443  10.803   8.173  11.362  0.1633 -0.1902 -0.0573
20030W        W33444   6.233  15.492  16.495 -0.2732  0.2592 -0.0680
20031W        W33445   0.669  14.163   1.463  0.0772 -0.0179 -0.2378
20032W        W33446  14.093   7.748   1.752 -0.1189  0.2586  0.0892
20033W        W33447   3.042  10.348   1.153 -0.0053 -0.1125 -0.2817
20034W        W33448   7.950  10.016  14.522 -0.1183 -0.0605  0.0922
20035W        W33449  14.745   6.435  12.555 -0.0132  0.0011 -0.2591
20036W        W33450  16.760   9.340   0.063 -0.1259  0.0760  0.0665
20037W        W33451  15.026  11.863   2.851 -0.2468 -0.3782  0.0268
20038W        W33452   1.966   5.056  11.087 -0.0026  0.3867 -0.0656
20039W        W33453  10.689  15.844  14.369 -0.0987 -0.1041  0.1683
20040W        W33454   7.296   4.577   9.985  0.0028 -0.1640  0.1979
20041W        W33455  13.228  16.912  15.010 -0.2969  0.0157  0.0467
20042W        W33456  13.591   0.279   0.129  0.1457 -0.0872 -0.0435
20043W        W33457   2.160  11.783  12.057 -0.1328 -0.3103 -0.1342
20044W        W33458   8.049   9.676  10.565 -0.2904  0.2220 -0.0444
20045W        W33459  16.808   7.581   2.679  0.0151 -0.0312  0.1063
20046W        W33460  15.012  13.466   3.425  0.3453  0.1013  0.2354
20047W        W33461   3.316   9.031   0.101 -0.0931  0.0623  0.1022
20048W        W33462   2.619  17.222   1.889  0.0997  0.2107 -0.1242
20049W        W33463  17.335   0.105  14.240  0.1737  0.1943  0.0048
20050W        W33464  11.988   0.264   4.335  0.0763  0.1937  0.0070
20051W        W33465   7.156   5.907   9.875  0.1692 -0.0498  0.0844
20052W        W33466  13.672   5.141  15.797  0.2925 -0.1383 -0.0692
20053W        W33467  10.587   6.143   4.767  0.5191 -0.1011  0.1888
20054W        W33468  17.326  11.138  14.694 -0.0260  0.1177 -0.0947
20055W        W33469  12.591  12.414  14.594  0.3793 -0.1083  0.0525
20056W        W33470  16.266   7.235   0.682 -0.0685  0.0549  0.1623
20057W        W33471  12.263   4.202   1.095 -0.1124  0.0667  0.5463
20058W        W33472  11.692  16.673  11.217  0.1256  0.0645  0.0566
20059W        W33473  14.931   4.376   4.211 -0.2023 -0.0866 -0.4317
20060W        W33474   5.901  16.295  14.624 -0.0442  0.1673 -0.0269
20061W        W33475  10.775  11.708  15.573 -0.0353  0.3023  0.0203
20062W        W33476  17.541   0.235   3.035  0.1372 -0.0061 -0.2677
20063W        W33477   0.699  13.814  15.029  0.1052 -0.0553 -0.0138
20064W        W33478  10.045  17.413  15.939  0.0486 -0.1565 -0.1903
20065W        W33479  13.472  12.386  14.133  0.1057 -0.0746 -0.0456
20066W        W33480  15.891  16.387   2.581 -0.0841 -0.3211 -0.0772
20067W        W33481   4.660   2.905  11.627 -0.0688  0.3375  0.1845
20068W        W33482   7.450   8.699   5.156 -0.0573  0.1395  0.0651
20069W        W33483  14.348   4.822   0.855 -0.1892  0.0154  0.0732
20070W        W33484   2.998  10.788  14.394 -0.0662  0.2073 -0.2713
20071W        W33485   5.892   2.916   1.804  0.0974  0.0448 -0.1115
20072W        W33486   3.244  15.043   4.868 -0.1310  0.0561 -0.0966
20073W        W33487  11.246   4.405   3.819 -0.2702 -0.1062 -0.0633
20074W        W33488  11.833   3.172   3.270  0.1864  0.0318 -0.0661
20075W        W33489  11.296   2.466  12.682  0.1322  0.0409 -0.0992
20076W        W33490   2.440  11.010  10.789  0.0291  0.3060  0.4108
20077W        W33491   5.736  17.192  15.947  0.1439 -0.3939  0.0013
20078W        W33492   8.310  16.363  13.100  0.2798  0.2159  0.0042
20079W        W33493   6.465   7.461  14.798  0.1210 -0.1447  0.1838
20080W        W33494   0.069   7.855   6.118 -0.2062  0.0823  0.2140
20081W        W33495   6.253  17.422   3.256  0.1966 -0.1423 -0.0904
20082W        W33496  17.818   8.816  11.268 -0.3112 -0.0994  0.1134
20083W        W33497  13.346  10.875  13.197 -0.0130  0.1639 -0.1071
20084W        W33498   8.166   8.267   3.699 -0.0538 -0.1569 -0.0852
20085W        W33499  13.266  16.791  11.782  0.1933  0.0634 -0.0367
20086W        W33500  11.711  12.438   4.958 -0.2226 -0.4411  0.3681
20087W        W33501  16.964   1.840  11.569  0.0964 -0.2378 -0.0288
20088W        W33502  14.364  17.729  12.197  0.1051 -0.2323  0.1421
20089W        W33503  15.484   3.891   2.570  0.1582  0.0999  0.1211
20090W        W33504   5.285   1.983   0.566 -0.3664  0.0783 -0.0876
20091W        W33505   3.370  10.748   5.803 -0.0707 -0.1377 -0.0348
20092W        W33506   3.196  16.981   0.505 -0.3575 -0.0631  0.0138
20093W        W33507  17.601   8.772  14.387 -0.2869  0.0264  0.1322
20094W        W33508   3.692  12.140  15.565 -0.0153 -0.1108 -0.2760
20095W        W33509  14.193   5.786   0.791 -0.4872  0.0236 -0.2125
20096W        W33510  11.513  17.046  16.080  0.0149  0.2082  0.0604
20097W        W33511   4.433  12.850   3.344 -0.1251  0.1375 -0.0372
20098W        W33512   6.397   1.304  10.507 -0.0775 -0.1755  0.1230
20099W        W33513  13.052   6.393  11.507 -0.1574 -0.0736 -0.0489
20100W        W33514  12.151   4.558  14.403  0.0813  0.2906  0.1093
20101W        W33515   0.555  14.133   5.865 -0.0514  0.1656  0.0352
20102W        W33516   7.396  18.024   4.330  0.1030 -0.0385  0.0971
20103W        W33517  10.557   0.552   1.371 -0.0540 -0.2249 -0.2541
20104W        W33518  12.450  11.152   3.232  0.3540 -0.1368 -0.1918
20105W        W33519  11.183  12.624  12.913 -0.1181  0.1639  0.0685
20106W        W33520  14.315  16.537   0.513  0.0693  0.0848 -0.1972
20107W        W33521   0.756   0.818  14.622  0.2284 -0.0570 -0.0132
20108W        W33522   6.166   7.366  15.664  0.2028  0.0326  0.2697
20109W        W33523   6.456   2.570  14.287 -0.0605  0.1849  0.2360
20110W        W33524  11.474   4.322  14.378  0.2343 -0.2609 -0.3494
20111W        W33525   8.741   3.236  14.477 -0.1699 -0.0541 -0.0363
20112W        W33526   9.648  16.499   5.069  0.0555 -0.0292  0.0930
20113W        W33527   0.192   9.369  11.677  0.2232  0.0187  0.0467
20114W        W33528   5.253   1.815  14.616 -0.0986  0.0454 -0.1112
20115W        W33529   8.953  17.386   4.930 -0.2103 -0.1253 -0.0073
20116W        W33530   9.607   0.780   5.549  0.2412 -0.0089 -0.0274
20117W        W33531  10.761   2.797   5.046  0.0821 -0.4973 -0.1902
20118W        W33532  17.818  10.863  12.506 -0.1263 -0.0240 -0.0927
20119W        W33533  14.590   3.646  13.147  0.0125 -0.0161 -0.1442
20120W        W33534  13.492  11.849  10.678 -0.2716 -0.3410  0.3093
20121W        W33535  16.613   4.527  12.631  0.1172 -0.1020 -0.0469
20122W        W33536  13.919   7.435   0.750  0.4659 -0.0301 -0.0831
20123W        W33537  15.119   2.137  14.392  0.1078 -0.1908 -0.0539
20124W        W33538   5.029   5.142   3.210 -0.0215 -0.0594  0.1863
20125W        W33539   3.792  12.364   5.468  0.2014 -0.2906 -0.2033
20126W        W33540  14.563   8.084   4.506  0.4827  0.1885 -0.0595
20127W        W33541   0.355   8.769   5.668 -0.1086  0.1624  0.0034
20128W        W33542   7.327  12.932  14.450  0.0552 -0.1766 -0.1302
20129W        W33543   3.773  10.626   2.168  0.0280 -0.1242 -0.3321
20130W        W33544   4.658  12.143   1.546  0.4263  0.1421 -0.0605
20131W        W33545  17.058   5.498   4.589  0.0327  0.0765  0.1080
20132W        W33546   8.829   0.249  11.016  0.0524 -0.0372  0.0358
20133W        W33547   1.911  12.255  12.064  0.1897 -0.0014  0.0905
20134W        W33548  15.257   0.573   5.447 -0.0091 -0.1194  0.0473
20135W        W33549  15.041   2.232   4.392 -0.1417 -0.3986 -0.2301
20136W        W33550   2.145   4.381  15.367  0.1741  0.1411 -0.0853
20137W        W33551   8.008   0.212   5.583  0.0700  0.3335  0.0029
20138W        W33552   8.053   3.413   0.315  0.4895 -0.1551 -0.2014
20139W        W33553   3.933  16.655   3.731 -0.2904  0.0403 -0.2015
20140W        W33554  11.579   2.886  16.194 -0.1866  0.0860 -0.0171
20141W        W33555  16.790   8.978  13.958 -0.1609  0.1466 -0.0482
20142W        W33556  11.608  10.652  10.910  0.0700 -0.2439 -0.2152
20143W        W33557  15.637   5.940  16.340 -0.0108 -0.0914  0.0056
20144W        W33558   7.559  15.073   2.557 -0.1005 -0.1483  0.0679
20145W        W33559   2.989   5.225  11.358 -0.3077 -0.1712  0.0777
20146W        W33560   6.304   9.017  16.213 -0.2491  0.0667 -0.0852
20147W        W33561  14.056   7.846   0.336  0.0648 -0.0079 -0.1133
20148W        W33562   7.684   3.744   4.388  0.0778 -0.1166 -0.1531
20149W        W33563   7.496   1.880  15.824 -0.0292  0.1510 -0.1960
20150W        W33564  16.916   1.190  12.800  0.4273 -0.1591  0.1173
20151W        W33565   6.521  17.634   1.974  0.3025  0.2739 -0.1597
20152W        W33566  10.624   2.558  10.641 -0.2480 -0.2422  0.3294
20153W        W33567   9.140   4.416  14.205  0.2636 -0.2431 -0.0752
20154W        W33568  17.420   9.336  11.850  0.0262  0.6207  0.0423
20155W        W33569  13.096   3.248   3.555 -0.2297  0.0286 -0.2035
20156W        W33570   5.484  10.011  11.266 -0.0451  0.0926 -0.1295
20157W        W33571  16.263  13.676   1.568  0.1307  0.1376 -0.0556
20158W        W33572   1.106  13.505  12.252  0.1885 -0.0793  0.1998
20159W        W33573   3.383  16.568   2.646 -0.0919 -0.1365 -0.1514
20160W        W33574  11.018   5.869   0.256  0.0461 -0.2253  0.4614
20161W        W33575  14.028  14.792   5.006  0.0961  0.1046  0.1891
20162W        W33576   2.533   9.154  16.059  0.1646 -0.2119  0.2435
20163W        W33577   9.708  11.333   3.545  0.0428  0.2418 -0.1383
20164W        W33578   3.848  11.787  11.408 -0.1636 -0.0939  0.2108
20165W        W33579  14.283  15.332  16.013  0.0056  0.0055 -0.1303
20166W        W33580   8.593   4.530  15.704 -0.1163  0.1297  0.2294
20167W        W33581   8.849  14.049  10.689  0.0725 -0.0956  0.0680
20168W        W33582  12.741   3.084   1.729 -0.0064  0.0145 -0.1407
20169W        W33583   3.839   4.778  15.020  0.0445  0.1934  0.3959
20170W        W33584  13.104  16.439  12.908  0.0093 -0.1277  0.0825
20171W        W33585   0.398  17.229  16.237  0.1278 -0.1914  0.1707
20172W        W33586  15.300   0.355  13.801 -0.2734 -0.1276 -0.0890
20173W        W33587   5.412   7.984   2.483  0.3314 -0.1430 -0.1005
20174W        W33588   8.343   0.932   4.563 -0.2766 -0.1306  0.0183
20175W        W33589  17.280   3.954   3.159 -0.0190 -0.2047  0.2082
20176W        W33590  13.548   7.707   1.701 -0.1767 -0.0432 -0.0075
20177W        W33591  14.056  16.306  16.027 -0.0588 -0.3462 -0.1777
20178W        W33592  11.011   5.493   0.666 -0.0654  0.1719 -0.1709
20179W        W33593   9.533   1.854  11.059  0.2738 -0.3232  0.1607
20180W        W33594   4.857   3.865  11.644 -0.1011 -0.0533 -0.1028
20181W        W33595   5.499  11.430  11.129  0.0084 -0.2644  0.0803
20182W        W33596  10.188   9.215  13.529 -0.0599 -0.1837 -0.1142
20183W        W33597  12.063  16.106   4.741  0.1293  0.1977  0.0056
20184W        W33598  17.529   2.187  12.350 -0.2303  0.1789  0.0849
20185W        W33599  12.582   3.929   0.316 -0.0456  0.0970  0.3051
20186W        W33600   5.918   9.766   1.359 -0.1243 -0.0747 -0.0426
20187W        W33601   5.159  12.243   1.490 -0.1889 -0.0279  0.2869
20188W        W33602   2.264   4.207  11.620 -0.0301 -0.0498 -0.2796
20189W        W33603  14.895   4.997  11.857  0.0763 -0.2373  0.1223
20190W        W33604   6.495   1.262   2.002  0.0037  0.2570  0.0366
20191W        W33605   5.600  14.322   2.121  0.0555 -0.1425  0.0458
20192W        W33606  12.745   0.970   5.426  0.1498  0.0685  0.3806
20193W        W33607  10.938  16.662   5.676  0.1032 -0.2690  0.3062
20194W        W33608   8.565   5.987   5.617  0.0348 -0.3618  0.0987
20195W        W33609  15.686  13.438  14.249  0.1004 -0.1227 -0.2175
20196W        W33610   7.012  13.320   4.834 -0.2320 -0.1577 -0.1948
20197W        W33611  16.435  16.573  14.442  0.0304  0.2000 -0.0573
20198W        W33612   4.361   7.898   3.430  0.1971  0.0621 -0.2001
20199W        W33613  14.907   3.850   4.131  0.1478 -0.0123 -0.0740
20200W        W33614  12.291  15.536  11.383  0.0916 -0.2211 -0.4514
20201W        W33615   3.810   3.893  14.727 -0.2901  0.2706 -0.1282
20202W        W33616  16.672   8.733  15.109 -0.1169 -0.1319 -0.3425
20203W        W33617  12.686  10.290  13.337  0.0054  0.0535 -0.0314
20204W        W33618  12.790   5.063  11.768 -0.2049  0.0816 -0.3004
20205W        W33619  12.482  14.972  11.131 -0.1747  0.2093  0.1561
20206W        W33620  10.233   9.485   0.733  0.3621 -0.0347 -0.0186
20207W        W33621  16.151   1.147  13.238 -0.0818 -0.0059  0.1526
20208W        W33622  17.838   9.541  15.020 -0.0062  0.0200  0.1315
20209W        W33623   0.851  13.590  16.378 -0.2069  0.1807  0.0632
20210W        W33624   2.303   2.435   5.466 -0.1520  0.0398 -0.1446
20211W        W33625  10.028  11.496   1.305  0.1066 -0.0599  0.2775
20212W        W33626   3.431   1.994  11.301  0.2039  0.2871 -0.3585
20213W        W33627  13.427   6.898   5.181  0.2088 -0.2014 -0.1095
20214W        W33628   1.549  11.775  16.350 -0.2274 -0.0954  0.0240
20215W        W33629   6.556  14.936   0.557 -0.0634  0.0060 -0.1324
20216W        W33630   9.241   6.039   2.527 -0.0779 -0.0621  0.2498
20217W        W33631  16.590  10.862  15.871  0.2903 -0.0225  0.1417
20218W        W33632  16.303   7.742   5.147  0.0117  0.0000 -0.0670
20219W        W33633  16.123  12.541  15.352  0.1724  0.0000 -0.2569
20220W        W33634   1.052   7.459   4.526  0.2074 -0.1852 -0.1259
20221W        W33635   1.232  13.762  12.729 -0.5204 -0.0013  0.1044
20222W        W33636  14.808   3.261  16.546 -0.3953  0.0373  0.0243
20223W        W33637   5.401   7.069   2.186  0.0270 -0.1333  0.2326
20224W        W33638   2.443   7.567  13.023 -0.3907  0.0388  0.1635
20225W        W33639  16.993   6.529  13.788  0.0379  0.1161  0.0666
20226W        W33640   2.886   4.012   2.446  0.1077 -0.2068 -0.2272
20227W        W33641   8.002   6.521   0.328  0.0366 -0.1772 -0.2610
20228W        W33642  10.458   9.883   5.839  0.0746 -0.0409 -0.0675
20229W        W33643   8.331  16.432   4.136 -0.1017  0.1648  0.0828
20230W        W33644  16.787  12.213  13.081  0.2107 -0.0063 -0.2737
20231W        W33645   1.839   4.462  11.549  0.1005  0.0509  0.0737
20232W        W33646  12.037  12.245  11.994  0.2051  0.0033 -0.0092
20233W        W33647   9.327  17.036   3.482  0.0501 -0.3881 -0.1152
20234W        W33648   9.830  14.079  15.623  0.2087 -0.1420  0.0308
20235W        W33649   2.870   4.680   6.252 -0.2924  0.0777 -0.2745
20236W        W33650  12.850  17.480  14.749  0.0725 -0.0812  0.0497
20237W        W33651  10.585   3.570  14.824  0.0644  0.1577 -0.0317
20238W        W33652   4.714  16.801  12.473  0.0215  0.1813  0.2189
20239W        W33653  10.443  11.505   0.976 -0.0711 -0.1691  0.3499
20240W        W33654  15.343  10.470   5.307  0.0199 -0.2158  0.0702
20241W        W33655   0.271   8.647   3.791 -0.2248 -0.1460 -0.3092
20242W        W33656   9.159   3.753   0.191  0.1083 -0.3928 -0.1827
20243W        W33657  15.605   2.400  13.228  0.1740  0.0156  0.0284
20244W        W33658  12.697   0.085  14.152 -0.1018 -0.2913 -0.0738
20245W        W33659  11.267   0.344   0.233 -0.0984  0.1623  0.2048
20246W        W33660  14.881  13.590   4.885 -0.1447  0.1898  0.1612
20247W        W33661   5.697  10.595  13.909  0.1974  0.4076  0.2007
20248W        W33662  14.439   7.501  14.980 -0.1060  0.1793 -0.2830
20249W        W33663  10.488   1.800   6.081 -0.0889 -0.1038 -0.1037
20250W        W33664  15.301   0.608  12.366  0.1130  0.0486 -0.1483
20251W        W33665  13.791   6.825   1.552  0.1769 -0.0190  0.0889
20252W        W33666  17.699  13.406  13.059  0.0483 -0.0719  0.0061
20253W        W33667   2.798  11.833  15.191 -0.3352 -0.0393 -0.1455
20254W        W33668  13.727  14.882  10.441 -0.1318 -0.1796 -0.1775
20255W        W33669  13.576  13.374   0.066  0.0783 -0.1194 -0.1199
20256W        W33670  14.136   6.568   0.753 -0.0616  0.1162  0.0575
20257W        W33671  14.651   4.440   1.589  0.0039  0.0560  0.0322
20258W        W33672   6.682   8.971   5.985 -0.2447 -0.1734  0.0866
20259W        W33673   6.697   8.363   4.209 -0.0817 -0.1136 -0.1013
20260W        W33674   0.786   9.763  16.414 -0.0373  0.2797 -0.0202
20261W        W33675   8.179  11.845   0.090  0.0471 -0.1954 -0.1468
20262W        W33676  11.164  10.015   4.284  0.4077  0.4220  0.0152
20263W        W33677   5.764   6.912   0.631 -0.0018  0.0882  0.1029
20264W        W33678  10.692   8.830   0.155  0.2528  0.0181 -0.0905
20265W        W33679   5.023  16.592  15.014 -0.1161 -0.0323 -0.1894
20266W        W33680   7.795  16.186  12.169  0.1229 -0.0755  0.0563
20267W        W33681  16.731  10.361  15.978  0.0442  0.0503 -0.0704
20268W        W33682  17.285   8.885   4.350 -0.0114  0.0248  0.0258
20269W        W33683   4.273  17.824   2.577 -0.1022 -0.0447 -0.0777
20270W        W33684  11.500  13.965   4.784  0.1147  0.1370  0.0600
20271W        W33685  17.639   3.797   3.484  0.1974 -0.2832  0.0659
20272W        W33686  14.133  17.210  15.076 -0.1264  0.1404  0.1336
20273W        W33687   2.208   1.800  15.014 -0.0718  0.0943  0.0670
20274W        W33688   1.825  13.215  11.683  0.1710  0.0699  0.2138
20275W        W33689  10.541   6.870  15.733  0.0424 -0.0523 -0.2027
20276W        W33690  11.175   3.120   4.855 -0.1139 -0.0136 -0.1606
20277W        W33691   3.879  12.240  11.616 -0.1087 -0.3862  0.1123
20278W        W33692  16.861   9.631  15.301 -0.1084 -0.2655  0.3350
20279W        W33693  10.690  11.281   5.692  0.2612  0.1720 -0.0081
20280W        W33694  14.324  12.400   0.320  0.3730  0.0411  0.1889
20281W        W33695   2.647   3.864  12.612  0.0768 -0.3972 -0.0303
20282W        W33696  11.425  10.396   3.351 -0.0727  0.5223 -0.1526
20283W        W33697   9.289  10.573  12.690  0.2100  0.0729  0.0769
20284W        W33698   7.774   9.502  12.574  0.0125  0.1623  0.0672
20285W        W33699  13.439   5.710   1.592  0.2148 -0.4042 -0.1083
20286W        W33700  16.274  15.252  11.000  0.1200 -0.3657  0.0371
20287W        W33701  13.290   0.141   5.671  0.0029 -0.2164 -0.1442
20288W        W33702  14.081   9.097   1.675 -0.3255  0.2003  0.2650
20289W        W33703   1.006  14.259  12.822 -0.0232  0.2085  0.2206
20290W        W33704  17.906  17.952  15.886  0.1801  0.0016 -0.1418
20291W        W33705   3.109  12.724  11.173  0.1083  0.1484  0.0459
20292W        W33706   4.253  12.133   4.369 -0.2955  0.0272  0.2712
20293W        W33707   7.040  10.514   3.251 -0.1975 -0.1594 -0.0899
20294W        W33708   3.236   4.357   0.595 -0.1141  0.1730  0.0657
20295W        W33709   9.880  16.409  10.855  0.0281 -0.3331 -0.0611
20296W        W33710  16.740  16.976  11.256  0.0589  0.0104 -0.3445
20297W        W33711  15.216   1.271  14.466  0.1251 -0.2100  0.0063
20298W        W33712   5.836   0.643  13.371  0.0556  0.2895  0.3241
20299W        W33713  15.969   2.665  14.740 -0.0749  0.1146 -0.0207
20300W        W33714  16.370   8.095  12.547  0.0710  0.1261 -0.0748
20301W        W33715   9.956   7.499  13.006  0.1092 -0.1692  0.0273
20302W        W33716  13.743  13.466  15.442  0.1948  0.3716  0.3436
20303W        W33717  13.012  16.493  12.096 -0.0094 -0.1556  0.0107
20304W        W33718   7.245  10.616  13.053  0.0098 -0.0459  0.2766
20305W        W33719   7.118   3.608  12.266  0.2540 -0.2563 -0.0717
20306W        W33720  15.230   7.876   0.998 -0.1334  0.3348  0.0793
20307W        W33721   2.587  15.491   2.255 -0.1607 -0.0299  0.0070
20308W        W33722   5.230  10.255  14.039 -0.3114  0.1048  0.1642
20309W        W33723   5.421   0.454  14.686  0.2938  0.3455 -0.1964
20310W        W33724   4.162  13.837   0.648 -0.0512  0.3076  0.0737
20311W        W33725   5.716   5.810  13.387 -0.2286 -0.2822 -0.3628
20312W        W33726  14.603   8.307  11.536  0.1819 -0.3928 -0.0494
20313W        W33727  10.580  15.544  14.836  0.0775 -0.0808 -0.1802
20314W        W33728  16.624   7.861  14.648 -0.0139  0.0986 -0.0505
20315W        W33729   9.728  17.782   4.085 -0.0417 -0.0223  0.1863
20316W        W33730   2.331  16.178   4.514 -0.1332 -0.1497  0.1028
20317W        W33731  10.149   0.097   0.332 -0.0361  0.0237  0.0518
20318W        W33732  13.489   7.813   6.478 -0.3379 -0.0768 -0.0622
20319W        W33733  14.103   3.233   1.982 -0.1481  0.1555  0.1595
20320W        W33734   0.235  15.663  13.141 -0.0263 -0.2947  0.0594
20321W        W33735   6.763   3.195   2.349  0.0621  0.1769 -0.0657
20322W        W33736  13.109  14.932   3.931  0.0552  0.0861 -0.0162
20323W        W33737   2.754   1.010   2.866  0.1378 -0.2484 -0.1255
20324W        W33738  17.929   5.947   1.000  0.3040  0.1377 -0.1711
20325W        W33739   1.433  14.610   4.576 -0.2780 -0.1229 -0.3922
20326W        W33740  13.711  12.038  13.831 -0.0032  0.3102  0.0795
20327W        W33741   9.255   5.412  12.528 -0.1105 -0.4352 -0.0209
20328W        W33742  16.081   8.282   4.560  0.1829  0.0648  0.1180
20329W        W33743   6.672  16.003   4.197 -0.0754  0.1150 -0.2905
20330W        W33744   8.851  10.904   1.924  0.1009  0.3045  0.4108
20331W        W33745  10.080   4.145  15.135  0.1910  0.0867  0.1291
20332W        W33746   1.111   5.575  11.040 -0.0012 -0.0090  0.0297
20333W        W33747  16.962  10.505  11.915 -0.1419  0.0978  0.0680
20334W        W33748   8.282   1.212   2.738  0.0236 -0.1001  0.0302
20335W        W33749   6.275  14.309   2.236 -0.0567 -0.2629 -0.1305
20336W        W33750  10.333  13.788  11.504 -0.2730 -0.1007 -0.0996
20337W        W33751   8.387  13.287   1.877  0.1651  0.2434 -0.0307
20338W        W33752   2.756   3.282  13.284 -0.0549  0.1478 -0.2148
20339W        W33753   9.520   6.339  14.810  0.1187 -0.0710 -0.4756
20340W        W33754   2.964  13.616  16.353 -0.0073  0.2313 -0.1062
20341W        W33755  13.820  15.290   4.959  0.1706 -0.1502 -0.2209
20342W        W33756   0.128   7.199   1.721  0.0018 -0.1838  0.1818
20343W        W33757  16.847   8.378  14.787  0.0334 -0.2666 -0.1956
20344W        W33758   0.098   8.598  13.876 -0.1420  0.1008 -0.1099
20345W        W33759   4.098   4.739   2.799 -0.0075 -0.0527 -0.1222
20346W        W33760   9.504  10.485   2.577  0.1383  0.4284  0.1243
20347W        W33761  18.009  17.817   4.380 -0.2835 -0.0645  0.2007
20348W        W33762   8.571  12.858   4.406  0.0507  0.1427 -0.0248
20349W        W33763   3.580  16.366  12.734 -0.3093  0.1608 -0.2487
20350W        W33764  12.361   7.037  13.011  0.0160 -0.1659 -0.0603
20351W        W33765   3.423   3.494   1.032  0.2617 -0.0618 -0.1010
20352W        W33766  10.102  16.066  11.207 -0.0357  0.0284 -0.2113
20353W        W33767   0.065   3.907   5.680  0.0137  0.1337  0.1615
20354W        W33768   6.969   6.110   1.181  0.0261 -0.1267  0.1302
20355W        W33769  14.376   0.853   1.290  0.1591  0.0347  0.1454
20356W        W33770  11.556   1.143   1.386 -0.1673 -0.0360  0.1319
20357W        W33771  14.525  15.134  14.616  0.1706 -0.1920 -0.1189
20358W        W33772  11.899  11.235   5.235 -0.0204 -0.0135 -0.0860
20359W        W33773  17.807   8.675   6.141  0.1676  0.2479  0.0339
20360W        W33774  11.052  16.381   3.095 -0.2746  0.0602 -0.1782
20361W        W33775  15.022   9.900  16.441  0.4956 -0.3483 -0.1929
20362W        W33776  15.451  16.431   5.396  0.0227 -0.0839  0.2175
20363W        W33777   0.989  17.076  16.489 -0.2438 -0.1525  0.1332
20364W        W33778  16.468   7.668   4.414  0.2246 -0.3508 -0.0334
20365W        W33779  17.880   9.119   2.710 -0.2847  0.0908  0.0729
20366W        W33780   9.223   9.785   2.294 -0.4424 -0.2988 -0.4084
20367W        W33781  11.858  14.709   4.352 -0.3119 -0.2255 -0.1180
20368W        W33782  11.954   4.876  14.735 -0.0854 -0.2414 -0.0507
20369W        W33783   7.753  16.125   1.161 -0.3701  0.0357  0.0324
20370W        W33784  14.840  15.536  11.108 -0.1347  0.1228 -0.3670
20371W        W33785   7.291  11.554  11.884 -0.2014 -0.2861  0.0946
20372W        W33786   4.541  17.858  14.629  0.0568 -0.0877 -0.0476
20373W        W33787  10.118   2.852  15.083 -0.0891 -0.2789 -0.0478
20374W        W33788   1.878  17.849   0.371 -0.0307 -0.2256 -0.1003
20375W        W33789  15.189   8.308   0.765 -0.3221  0.2672 -0.2426
20376W        W33790   2.306   5.263  15.240 -0.0027  0.1764  0.3040
20377W        W33791  10.240   5.444  15.285  0.0464 -0.1941 -0.1361
20378W        W33792   8.563   6.616  11.561  0.2396 -0.2463  0.1638
20379W        W33793   1.454  15.193   5.895  0.2147  0.1359  0.0211
20380W        W33794   4.247  16.330  16.073  0.1358 -0.2489 -0.0122
20381W        W33795   7.216  12.116   5.259  0.1512 -0.2104 -0.0607
20382W        W33796   7.376  17.310   4.096 -0.0444 -0.0601  0.4044
20383W        W33797  11.303   1.242   0.503 -0.0347  0.0576  0.3158
20384W        W33798   9.806  15.079   1.645 -0.1195 -0.1134 -0.0647
20385W        W33799  15.849  16.051   5.265 -0.1476 -0.0450 -0.2491
20386W        W33800   8.831   5.538  15.776  0.0588 -0.0381 -0.0178
20387W        W33801  15.928   0.660  13.264 -0.3420  0.0861  0.0748
20388W        W33802   4.186   9.967  13.587  0.1589 -0.1862  0.2222
20389W        W33803  17.283   9.215   2.701 -0.2663  0.0228  0.3328
20390W        W33804  11.407   4.170  13.926 -0.1519  0.1446 -0.1494
20391W        W33805  17.133  16.820   2.942  0.2214 -0.0729  0.0611
20392W        W33806  11.941  14.073   5.065  0.1186  0.0327 -0.0258
20393W        W33807   2.163  11.829  10.443  0.2811 -0.0918 -0.1175
20394W        W33808   2.524   2.166  11.518 -0.0124  0.3683 -0.2121
20395W        W33809   8.751  15.480   2.957  0.1855  0.0728 -0.0137
20396W        W33810   5.355   4.611  10.913 -0.1093 -0.1051 -0.0546
20397W        W33811   2.588   3.585  16.681  0.1254 -0.2533 -0.0510
20398W        W33812   1.448  16.013   4.285 -0.2022 -0.1116  0.0324
20399W        W33813  12.273   6.086   3.524 -0.1111  0.0713  0.0206
20400W        W33814   9.013   1.640  12.283  0.1043 -0.1153  0.2423
20401W        W33815  16.193   2.592   4.435 -0.2931 -0.3431 -0.1034
20402W        W33816  16.942   5.210  15.332 -0.2225  0.1872  0.2722
20403W        W33817   2.538  12.907   2.909 -0.0902  0.0949 -0.2093
20404W        W33818  16.265   7.504  11.325  0.0764 -0.1422  0.3272
20405W        W33819  15.752  12.082  10.286  0.2296 -0.2998  0.2618
20406W        W33820   8.415  13.704   4.459  0.1220 -0.3078  0.0513
20407W        W33821   5.687  17.530  11.450  0.0656 -0.2892  0.1123
20408W        W33822   3.575   0.323  16.655  0.1686  0.0192 -0.1470
20409W        W33823  10.264  15.233  12.241 -0.2031  0.1428  0.0525
20410W        W33824   9.921   8.234  12.353 -0.0141  0.2297 -0.0284
20411W        W33825   2.729   7.812   2.990  0.0790 -0.4705 -0.0226
20412W        W33826  14.327  17.898   2.342 -0.3130  0.1085  0.0654
20413W        W33827   1.086   5.933  15.536 -0.0071  0.1375 -0.0483
20414W        W33828   6.910   4.023   2.382  0.2308 -0.0232 -0.0766
20415W        W33829   2.361   2.140  16.436  0.0502  0.0289  0.0140
20416W        W33830  11.476  15.613  14.326 -0.0428 -0.2567 -0.1058
20417W        W33831  12.562  14.404  16.648 -0.0196 -0.5411  0.5419
20418W        W33832  14.306  17.181  16.372 -0.0801 -0.2151 -0.0454
20419W        W33833   3.899  16.112  11.794 -0.0970  0.3893  0.2106
20420W        W33834   2.911  12.230   4.378 -0.2891 -0.1669 -0.0679
20421W        W33835   8.883   0.575  13.572 -0.3423  0.2590  0.0233
20422W        W33836  11.463  15.796  13.871  0.4952  0.0026  0.1543
20423W        W33837  17.102  14.694   3.230  0.0509 -0.0313  0.2399
20424W        W33838   6.251   3.455  14.510  0.0815  0.1402  0.1978
20425W        W33839   2.502  10.930  14.494  0.0706 -0.1104 -0.0508
20426W        W33840  16.987   5.757  14.488  0.1606  0.1123  0.0134
20427W        W33841   8.588   1.424  13.654 -0.4373 -0.2195  0.0573
20428W        W33842   0.041   9.374  16.558 -0.1861 -0.1011 -0.0520
20429W        W33843  13.345  16.643  10.959 -0.1485  0.0508  0.2582
20430W        W33844   8.859   1.055   2.054 -0.2018  0.1317  0.0368
20431W        W33845   0.112   3.098   4.433  0.2489  0.0963  0.0385
20432W        W33846  15.877   5.744   0.720 -0.1281  0.2479 -0.2299
20433W        W33847  16.849   5.318   3.433  0.1288 -0.2075  0.0227
20434W        W33848  15.154  16.697  13.831  0.1678 -0.0316  0.2558
20435W        W33849   7.176  13.900  10.843  0.3545 -0.1681 -0.2444
20436W        W33850  14.613   8.639  16.668  0.3438  0.1388 -0.1958
20437W        W33851   0.453   1.958   4.989 -0.1406  0.4065  0.0139
20438W        W33852  15.878   4.082   6.136  0.0686  0.3346  0.1648
20439W        W33853  17.554   8.904   1.408  0.1113 -0.2017 -0.2298
20440W        W33854   7.225  16.531  16.560  0.0530 -0.0910 -0.1222
20441W        W33855  10.856  11.133  12.560 -0.0526  0.0242 -0.0998
20442W        W33856  11.500   5.277  12.388 -0.1375 -0.2092  0.1150
20443W        W33857  13.940  13.428  11.282  0.0766  0.2843  0.0247
20444W        W33858  11.737   4.005  12.017  0.0353 -0.0611  0.1349
20445W        W33859  11.247   7.764  11.502  0.1710 -0.1081  0.0346
20446W        W33860  10.648   2.183   5.828 -0.1864 -0.4554 -0.0937
20447W        W33861   6.574   5.893   2.183 -0.1399  0.0216  0.2427
20448W        W33862   8.168   8.235   6.197 -0.2028  0.0438  0.1666
20449W        W33863   5.955   9.128   0.358 -0.1694 -0.1295 -0.1890
20450W        W33864  14.466   3.599   0.185 -0.1609 -0.3922  0.2984
20451W        W33865  11.695  17.103  10.859  0.0345  0.0805  0.0086
20452W        W33866   0.170  12.221  14.613 -0.2880  0.1876 -0.2146
20453W        W33867   2.400  16.760   2.075  0.2438 -0.0402  0.0475
20454W        W33868  11.338   9.218   3.164  0.1238  0.0532  0.1781
20455W        W33869   4.954  14.457  15.452  0.0279  0.2800  0.1418
20456W        W33870  10.343   3.570  14.400  0.1555  0.0990  0.1205
20457W        W33871   2.019  15.462   6.815  0.0047 -0.1822 -0.0706
20458W        W33872   3.939   9.797   5.949 -0.1345 -0.1675 -0.1299
20459W        W33873   0.268   7.282   1.002  0.1551 -0.1174  0.0816
20460W        W33874   5.355   3.980   3.977  0.2547 -0.0073  0.1136
20461W        W33875   0.253  16.022   4.068  0.2448 -0.0846 -0.0636
20462W        W33876   7.532   2.587  10.565 -0.3680  0.2611  0.3302
20463W        W33877  16.572   5.351   4.376  0.2118  0.0335 -0.2679
20464W        W33878  17.407  17.685   2.200  0.2130 -0.1666  0.1656
20465W        W33879   9.094  14.558  12.533 -0.1392 -0.0448  0.3298
20466W        W33880   4.105  11.478   5.752 -0.0206  0.1912  0.0230
20467W        W33881  15.894   3.048   1.082  0.1061 -0.0161  0.0116
20468W        W33882  14.777   8.792  12.710 -0.1268  0.0451  0.0850
20469W        W33883   6.006  10.448   3.501 -0.3920 -0.1451 -0.0335
20470W        W33884  15.745   4.179   0.436 -0.1711  0.0093  0.1912
20471W        W33885   4.411   7.395   2.144 -0.0149 -0.0259  0.0195
20472W        W33886  15.346  14.513  11.864 -0.0969  0.0527  0.0864
20473W        W33887  11.909   6.071  13.754 -0.0171  0.1423  0.1069
20474W        W33888  17.465   4.111  13.131  0.1662  0.0612  0.4241
20475W        W33889   1.372  15.485   1.256 -0.3931 -0.2071  0.0693
20476W        W33890   1.850   6.389   4.027  0.0579 -0.0048 -0.0005
20477W        W33891  17.236   4.738  11.678 -0.4363  0.0912 -0.0828
20478W        W33892  11.767   1.919   2.828 -0.0043 -0.1340  0.0967
20479W        W33893  16.007  12.801  15.968 -0.2459  0.1474  0.2551
20480W        W33894  16.253  10.780   3.412 -0.0084 -0.0138 -0.3606
20481W        W33895  17.780   2.900   5.837 -0.1068 -0.1072 -0.0141
20482W        W33896   6.300   5.726  13.823 -0.2228  0.1613 -0.2015
20483W        W33897   8.212  12.053  12.914 -0.2256  0.4956  0.1403
20484W        W33898  12.260   5.726  13.117 -0.0115  0.0625  0.2905
20485W        W33899  15.199   2.769   3.043  0.0525 -0.0605 -0.1564
20486W        W33900  14.371  12.262  15.679 -0.1058 -0.1509 -0.1343
20487W        W33901  13.582   4.494   1.767 -0.0243 -0.1968 -0.0585
20488W        W33902   1.145   1.086  13.759 -0.0756  0.3287  0.3561
20489W        W33903  13.815  13.915   2.224  0.1617 -0.2991 -0.0695
20490W        W33904   1.132  16.220   0.041  0.2589  0.0434 -0.0244
20491W        W33905   3.487   1.276   4.579 -0.0869  0.0661 -0.2218
20492W        W33906  14.199   7.490   5.231 -0.1615  0.2606  0.1240
20493W        W33907   7.388   7.382  10.977 -0.0683 -0.1482  0.0815
20494W        W33908  17.146   8.623  16.185  0.1057 -0.0430  0.0141
20495W        W33909  14.844  13.814   3.903  0.2495 -0.2158 -0.1993
20496W        W33910   0.965  17.817  12.750  0.2682 -0.0049 -0.0333
20497W        W33911   3.990  14.641   0.054  0.2181  0.1632 -0.2949
20498W        W33912   9.701   1.154  13.741 -0.0122  0.0198  0.1689
20499W        W33913   6.942   1.497   2.898 -0.0266 -0.1399  0.1130
20500W        W33914   7.613   5.547   5.598  0.0604 -0.1225  0.1485
20501W        W33915  12.347  15.231  11.783  0.1616  0.1374  0.1147
20502W        W33916  14.735   4.872   4.127  0.0963  0.1993 -0.3863
20503W        W33917   7.100   7.382  12.695 -0.1719  0.2218  0.1124
20504W        W33918   2.727   3.506  12.196 -0.2151  0.0938 -0.0255
20505W        W33919   5.418   8.484  16.040 -0.0251  0.0206  0.1714
20506W        W33920   7.749   1.784   4.405 -0.0052  0.2837 -0.3010
20507W        W33921  14.264   3.151   1.053 -0.2609 -0.0118  0.1355
20508W        W33922   6.029   6.429   9.826  0.0743 -0.1289  0.0838
20509W        W33923   2.446   5.546   6.655  0.1037  0.0961 -0.0951
20510W        W33924  17.574   5.569  13.236 -0.0877 -0.0625  0.1684
20511W        W33925   0.721   9.105  16.150 -0.1576 -0.1950  0.1470
20512W        W33926   4.691  16.434  14.411  0.2332 -0.0530 -0.1997
20513W        W33927   2.069  11.743  16.321  0.1283 -0.2170  0.2701
20514W        W33928  16.073  14.888   0.311  0.0180  0.2101 -0.2271
20515W        W33929  12.503   8.033   4.645 -0.1603  0.2433 -0.0675
20516W        W33930  16.165   8.061  15.461 -0.1352  0.1485  0.0714
20517W        W33931  12.277  17.436   0.162  0.0628  0.0852  0.0036
20518W        W33932   7.190   2.754  13.165  0.0561  0.3156  0.0124
20519W        W33933   2.497   6.563   6.071 -0.0970 -0.3556 -0.0066
20520W        W33934   0.718  17.319  13.758  0.2383 -0.0398  0.2488
20521W        W33935   1.937   6.353   1.557 -0.0116  0.2434 -0.1614
20522W        W33936  10.930  17.439  12.358  0.2215  0.2941 -0.1824
20523W        W33937  13.093  16.675   4.529 -0.2429  0.0962 -0.2913
20524W        W33938   1.054   4.264  13.501  0.1651  0.2000  0.2079
20525W        W33939   5.385   6.238  13.279 -0.0961  0.1723  0.0345
20526W        W33940   2.463   2.510   0.782 -0.1847 -0.0575  0.2063
20527W        W33941  10.701  10.478   1.069  0.0777 -0.1127  0.1635
20528W        W33942   1.289   0.159  11.550  0.1933  0.0942  0.0620
20529W        W33943   3.585   8.425  13.979 -0.1045  0.2888 -0.1445
20530W        W33944   0.323  15.085   0.476  0.2597 -0.0474  0.0921
20531W        W33945  12.758   2.406  16.012 -0.1111  0.2020 -0.0979
20532W        W33946  12.071   8.381   2.413 -0.1939 -0.0128  0.3159
20533W        W33947  12.527   2.136  11.516  0.3875  0.2538 -0.2350
20534W        W33948  14.615  10.867  12.375 -0.0512  0.0034 -0.0633
20535W        W33949   7.341   4.047   4.012  0.0093 -0.0875 -0.1164
20536W        W33950   7.382   9.920   4.904 -0.1162 -0.0815 -0.4125
20537W        W33951  16.725   1.242   3.305 -0.1366  0.2290 -0.0421
20538W        W33952   7.570  11.076   4.378 -0.0437 -0.0036  0.0284
20539W        W33953  14.488  16.308   2.886  0.1519  0.0285  0.2317
20540W        W33954   3.559  17.189   5.740  0.2037  0.3371 -0.1713
20541W        W33955   1.249   4.034   1.825 -0.0876 -0.1009 -0.1378
20542W        W33956  15.642   1.650   4.597 -0.2890 -0.2142 -0.2280
20543W        W33957  15.147   6.693  16.363  0.0733  0.1520  0.1249
20544W        W33958   2.959  14.206   2.341  0.3233  0.3220 -0.0385
20545W        W33959  13.713   8.208   4.874  0.1769 -0.1756 -0.0772
20546W        W33960   4.413  14.022  10.536 -0.1640 -0.3141 -0.1677
20547W        W33961  13.229  16.774   6.888 -0.0066  0.0518 -0.0228
20548W        W33962  16.443   8.219  14.967  0.1694 -0.2608 -0.2187
20549W        W33963   9.592  12.067  11.078 -0.2261 -0.3054 -0.1945
20550W        W33964  14.098   2.659   1.230 -0.1228 -0.0434  0.1145
20551W        W33965  13.102  14.517   3.614  0.3647 -0.2437  0.3536
20552W        W33966  16.078  10.058  14.860 -0.0437  0.2494  0.4407
20553W        W33967  15.797   9.193  13.838 -0.3355  0.0151 -0.2412
20554W        W33968  11.143   9.968   2.557  0.1701  0.0428  0.1675
20555W        W33969   2.702   2.516   4.031  0.0331  0.1289  0.3154
20556W        W33970  14.072  17.077   1.914  0.0864 -0.4771  0.2515
20557W        W33971   0.389  17.641   0.622  0.0619  0.0449  0.0606
20558W        W33972   7.513   3.270   0.417  0.2010 -0.2457  0.2819
20559W        W33973  17.111   1.465   4.458  0.0036 -0.2900  0.3629
20560W        W33974  14.605   5.444  12.883  0.3744 -0.1422 -0.0453
20561W        W33975  17.648   4.189   0.614 -0.1812 -0.0896 -0.0102
20562W        W33976  14.249   9.836   2.846  0.3641  0.0522  0.0890
20563W        W33977  13.847   7.101  15.967  0.1964 -0.2022  0.2772
20564W        W33978  16.905  10.423   4.507  0.0344  0.0875 -0.1443
20565W        W33979  13.584  18.009   2.780 -0.1786 -0.1197  0.1890
20566W        W33980   1.045  15.801   1.523 -0.0484  0.0643  0.1598
20567W        W33981   6.204   0.739  14.262 -0.5743  0.0054  0.1696
20568W        W33982  16.516   2.670   6.283  0.1074 -0.0123 -0.0663
20569W        W33983  14.063  14.191   2.575 -0.2288  0.0114  0.2825
20570W        W33984   0.384  18.001  13.346  0.1236 -0.0390  0.1509
20571W        W33985  14.710   0.317   3.829  0.3666 -0.1042  0.1458
20572W        W33986  17.223   5.852   6.135 -0.2902 -0.0814 -0.3383
20573W        W33987   9.301   8.594  14.568 -0.0531 -0.0026  0.1421
20574W        W33988   6.181  11.286  11.631 -0.0489 -0.0243 -0.0773
20575W        W33989  12.257   8.458   3.384  0.1053  0.4332 -0.1229
20576W        W33990  16.610  14.694  10.249  0.1678 -0.0027 -0.0252
20577W        W33991   8.496   0.641   4.986 -0.2105  0.0203 -0.1585
20578W        W33992  17.344   8.981   4.785  0.2088  0.0934  0.0373
20579W        W33993  17.429   5.811  13.627  0.2522  0.2018 -0.3762
20580W        W33994   2.270   2.833   2.073 -0.0052  0.1891  0.1246
20581W        W33995  17.726  16.083  11.517 -0.1552 -0.3206  0.1656
20582W        W33996   5.140   2.723   0.542 -0.0998  0.0753  0.2314
20583W        W33997  14.919   5.973   5.879  0.1327  0.1023  0.2002
20584W        W33998  13.179   4.836   4.959 -0.1284 -0.0633  0.2124
20585W        W33999  11.734  16.412  13.396  0.0709 -0.0994 -0.1634
20586W        W34000  17.808   6.339   5.021  0.0079 -0.1138  0.0855
20587W        W34001   9.111  10.034   1.731  0.1714 -0.0750  0.0605
20588W        W34002   9.623  16.413   3.548 -0.1896 -0.5904  0.0760
20589W        W34003   1.380   2.569   4.557 -0.1092 -0.2940  0.2930
20590W        W34004   7.961  16.764  10.862 -0.0308 -0.0068 -0.0285
20591W        W34005  13.001   9.003  12.616 -0.2424 -0.4972  0.0347
20592W        W34006  11.500  14.854   3.371  0.0902 -0.2899  0.0418
20593W        W34007   2.182   8.672  11.425  0.1611  0.1700  0.0212
20594W        W34008  16.395   2.156  10.954  0.2726  0.1225  0.0825
20595W        W34009  11.233  11.240   4.306  0.0618 -0.0272 -0.0473
20596W        W34010  14.680   8.419  13.592  0.0423  0.1423  0.2330
20597W        W34011   4.499   6.722  11.677  0.0669  0.0652 -0.1264
20598W        W34012   6.338   2.067   2.343  0.2224 -0.2490  0.0577
20599W        W34013   7.245  11.707  14.191  0.4626 -0.0686 -0.2022
20600W        W34014   3.205  16.248   2.268  0.1275 -0.1129 -0.2350
20601W        W34015   4.639  17.665  15.859  0.2336  0.2215  0.0460
20602W        W34016   3.057   7.304  11.327 -0.2245  0.1715  0.4857
20603W        W34017  14.824  16.056   4.666 -0.0884 -0.3049  0.1598
20604W        W34018   1.636  14.013   3.362  0.0122 -0.0104  0.2981
20605W        W34019   3.487  12.611  10.592 -0.0079  0.1937 -0.2880
20606W        W34020   1.411   3.039  12.205 -0.1920 -0.1520 -0.1382
20607W        W34021   2.757   0.296  13.700  0.2831  0.1314 -0.0527
20608W        W34022   6.779  17.212  15.728 -0.1936 -0.0698  0.2525
20609W        W34023  12.535   1.858  12.580  0.0981 -0.2948  0.0125
20610W        W34024   3.922  15.141  11.995  0.1774 -0.0217 -0.0322
20611W        W34025   0.702   4.407  13.903 -0.0809  0.0482  0.2228
20612W        W34026  14.388   6.199  11.734  0.0383  0.0033 -0.2949
20613W        W34027   6.565   7.067   4.946 -0.3602  0.2218  0.0958
20614W        W34028   8.533   7.003   1.343  0.1660  0.1563 -0.2339
20615W        W34029   1.102  10.964  14.395  0.0905  0.1632 -0.4076
20616W        W34030   2.814  14.471   0.971 -0.4023  0.0978 -0.0784
20617W        W34031   7.319   1.077  12.981  0.0370 -0.3310 -0.1592
20618W        W34032   0.266   8.069  13.521 -0.1069  0.2267 -0.0495
20619W        W34033  12.163   0.224  14.019  0.0098  0.0482  0.1699
20620W        W34034   2.616   6.333  12.724 -0.0985 -0.1147  0.0776
20621W        W34035   5.303  16.561   1.003  0.0654 -0.0492  0.3103
20622W        W34036  16.305   8.548   6.065 -0.0098 -0.0237 -0.0176
20623W        W34037   4.262  11.914   2.468  0.2204 -0.2701 -0.0946
20624W        W34038  11.849   1.086   3.028  0.0208  0.1196  0.0512
20625W        W34039   6.138   7.715   0.447 -0.2550  0.0708  0.1121
20626W        W34040  10.874   8.079   4.684 -0.1185  0.3885 -0.1048
20627W        W34041   4.146   3.123  13.669  0.2201  0.1599  0.1242
20628W        W34042  11.462   5.068  13.717 -0.0877 -0.0542 -0.2685
20629W        W34043  13.849  14.243   5.631  0.2269 -0.1318 -0.1007
20630W        W34044  14.089   4.561   1.666 -0.1333  0.0345 -0.1060
20631W        W34045   5.700   6.511   4.360  0.0608  0.0702  0.0440
20632W        W34046  18.042   3.355  15.363 -0.2591 -0.1803  0.0929
20633W        W34047   6.781  11.048   0.812 -0.1839  0.0817 -0.2973
20634W        W34048   8.064  12.273  15.372 -0.0570  0.0124  0.1014
20635W        W34049   8.472  14.268  10.345 -0.1870  0.0270  0.4032
20636W        W34050   1.163  12.171  11.242 -0.1618  0.0415  0.5032
20637W        W34051   6.274  15.929  13.247 -0.0653  0.0002 -0.2261
20638W        W34052   4.099  16.005  13.415 -0.1242 -0.2726  0.1114
20639W        W34053  11.301  14.557  12.459  0.0295  0.1938  0.3216
20640W        W34054   5.118   0.732   2.893  0.0847 -0.0767 -0.2065
20641W        W34055  13.480  15.422  12.553 -0.1164  0.0587 -0.1063
20642W        W34056   1.851  11.457   4.825 -0.0708  0.1766  0.0202
20643W        W34057   1.187  15.480   0.728 -0.0976 -0.2098 -0.0168
20644W        W34058   6.260  11.565   1.244 -0.2388 -0.0247  0.0239
20645W        W34059   2.005  15.661   0.019  0.2267  0.1481  0.0631
20646W        W34060   3.274   7.405   2.296 -0.2048  0.0145  0.0006
20647W        W34061  17.738   9.863   2.067 -0.3086 -0.2252  0.1826
20648W        W34062   7.929  10.048  14.000 -0.0647 -0.2214  0.0037
20649W        W34063   6.400   1.836  10.439 -0.0710  0.1778 -0.0432
20650W        W34064   7.918  17.767  10.965 -0.0665 -0.0013 -0.0030
20651W        W34065  10.934   2.349  16.027  0.2546  0.0964 -0.1478
20652W        W34066  11.490   3.982   3.672 -0.1129 -0.0943  0.2448
20653W        W34067   1.071   0.658   1.537 -0.1862 -0.2525  0.1178
20654W        W34068  11.837  12.883   0.525 -0.0661  0.3640  0.1570
20655W        W34069  10.359  12.628  11.549  0.1001 -0.2386 -0.1610
20656W        W34070   9.313   4.157   3.055  0.1360  0.1421 -0.0755
20657W        W34071   8.418  17.859  10.060 -0.3015 -0.2703 -0.0445
20658W        W34072  12.297  11.852  12.170  0.0914 -0.1960 -0.0134
20659W        W34073  11.892  17.031   1.443  0.0265  0.0572 -0.3360
20660W        W34074   8.811  15.366   0.914 -0.1224 -0.0729 -0.1136
20661W        W34075  10.423   7.474  14.335  0.1480  0.0638  0.1201
20662W        W34076   8.586  17.964   5.598  0.0554 -0.1311  0.0083
20663W        W34077  17.084  10.174   0.262 -0.0806  0.1031 -0.2333
20664W        W34078  11.558   3.335  15.437  0.0265  0.1098  0.1165
20665W        W34079   4.671   1.742  10.367 -0.2642  0.1368 -0.1606
20666W        W34080   3.728   0.734  10.526  0.3507 -0.0172 -0.0740
20667W        W34081   7.190   5.686  13.521  0.1492 -0.0524 -0.0366
20668W        W34082  16.143  12.867  11.719 -0.2141  0.0220  0.2599
20669W        W34083   9.733   4.642  12.304  0.0531  0.2217  0.1175
20670W        W34084  17.731   7.645  12.289 -0.0065 -0.0328 -0.0266
20671W        W34085   1.357  12.813  13.027 -0.2361 -0.0793  0.1047
20672W        W34086   4.215  10.185   3.292 -0.0525 -0.1118  0.0210
20673W        W34087   1.278   8.823   4.542 -0.2679 -0.1108 -0.0381
20674W        W34088  10.709  10.744   4.000  0.1426  0.0853  0.2714
20675W        W34089  11.880   7.672   3.213  0.0070  0.0369 -0.0519
20676W        W34090  15.576   6.270   2.327 -0.7935  0.0236  0.3095
20677W        W34091   3.045   6.337   4.431  0.1483  0.1880 -0.1772
20678W        W34092  11.990   3.220   1.097  0.1596  0.0711  0.1845
20679W        W34093   4.204  17.189   1.665 -0.3950  0.0855 -0.2526
20680W        W34094  14.140  17.912   2.799  0.0908  0.1264 -0.1098
20681W        W34095   3.271   0.144   2.649 -0.2390  0.1530 -0.1617
20682W        W34096   2.542  12.421   2.618  0.3956  0.0593 -0.0999
20683W        W34097   7.015   7.316  11.848 -0.2410  0.1009 -0.0499
20684W        W34098  17.198  16.557   0.474 -0.2824 -0.1020 -0.2530
20685W        W34099   8.161   4.834   2.018 -0.0892  0.1328  0.1944
20686W        W34100   7.690   5.186  12.350 -0.1205 -0.0447  0.1018
20687W        W34101   9.878   4.220  16.698 -0.1328  0.2908 -0.1086
20688W        W34102   5.069   9.849  13.583 -0.2533 -0.0651 -0.1900
20689W        W34103  15.121  12.516  14.769  0.0534 -0.0080  0.1484
20690W        W34104   0.089   1.422  14.375  0.0400  0.0182  0.3258
20691W        W34105   3.138  14.399  13.543  0.1509  0.0025  0.0385
20692W        W34106   4.716  14.249   1.752  0.1438  0.3127 -0.0243
20693W        W34107  13.794  16.635   4.141 -0.1435  0.0268 -0.0490
20694W        W34108  10.165   3.576   2.674 -0.0574 -0.0675  0.3848
20695W        W34109  13.913  14.534  13.553 -0.2602  0.0518  0.1826
20696W        W34110   1.417  10.661   0.186  0.2644  0.0809  0.0648
20697W        W34111  15.651  10.090  15.070 -0.0713  0.0680  0.2602
20698W        W34112   7.950  16.577   2.990 -0.1503  0.0872  0.1194
20699W        W34113  17.041  15.786   5.954 -0.1365 -0.0525  0.3329
20700W        W34114  16.679   4.537   0.422  0.0849 -0.1294 -0.5550
20701W        W34115   8.830   2.036   1.824  0.0709 -0.1835  0.1780
20702W        W34116  14.168   6.433   5.275  0.0049  0.1229  0.2003
20703W        W34117  16.482   0.285  14.437  0.3456 -0.0029  0.1077
20704W        W34118  16.301  13.416  13.953  0.0575 -0.1131 -0.0258
20705W        W34119   9.367   2.847  10.975  0.0957 -0.1566  0.0730
20706W        W34120   4.087  12.917   0.856 -0.1246 -0.2270 -0.2609
20707W        W34121   5.422  10.882  14.818 -0.0826 -0.2486 -0.0927
20708W        W34122   2.162   9.300  13.924 -0.0995 -0.1237  0.0884
20709W        W34123   0.274   0.147   1.445  0.1060  0.1976  0.1984
20710W        W34124   8.173   6.097  15.925  0.1247  0.0011  0.2061
20711W        W34125  15.558   7.957  12.293 -0.1738  0.5467 -0.2002
20712W        W34126  11.381  11.634   1.411 -0.0437  0.1251 -0.3056
20713W        W34127  12.822   2.379   0.288  0.0713  0.1542 -0.0911
20714W        W34128   7.524  15.382   2.931  0.0930  0.0503  0.0553
20715W        W34129   8.511   4.080  13.425 -0.3116 -0.0740  0.0015
20716W        W34130   5.366  16.553   3.357  0.1038 -0.0654 -0.0203
20717W        W34131  17.043   1.280  12.276 -0.0364 -0.1135  0.0760
20718W        W34132   6.849   8.126   2.252  0.2511  0.0609 -0.3152
20719W        W34133   2.664  13.796   3.433 -0.1686  0.2363  0.0975
20720W        W34134   7.316  16.241  14.453 -0.0361 -0.0024 -0.1251
20721W        W34135   3.757   3.758  15.843  0.0063  0.1792  0.1463
20722W        W34136   2.572   8.389   2.282 -0.1485  0.0303  0.0501
20723W        W34137   0.272   3.488   5.166 -0.1905 -0.2210  0.0304
20724W        W34138   1.644   0.497  11.430  0.1371 -0.0458  0.2221
20725W        W34139  17.013   2.317  12.272 -0.0663 -0.2792 -0.0090
20726W        W34140  15.925   9.816  15.657  0.0372  0.1647 -0.1793
20727W        W34141   0.578  12.803  13.243 -0.0766  0.1074  0.1476
20728W        W34142  16.022   7.865   1.703 -0.0451  0.0295 -0.2431
20729W        W34143   3.729  12.930  14.144  0.3444  0.1945  0.1761
20730W        W34144   7.604   1.556   1.264 -0.0625 -0.0851  0.0034
20731W        W34145   3.138  12.711  11.715 -0.0812 -0.0042  0.1296
20732W        W34146   9.711   4.104  14.299  0.0559 -0.3372  0.0493
20733W        W34147  16.851  16.252  14.658  0.0542 -0.3682  0.2601
20734W        W34148  13.847  17.188   4.564 -0.0673  0.1764 -0.3086
20735W        W34149   7.575  10.560   3.243 -0.2654  0.0324 -0.3349
20736W        W34150   0.183  12.503   1.817 -0.1801  0.1045  0.1200
20737W        W34151   4.791   8.070  13.880  0.1026 -0.2143 -0.1037
20738W        W34152   9.649  11.995  15.703 -0.0852 -0.3757  0.6257
20739W        W34153  11.149  11.237   0.540  0.3158  0.0254  0.0601
20740W        W34154   1.037   1.432   5.242  0.1118  0.0097 -0.0102
20741W        W34155  10.135   8.513   2.931 -0.4048 -0.3638 -0.1058
20742W        W34156   7.758   0.115   6.357 -0.2272  0.0946  0.2997
20743W        W34157   5.146   2.660  15.313 -0.2646  0.1251  0.0517
20744W        W34158   7.844  14.734   4.140  0.1898 -0.5487 -0.1755
20745W        W34159  10.328  10.598   3.228  0.0176  0.0383  0.0844
20746W        W34160   0.560   8.253  12.049 -0.1335 -0.0207 -0.1564
20747W        W34161   6.519   9.528  14.111 -0.3505 -0.2984  0.1613
20748W        W34162   5.464   3.074  15.481  0.0299  0.1062 -0.1512
20749W        W34163  15.233   6.887   3.201 -0.1379  0.0993  0.0337
20750W        W34164  16.717   1.553  11.957  0.0935 -0.0231  0.1137
20751W        W34165  16.881   7.430   6.490  0.1523 -0.1799 -0.1653
20752W        W34166  16.925   4.939   4.149 -0.1811  0.2560  0.1854
20753W        W34167  11.780   6.183   4.627  0.0027  0.2014 -0.0500
20754W        W34168  12.789   6.753   3.889 -0.1318 -0.0761  0.1927
20755W        W34169   9.395   7.462  12.204 -0.0975  0.1026  0.0672
20756W        W34170  16.560  15.268   4.167  0.0571 -0.2380 -0.1282
20757W        W34171   0.763   9.116  15.535 -0.2793  0.0100 -0.1205
20758W        W34172   0.319   9.737   3.356 -0.2074  0.3464  0.1665
20759W        W34173   9.937   9.215   5.192  0.0645 -0.1463  0.1189
20760W        W34174   4.153  11.775  12.807 -0.3171 -0.0317 -0.1140
20761W        W34175   1.119   0.825  12.804 -0.0320 -0.2500  0.0128
20762W        W34176   5.047   1.488  16.212  0.1602 -0.1000 -0.0948
20763W        W34177   0.213   4.539  13.839 -0.3190 -0.0051  0.1427
20764W        W34178   3.643   0.075   2.337 -0.0575 -0.0139  0.2463
20765W        W34179   1.782   8.796  14.668  0.4579 -0.3328  0.0894
20766W        W34180   4.885  17.053  16.453 -0.1702 -0.3893  0.0803
20767W        W34181   2.898   6.444  12.340 -0.3290  0.0730 -0.0460
20768W        W34182   1.455   3.320  10.766 -0.3452  0.0188  0.1504
20769W        W34183   9.957  13.545  11.297  0.2226  0.0385  0.3070
20770W        W34184   4.658   1.045  15.561 -0.2894 -0.0634  0.2188
20771W        W34185   9.534   7.840   3.575 -0.0147  0.0924 -0.1762
20772W        W34186  16.720   9.676  13.339 -0.1021 -0.0146  0.1876
20773W        W34187  13.638   0.423  16.326 -0.1847 -0.0044  0.0374
20774W        W34188   2.989  16.146  16.686  0.0981  0.0566 -0.4472
20775W        W34189   9.212   1.324   4.111 -0.1492 -0.2103 -0.1499
20776W        W34190  15.334   2.843  13.077  0.0404  0.1544  0.0076
20777W        W34191  16.461  13.873  12.333  0.1082 -0.0630  0.0965
20778W        W34192  17.721  17.226   3.638  0.1612 -0.1276  0.0528
20779W        W34193  14.872   2.828   4.483  0.1892  0.1239  0.2782
20780W        W34194   0.640  10.869   3.812  0.1895  0.0489  0.2329
20781W        W34195   2.080   7.528  15.337 -0.2688 -0.2370 -0.0471
20782W        W34196   4.568   4.166  16.309 -0.0074  0.0978 -0.1437
20783W        W34197   3.559  14.117  13.708  0.1786  0.3162  0.1104
20784W        W34198   9.456   0.145   1.223  0.1179  0.0151  0.0170
20785W        W34199   8.984  13.982  14.963  0.0014 -0.1572  0.0781
20786W        W34200   6.497  11.262  14.416 -0.2032  0.1665 -0.1676
20787W        W34201   2.786   6.472   0.322  0.0502  0.0202  0.3378
20788W        W34202   9.682   1.562  15.260 -0.3205 -0.1361 -0.0399
20789W        W34203   0.176   8.620  16.703  0.1985  0.0070  0.0282
20790W        W34204   8.382   8.528  15.231  0.1820 -0.3672  0.0844
20791W        W34205  10.197  15.947   2.504  0.1491  0.1928 -0.1467
20792W        W34206   3.073  13.904  15.272  0.2663 -0.0614 -0.1072
20793W        W34207   8.908   9.448  16.487  0.0614 -0.1208 -0.1813
20794W        W34208   9.233  12.194   4.304  0.0829 -0.1907  0.2232
20795W        W34209  11.162   7.695  12.466  0.1513  0.1250  0.1016
20796W        W34210   6.864   1.520  11.287  0.2227 -0.1356 -0.1498
20797W        W34211  13.808   2.395  16.647  0.0883 -0.4302 -0.1388
20798W        W34212  11.750  17.805   1.169 -0.1331 -0.0116  0.0202
20799W        W34213  12.469   0.309   4.442  0.0709 -0.2333  0.1260
20800W        W34214   2.967   2.529   1.232 -0.1638  0.1469  0.1970
20801W        W34215  10.117  14.327   0.009  0.3148 -0.2053  0.1022
20802W        W34216  10.229   7.393  11.553 -0.2804 -0.1267 -0.0274
20803W        W34217  12.312  13.181  12.949  0.0837  0.2244  0.0041
20804W        W34218   4.354   9.901  12.479  0.3021  0.0431  0.1507
20805W        W34219  17.708  14.113  14.807  0.2025  0.2790  0.1875
20806W        W34220  17.323   8.989  11.278  0.3458  0.0420  0.0262
20807W        W34221   9.275  13.347   3.288 -0.0671 -0.6035 -0.1252
20808W        W34222   5.386  12.079  16.609 -0.1509  0.0817 -0.1734
20809W        W34223   3.319   5.255   2.526  0.1360 -0.0152 -0.1402
20810W        W34224   6.615  14.960  10.389 -0.0118  0.0186  0.0590
20811W        W34225  10.423   0.622   3.507 -0.1249 -0.2817  0.0809
20812W        W34226   8.025  16.116  16.333 -0.0347 -0.2943 -0.2069
20813W        W34227  11.546   9.945  15.057 -0.0710 -0.0018 -0.1336
20814W        W34228  16.297  12.852  12.260  0.0420  0.0166  0.0672
20815W        W34229   6.127   4.293  15.187  0.0873  0.2587 -0.5100
20816W        W34230   9.600   3.916   3.930  0.0702 -0.0649 -0.1437
20817W        W34231   9.820  10.504   5.983 -0.0042 -0.0459  0.0923
20818W        W34232  12.502  15.333  13.984  0.3002 -0.2726 -0.0783
20819W        W34233   4.903   2.968   4.733  0.2093  0.1053  0.0876
20820W        W34234   2.378  13.958  12.707 -0.0064 -0.0582 -0.1091
20821W        W34235  15.060   4.016   2.746 -0.4780  0.0704  0.2187
20822W        W34236  13.245  11.916  14.088 -0.1902 -0.2625 -0.0372
20823W        W34237   2.547   9.996  16.624 -0.1130  0.1829  0.2677
20824W        W34238  11.455  12.354  15.995 -0.1403  0.2254 -0.0861
20825W        W34239  12.571  10.230  12.447  0.1235 -0.0208 -0.1393
20826W        W34240   2.258  13.668   2.654 -0.1560  0.0533 -0.0630
20827W        W34241   7.954  15.016  11.068  0.1538 -0.1746  0.0902
20828W        W34242  12.110   6.606  11.669  0.1434  0.0005  0.0819
20829W        W34243  12.492   7.839  13.380  0.1416 -0.1302  0.0593
20830W        W34244   0.331  15.485  12.317  0.0792  0.1674 -0.1343
20831W        W34245   7.929   0.548  15.203  0.3027 -0.1639 -0.0295
20832W        W34246   6.695   5.870  13.510  0.1802 -0.1467 -0.1256
20833W        W34247  12.563   6.438  14.774 -0.1759 -0.0803  0.1313
20834W        W34248   0.297  12.275  16.041 -0.0934 -0.0669  0.1251
20835W        W34249  10.014   5.911  11.128 -0.0569 -0.2015 -0.2866
20836W        W34250  11.448   6.159  11.421  0.1634 -0.0961 -0.1681
20837W        W34251  12.851   3.900   2.392  0.1562 -0.2583 -0.3058
20838W        W34252   4.356   4.373  14.820  0.2911  0.4720 -0.3533
20839W        W34253   6.521   4.840   2.883 -0.0380 -0.2626 -0.0701
20840W        W34254   3.230   7.631   0.512  0.1224  0.0184  0.1203
20841W        W34255   9.140   2.187  10.006 -0.0500  0.1246 -0.1692
20842W        W34256   0.790  10.034   6.150 -0.2440 -0.0150  0.0422
20843W        W34257   1.141  16.401   1.308 -0.1362  0.0445 -0.0190
20844W        W34258  15.683  17.620  12.932 -0.0238 -0.2628  0.0876
20845W        W34259  14.248   1.636  12.891  0.0405 -0.1303  0.0799
20846W        W34260  17.274  16.239  15.710  0.3251 -0.2453  0.1803
20847W        W34261   4.212   5.250   4.509 -0.0528 -0.0393 -0.0567
20848W        W34262   7.833  13.074  11.540  0.3213  0.0983 -0.1406
20849W        W34263   6.814   5.923  11.768  0.2354 -0.3139  0.0200
20850W        W34264  14.503  10.446  14.093 -0.0788  0.0885  0.1269
20851W        W34265   2.975  14.559   1.990  0.3272  0.1322 -0.1455
20852W        W34266   6.201   9.027  14.739  0.0655 -0.0834 -0.3020
20853W        W34267   3.504  14.392   3.726 -0.2007 -0.1351 -0.2654
20854W        W34268  16.860   9.185  13.466  0.1433  0.0337 -0.0577
20855W        W34269  11.419  15.825   0.818  0.1240 -0.5500 -0.1418
20856W        W34270  13.071  15.053   1.918 -0.0528  0.1792 -0.1292
20857W        W34271   7.527  14.314   5.835  0.0540 -0.1200 -0.0472
20858W        W34272   9.879  12.644   2.870  0.0532 -0.1084  0.3093
20859W        W34273  16.622   1.109  16.136  0.1130 -0.1469  0.2339
20860W        W34274   1.478   7.003  14.511  0.0581  0.0911  0.2634
20861W        W34275   4.528   6.445   1.778  0.2421  0.1354  0.0390
20862W        W34276  16.054   0.567  12.759 -0.4858  0.0159 -0.0234
20863W        W34277   2.867   3.491  14.792 -0.1416  0.2660  0.1353
20864W        W34278  12.299  15.027  15.919  0.2507 -0.1877 -0.1120
20865W        W34279  17.443  14.063   4.378 -0.0585 -0.0590  0.1409
20866W        W34280  12.812   5.260  15.534 -0.1708  0.1038  0.1885
20867W        W34281  11.113   6.176  11.874 -0.2748 -0.0171  0.0167
20868W        W34282  15.193  15.724   2.437 -0.0473  0.0553 -0.2234
20869W        W34283   8.318   5.864   6.078  0.0840  0.0367 -0.0261
20870W        W34284  14.366  16.305   1.332  0.0857  0.0586  0.1601
20871W        W34285   6.993  13.431  12.957 -0.0495  0.3174 -0.1922
20872W        W34286   5.428   8.038  15.606 -0.3348 -0.1527 -0.2605
20873W        W34287  14.479   8.979   3.260 -0.2281 -0.0656 -0.0393
20874W        W34288   7.457   8.307   5.485 -0.0382 -0.0635  0.0301
20875W        W34289   1.824  11.649   2.640 -0.0228  0.2486  0.2885
20876W        W34290   0.695   2.022   4.570 -0.0753  0.2420  0.0975
20877W        W34291  12.295  17.787   5.576  0.1033  0.0298  0.3518
20878W        W34292   0.154  10.910  15.953 -0.0531 -0.0561 -0.2567
20879W        W34293   1.581   2.861   4.139 -0.1828  0.2569  0.0301
20880W        W34294  17.616  11.745   4.790  0.1976  0.0719 -0.0028
20881W        W34295   4.131  16.380  15.591  0.0536  0.1825  0.3955
20882W        W34296   9.448  10.924  13.724 -0.2136  0.1995 -0.2185
20883W        W34297   3.424   0.566   6.676 -0.0625  0.1389 -0.0084
20884W        W34298   0.556   8.223   4.124  0.0315  0.1512 -0.0149
20885W        W34299   5.932  17.659   2.467  0.3358 -0.1352  0.0507
20886W        W34300   1.041   9.824   3.893  0.1334  0.1309  0.1145
20887W        W34301  11.107   8.089  14.440 -0.0928  0.0180  0.1003
20888W        W34302   9.007   3.564   1.692  0.2172 -0.1846 -0.0474
20889W        W34303  10.571   0.548  13.871 -0.1247  0.0443  0.3351
20890W        W34304   4.271   3.953   2.422  0.3006  0.0739  0.1602
20891W        W34305  16.147   0.694   3.092 -0.1212 -0.1512 -0.1687
20892W        W34306  11.386  16.757  13.702 -0.0684  0.0803  0.2371
20893W        W34307  11.003   8.396  15.065 -0.1566 -0.1774  0.1561
20894W        W34308   8.986   1.068  11.214  0.1961  0.1549  0.0517
20895W        W34309   5.839  17.079  11.697  0.1021 -0.3533  0.1264
20896W        W34310   1.563  15.250  16.076  0.4557  0.3591 -0.2079
20897W        W34311   9.562   0.626   1.068  0.0847  0.2205 -0.1056
20898W        W34312  12.671  12.439   4.076  0.1640 -0.0116 -0.5316
20899W        W34313  10.290  15.477   4.687 -0.0966  0.2496 -0.1450
20900W        W34314   9.367   9.747  12.341 -0.1101 -0.1093  0.2343
20901W        W34315  17.505   4.646   6.223  0.1627  0.0662  0.0640
20902W        W34316  14.790   1.574   6.305 -0.0351  0.0652 -0.0126
20903W        W34317   9.445  12.907   2.527  0.2239  0.1861  0.0934
20904W        W34318   7.228   6.995  15.219 -0.1127  0.2259 -0.4210
20905W        W34319   8.894   2.954  10.859 -0.1420  0.0163  0.2009
20906W        W34320  12.166  16.320  14.235 -0.4002 -0.0945  0.0765
20907W        W34321   5.650  14.618  14.272  0.1084  0.2447  0.3034
20908W        W34322   1.463  12.720   3.243  0.1099  0.2953 -0.0709
20909W        W34323   0.931   7.830  16.026  0.0289  0.0944  0.0126
20910W        W34324   9.912   6.681   0.929 -0.1470  0.1748 -0.1246
20911W        W34325  14.396   1.695  11.097  0.0876  0.3208 -0.1464
20912W        W34326  13.051  12.870   4.888  0.0142  0.1019  0.0057
20913W        W34327  12.733  16.535   1.528 -0.2072  0.0317 -0.0104
20914W        W34328  12.980  11.172   3.635 -0.0315  0.1523  0.1463
20915W        W34329  15.631   6.128   5.376  0.0461  0.1098  0.0656
20916W        W34330   4.481   3.513   4.249 -0.0753 -0.0950 -0.0486
20917W        W34331   4.262  14.261  16.634 -0.2037 -0.0479  0.1067
20918W        W34332  11.613  16.271  13.933 -0.1255 -0.1529  0.4032
20919W        W34333  17.351  10.770   2.556 -0.0702  0.2515 -0.3050
20920W        W34334   6.250  17.050  15.801 -0.1315  0.0537 -0.0622
20921W        W34335   5.815  12.404   5.036  0.1997 -0.1620 -0.3687
20922W        W34336   7.070  11.813   0.743 -0.0880 -0.0175  0.0362
20923W        W34337   3.737  11.691   2.447  0.0133  0.0044 -0.1162
20924W        W34338  11.944   0.490  10.364  0.3235  0.2061  0.3639
20925W        W34339  14.164  16.787  15.860 -0.1178  0.1817  0.0733
20926W        W34340   4.960  15.222   1.718  0.1522 -0.2453  0.0371
20927W        W34341   0.193   0.824  13.352 -0.2711  0.1529 -0.1913
20928W        W34342   1.793   9.536  10.797 -0.4179 -0.1011  0.1543
20929W        W34343   5.425   2.121  16.652 -0.1510 -0.0769  0.1878
20930W        W34344  14.550  11.646  12.161 -0.0317  0.3894 -0.0471
20931W        W34345   3.500   4.589  15.290 -0.0051  0.0925  0.0521
20932W        W34346   9.660   0.433   1.944  0.0631 -0.2718  0.1428
20933W        W34347   3.998   8.399   2.785  0.2898 -0.3558  0.3038
20934W        W34348   8.774   0.275  13.930  0.1062 -0.0057 -0.0917
20935W        W34349   2.128   9.371  11.172  0.1432 -0.1060 -0.0068
20936W        W34350   5.127  13.715  16.579 -0.0628  0.0491  0.2706
20937W        W34351   5.681  16.115   2.751 -0.0593 -0.0935  0.0062
20938W        W34352  14.874  15.404  13.846  0.0871  0.0179 -0.2020
20939W        W34353   3.415  16.046   2.708 -0.0842 -0.2408 -0.0342
20940W        W34354   2.043   8.766   0.470 -0.0038  0.0867 -0.3115
20941W        W34355   0.266  16.993  11.359  0.1228  0.1663  0.0780
20942W        W34356  17.700  13.049  11.554  0.1454 -0.1308 -0.3161
20943W        W34357   4.704  17.867  11.740 -0.3100  0.0381  0.1640
20944W        W34358   5.222  14.683  16.561 -0.0224 -0.0964 -0.0740
20945W        W34359  14.377  11.907  10.191  0.2402  0.0965  0.0171
20946W        W34360  17.549   2.556  14.980 -0.2013  0.2246  0.0430
20947W        W34361  15.183  10.868  14.584  0.1351  0.0201 -0.0815
20948W        W34362   7.323  12.320   5.732 -0.1864  0.1943  0.2408
20949W        W34363   6.302   2.524  15.902  0.3296 -0.1319 -0.1760
20950W        W34364   8.634  17.826   2.967  0.4017  0.2417 -0.2138
20951W        W34365   6.660   4.788  15.614  0.0602  0.0484 -0.1458
20952W        W34366  16.497  10.475  11.792 -0.1726  0.0675 -0.1602
20953W        W34367  10.948  11.685   0.743  0.2716  0.1957  0.1445
20954W        W34368  11.699  15.863   4.358 -0.0606  0.2000  0.1735
20955W        W34369   2.950   8.538  11.008  0.0827  0.1752  0.1312
20956W        W34370   0.267   5.130  14.473 -0.1105 -0.1162 -0.2908
20957W        W34371  11.820  16.650  10.732  0.3279 -0.2557  0.2432
20958W        W34372  11.992  10.256   4.734 -0.0536  0.1020 -0.0749
20959W        W34373   6.558   0.378  12.293 -0.1207 -0.0972 -0.0261
20960W        W34374  15.609   9.452   5.868  0.3402 -0.1535  0.1811
20961W        W34375  17.147  15.678  13.519  0.3103 -0.0781  0.1548
20962W        W34376   3.928   1.279   5.801 -0.0565  0.2898 -0.0759
20963W        W34377   4.634  15.620   1.650  0.1658  0.1970  0.1155
20964W        W34378   3.864   7.871  12.748 -0.5466  0.0631  0.1306
20965W        W34379   1.430   2.480   1.414 -0.3190 -0.0269  0.0719
20966W        W34380   2.879   9.702  14.174 -0.2887 -0.0843 -0.0494
20967W        W34381  17.316  12.282  13.996 -0.0430 -0.2564 -0.3267
20968W        W34382  15.132   3.975   6.930 -0.4222  0.0188 -0.1793
20969W        W34383   6.885   7.274  14.980  0.1904  0.2396  0.2808
20970W        W34384   8.098  13.047   0.900 -0.1862 -0.0314 -0.0844
20971W        W34385   6.054   7.115   4.671 -0.1677 -0.0267 -0.1248
20972W        W34386   9.583   2.610  10.606 -0.0825  0.0879  0.0712
20973W        W34387   2.896   4.138   2.980 -0.1068 -0.2646 -0.3737
20974W        W34388   3.185   7.188   0.735 -0.1297 -0.0048 -0.6703
20975W        W34389   3.909   7.934   3.144 -0.0562  0.0725 -0.2040
20976W        W34390  13.206   1.469   5.354  0.0543  0.0211 -0.0482
20977W        W34391   5.261  15.499   2.062 -0.2492 -0.1213 -0.0885
20978W        W34392   8.950   3.882   2.074  0.1485  0.1506 -0.0727
20979W        W34393   0.409  10.976   4.309  0.0587  0.0399  0.2089
20980W        W34394   6.311  16.233  10.592  0.0061 -0.4735 -0.0787
20981W        W34395  15.628  11.429   0.249  0.2891 -0.0671 -0.0072
20982W        W34396  16.739  11.764  12.858 -0.1246  0.0770  0.1882
20983W        W34397   5.827  14.419   2.622 -0.4035 -0.1668  0.0587
20984W        W34398   6.944  16.166   5.434 -0.0339  0.2730  0.0390
20985W        W34399  13.601  12.143   1.989 -0.1008  0.1207  0.2946
20986W        W34400   8.515   5.738   4.776  0.3070 -0.0530  0.1551
20987W        W34401  10.770  17.411   2.519  0.2490 -0.3590 -0.1048
20988W        W34402  12.895  16.934   0.843 -0.1887 -0.2521  0.0313
20989W        W34403  14.731  14.515   5.028 -0.2046  0.1275  0.0831
20990W        W34404   9.030   8.652   1.775  0.0781 -0.1013  0.0247
20991W        W34405  12.751  11.144   4.065  0.2750  0.2089  0.1352
20992W        W34406   1.174   5.685  14.512  0.0862  0.0340 -0.0100
20993W        W34407  12.131   5.602  15.933 -0.0540 -0.0627  0.0316
20994W        W34408  14.984  11.661  15.107 -0.1917  0.0601  0.1080
20995W        W34409  15.942   9.791   5.137 -0.2489 -0.0097  0.3518
20996W        W34410   4.642  14.189  14.273  0.0818 -0.0903  0.2498
20997W        W34411  13.172   1.912  10.055 -0.1146 -0.0375  0.2411
20998W        W34412   5.813  15.745  16.399 -0.3186  0.0581  0.0852
20999W        W34413  10.604   4.110   4.696  0.1958  0.0175 -0.2374
21000W        W34414   3.134  16.756  12.759  0.3883  0.0943  0.0315
21001W        W34415  17.082  10.629   6.149  0.1117  0.2930  0.1592
21002W        W34416  11.377   6.204   5.702 -0.1561  0.1852 -0.1427
21003W        W34417  14.983  15.321  16.689  0.3066  0.5987  0.1126
21004W        W34418  10.527  10.732   0.026 -0.1452 -0.0463 -0.1885
21005W        W34419  11.125   2.825   2.128 -0.0218 -0.0533 -0.3637
21006W        W34420   5.963   4.074  15.949  0.0198 -0.0520 -0.1943
21007W        W34421   1.875   1.842   5.663 -0.3987 -0.0557 -0.1561
21008W        W34422  15.638  14.162  12.072 -0.1344 -0.1221 -0.2582
21009W        W34423  14.197  10.180  12.850 -0.1308  0.0059 -0.2918
21010W        W34424   6.005  12.267  11.175 -0.2560 -0.0767  0.0885
21011W        W34425  17.235   3.931   1.366 -0.0303  0.0055  0.0137
21012W        W34426  13.108  15.118   2.924 -0.3123  0.1021 -0.1083
21013W        W34427  12.816   8.834  13.578 -0.1520  0.0256  0.1637
21014W        W34428  16.449  10.728   0.558  0.2582 -0.1848  0.1659
21015W        W34429   1.910   2.974  13.794  0.0376  0.2337 -0.1504
21016W        W34430   5.813  17.716   6.264  0.1378  0.3062 -0.2109
21017W        W34431   7.528  10.884   2.071 -0.0980 -0.0252 -0.0207
21018W        W34432   0.467   8.108   5.790 -0.0817  0.1527 -0.0058
21019W        W34433  14.496   9.548  12.142 -0.0574 -0.3276 -0.0287
21020W        W34434  14.824   3.591  13.669  0.1221 -0.1367 -0.3961
21021W        W34435  16.823   9.420  12.894  0.0769  0.1880  0.0295
21022W        W34436   8.986   4.440  13.456 -0.1615 -0.2053  0.0730
21023W        W34437  16.016  11.722   5.290  0.0623  0.2259  0.0284
21024W        W34438  14.660   3.695  11.622  0.2707  0.0052  0.0059
21025W        W34439  17.560   3.975  13.585 -0.0429 -0.2341  0.0981
21026W        W34440   4.127  13.318   1.552 -0.0910 -0.1836 -0.1516
21027W        W34441   7.337  10.117  10.428  0.0553 -0.1803  0.0002
21028W        W34442  12.273  15.072   4.193  0.0788  0.0499  0.4520
21029W        W34443  16.123  15.437  11.805 -0.1200 -0.3143  0.1320
21030W        W34444   6.895   4.401  11.083 -0.2439  0.1815  0.1157
21031W        W34445   4.259   5.930   4.481  0.0401  0.0338  0.1305
21032W        W34446  15.861   7.326  14.639 -0.0009  0.0033 -0.1885
21033W        W34447   3.804  10.272  13.404 -0.0727 -0.2256 -0.1277
21034W        W34448   3.359  18.045  11.195  0.5638  0.0827  0.0298
21035W        W34449   4.864  12.306   1.090  0.0385 -0.0780  0.2757
21036W        W34450   7.672   4.803  10.713 -0.1620 -0.2729 -0.1768
21037W        W34451  12.568   0.762   5.867 -0.0864  0.1476  0.1837
21038W        W34452   1.651   6.806   0.887  0.0596  0.0163  0.2220
21039W        W34453  15.722   5.445   4.793 -0.2099 -0.1555  0.1001
21040W        W34454  12.067   0.712  13.825 -0.0088 -0.1022  0.0951
21041W        W34455  17.836  10.264  15.002 -0.0207  0.0990 -0.1357
21042W        W34456   0.508  17.425   0.102 -0.1234  0.2186  0.2261
21043W        W34457   9.564  15.887  12.015 -0.0184 -0.0208  0.2083
21044W        W34458   9.022   8.458   0.765 -0.1246 -0.2763 -0.0672
21045W        W34459   4.088  11.498   2.015  0.2924 -0.4238  0.5322
21046W        W34460   5.096   4.939   2.679 -0.0513  0.0689  0.1963
21047W        W34461   8.817  14.757  11.110 -0.3099  0.1011  0.2140
21048W        W34462  12.788   1.201  13.514  0.1665  0.2214 -0.3178
21049W        W34463   3.638   5.896  14.271 -0.2031  0.1509 -0.2354
21050W        W34464   0.605  14.748  12.191 -0.3822 -0.2512  0.1349
21051W        W34465  17.043  10.230  15.537 -0.3289 -0.0477 -0.1185
21052W        W34466   0.728   8.122  12.877  0.1322  0.0885 -0.0743
21053W        W34467  15.016   4.901  15.854  0.0902 -0.0013  0.2306
21054W        W34468   1.872  10.018   5.783 -0.1153 -0.0869  0.0925
21055W        W34469  13.379  11.413  12.438  0.0137  0.2155 -0.2697
21056W        W34470   9.999  17.850   2.259 -0.1153 -0.0572  0.2308
21057W        W34471   3.417  14.889  11.802 -0.1032 -0.2125  0.0268
21058W        W34472  15.969   4.990  10.562  0.1641  0.2029  0.0681
21059W        W34473  10.290   6.853  11.886  0.0592  0.0182 -0.0369
21060W        W34474  17.177   5.914  12.909 -0.3610  0.0904  0.0040
21061W        W34475   3.009   8.595   1.946  0.1299  0.0635  0.0265
21062W        W34476  11.220   0.942   0.886  0.0410 -0.1193 -0.0644
21063W        W34477  10.907   0.074  10.629  0.0486  0.2552  0.1294
21064W        W34478   3.062  13.999   5.661  0.1122  0.0259  0.0802
21065W        W34479  14.430  12.501   1.285  0.0210 -0.1154 -0.2966
21066W        W34480   1.931  14.031   2.456 -0.1286  0.0423 -0.0395
21067W        W34481  12.356   9.354   4.565 -0.0407 -0.3691  0.0382
21068W        W34482  11.279   7.520   3.612  0.1632  0.1747 -0.0285
21069W        W34483   2.985   5.117  12.926  0.1704  0.0577  0.0910
21070W        W34484   1.735   0.909  12.022 -0.0883  0.0755 -0.0846
21071W        W34485  10.272  10.016   4.533  0.1119  0.0861  0.0666
21072W        W34486   4.893   6.629  10.070  0.2377  0.0566 -0.2471
21073W        W34487  10.799   3.801  13.429  0.0398  0.1641  0.2083
21074W        W34488   1.103   7.505  10.729  0.0870 -0.0668  0.1456
21075W        W34489  17.567  14.451   0.905 -0.0671 -0.0146  0.2572
21076W        W34490   3.099   3.818   4.399  0.0283  0.2956  0.0468
21077W        W34491  12.382   2.313   4.079 -0.1443  0.0865  0.1297
21078W        W34492  16.302   7.836  14.074  0.1058 -0.2224  0.1552
21079W        W34493   8.559  12.056  14.597 -0.0440  0.2325  0.1890
21080W        W34494  16.573  11.719  13.705  0.1254 -0.0337 -0.1409
21081W        W34495   6.112  16.671   2.228 -0.0732  0.0471  0.3011
21082W        W34496   2.870  17.770   4.949 -0.0256 -0.2918  0.1515
21083W        W34497  17.160   1.223  13.249 -0.0769 -0.2231 -0.0133
21084W        W34498  16.324   6.939   2.388 -0.1062  0.0152 -0.1170
21085W        W34499  10.794  16.183   5.955  0.0527  0.0459 -0.0842
21086W        W34500  10.731  10.331  12.334  0.2434  0.0114 -0.1276
21087W        W34501  17.328   1.857  16.390 -0.2834 -0.0197  0.1266
21088W        W34502   3.498   2.161  12.815  0.1792  0.2943  0.0081
21089W        W34503  11.884   4.993   1.179 -0.3249  0.0847  0.1654
21090W        W34504   6.347   5.742  13.179 -0.1389  0.0765 -0.1085
21091W        W34505   6.462  10.145  13.427 -0.4678  0.2190  0.0381
21092W        W34506   2.648  11.326   0.559 -0.1855  0.1944 -0.1187
21093W        W34507  17.860   9.133  15.288  0.0318  0.2556  0.2212
21094W        W34508   3.438  14.038   4.469 -0.4692  0.1794 -0.2306
21095W        W34509   6.893  14.443  16.413 -0.1431 -0.1232  0.0502
21096W        W34510   1.560   2.438   2.521 -0.2593 -0.0851  0.1772
21097W        W34511  13.854   7.989   1.344 -0.0987  0.1912  0.0514
21098W        W34512   0.818  12.880  16.019  0.0236  0.3568  0.3742
21099W        W34513   5.375  11.787   0.376  0.1089  0.2160  0.1649
21100W        W34514   0.221   3.884   1.820 -0.0884 -0.0726 -0.3221
21101W        W34515   1.131   7.820  11.878 -0.0316  0.0279 -0.0571
21102W        W34516  17.611  17.235  14.090  0.0123  0.1416  0.2290
21103W        W34517   9.267   9.142  14.664  0.3578  0.0233 -0.0495
21104W        W34518  10.452  11.429   2.494  0.2050  0.2914  0.2672
21105W        W34519  16.436   9.277  11.869  0.0845  0.0576 -0.3183
21106W        W34520  10.731   3.291   5.083  0.1273  0.1016 -0.1628
21107W        W34521  11.655  10.467   0.718  0.1468 -0.0118  0.0416
21108W        W34522   8.234  11.455   4.958  0.3798  0.1798 -0.1344
21109W        W34523  16.089  13.571  11.575  0.0682 -0.0066  0.1117
21110W        W34524  17.071  11.753  16.225  0.2615 -0.0832 -0.1992
21111W        W34525  13.990  10.923  11.566  0.0297 -0.0625  0.3433
21112W        W34526   1.055   8.263  11.299  0.1649 -0.4601 -0.1434
21113W        W34527   1.434   0.579  13.705  0.2378 -0.4118  0.2125
21114W        W34528  11.270   8.935  11.041  0.3628  0.0614  0.1497
21115W        W34529  16.250   3.874   4.239  0.1023  0.3026 -0.0562
21116W        W34530   6.291  13.386   5.158  0.0051  0.2589  0.0869
21117W        W34531  14.614   4.666  12.223 -0.1714 -0.2109  0.1045
21118W        W34532  12.852   8.405   2.012 -0.2246 -0.0203  0.1296
21119W        W34533  11.332   2.452  16.314 -0.0847  0.0617  0.3654
21120W        W34534   3.165   8.591  12.749  0.1615 -0.2634  0.2239
21121W        W34535   4.838   0.537   0.514  0.0168  0.0347  0.0231
21122W        W34536  15.949   6.352   5.717  0.1513 -0.0969 -0.1122
21123W        W34537  12.381   4.028   5.467 -0.2302 -0.0784  0.4290
21124W        W34538   7.792   6.560  16.062  0.0576 -0.0213 -0.1866
21125W        W34539   2.001  17.827   1.823 -0.1006 -0.0004 -0.2434
21126W        W34540  10.320   6.191  14.152  0.1661 -0.2408 -0.0022
21127W        W34541   1.332  10.386  13.800  0.0885 -0.0748 -0.3114
21128W        W34542   2.323   7.906  14.987  0.0383  0.2944 -0.3624
21129W        W34543   1.534  15.602   0.369 -0.0792  0.0462 -0.0120
21130W        W34544  13.847   7.075   2.052 -0.4900 -0.0176 -0.1537
21131W        W34545   2.528   5.683   3.317  0.1536  0.2756 -0.0326
21132W        W34546  15.999  17.642  15.274 -0.0361  0.0681 -0.1294
21133W        W34547   5.008  15.228   1.150 -0.1681 -0.0312 -0.0480
21134W        W34548  10.556   4.602   4.985  0.1051  0.0939  0.4103
21135W        W34549   4.100  10.423   2.815 -0.1947 -0.1856  0.0185
21136W        W34550   9.203   5.845  14.603  0.4052  0.3010 -0.2673
21137W        W34551   7.883   3.398  14.296 -0.0437 -0.1748 -0.1331
21138W        W34552   3.416   1.153  16.455 -0.0307 -0.4875 -0.1300
21139W        W34553  17.650  17.714   3.149  0.1202 -0.2633 -0.1877
21140W        W34554  17.625   4.517  14.946 -0.0866 -0.3136  0.1433
21141W        W34555   0.722   6.124  11.775  0.2401 -0.3703 -0.1541
21142W        W34556  15.340   8.519  12.153  0.2101  0.1134  0.1149
21143W        W34557   5.274   2.213  15.762 -0.1304 -0.2379 -0.0580
21144W        W34558   5.611   7.910   2.024  0.3434 -0.0898  0.1606
21145W        W34559   2.437  17.297   3.772 -0.1662  0.1934  0.2314
21146W        W34560   2.612  13.781  13.245 -0.0033 -0.3893  0.1068
21147W        W34561   7.550   2.524  13.644 -0.2706  0.1660  0.1770
21148W        W34562  15.746   7.026  14.247 -0.0158  0.2866 -0.1133
21149W        W34563   3.235   3.080  15.610 -0.1575  0.0121  0.0383
21150W        W34564   4.648   8.724  15.030  0.0848  0.1846 -0.2883
21151W        W34565  14.330   6.976  16.145 -0.1971  0.0879  0.2254
21152W        W34566   1.987   9.755  14.748  0.1460  0.1454 -0.0120
21153W        W34567  17.742  16.580  12.014 -0.0746  0.0719 -0.0938
21154W        W34568  11.603  14.699   3.911 -0.0481  0.2061 -0.0145
21155W        W34569   1.045   2.077  13.804 -0.0443  0.1222 -0.0413
21156W        W34570  12.058   9.758   4.326  0.0643 -0.1031 -0.2811
21157W        W34571   3.129   2.559   1.725 -0.1948 -0.2915 -0.0165
21158W        W34572   9.309  17.684   1.449  0.1379 -0.0174 -0.0751
21159W        W34573   5.122   3.774   1.898 -0.0322  0.0164  0.1959
21160W        W34574   2.267   4.491  12.481  0.0556 -0.1116  0.0776
21161W        W34575   4.319   3.006  13.203  0.0287 -0.0988  0.0473
21162W        W34576   8.753  14.479  13.733 -0.0601 -0.0412 -0.0960
21163W        W34577  10.557   0.945   4.324  0.1238 -0.0109  0.2306
21164W        W34578  17.369   2.570   5.828  0.0844  0.1700 -0.1508
21165W        W34579   4.162  15.139  10.587  0.0269  0.0209  0.2595
21166W        W34580   6.508   2.939  13.886  0.0785 -0.2026  0.3028
21167W        W34581  15.793   0.552  14.774  0.0782  0.2791  0.1965
21168W        W34582   7.874   6.750  13.885  0.0576 -0.1555  0.0800
21169W        W34583   7.840   2.180  16.213  0.2151 -0.1021 -0.1909
21170W        W34584   1.648   2.260   4.235  0.1726  0.2170  0.0137
21171W        W34585   4.478  12.008   3.600  0.2977 -0.0689 -0.1711
21172W        W34586   2.654  10.868  13.537  0.0483 -0.0941  0.3214
21173W        W34587   0.883  15.569   3.731 -0.1616 -0.0313 -0.1190
21174W        W34588  17.989   5.097   2.310  0.2552  0.0916 -0.0931
21175W        W34589   3.949   0.902  12.231  0.0893 -0.0804 -0.1644
21176W        W34590  17.053   5.952   4.014 -0.0968 -0.0431 -0.2167
21177W        W34591   6.402   9.784   4.670 -0.1669  0.2756 -0.1058
21178W        W34592   9.516  13.867   1.265  0.1159 -0.1243 -0.1774
21179W        W34593   2.430  14.169   2.591 -0.0615  0.0465  0.0995
21180W        W34594   9.163  16.209   1.780  0.1424 -0.0347  0.2190
21181W        W34595   8.401   9.161   4.267 -0.0201  0.1168 -0.4582
21182W        W34596  15.401  15.227  13.634 -0.0725 -0.0425 -0.1970
21183W        W34597   7.190   2.794  11.971  0.3048 -0.3493 -0.2842
21184W        W34598  11.028  11.930  13.401 -0.0848  0.1672  0.0734
21185W        W34599  15.161  11.365   2.806  0.0238  0.2385  0.0076
21186W        W34600  16.806  17.821   0.026 -0.0004  0.1667  0.0289
21187W        W34601   9.925   7.398   4.199  0.2875  0.1120  0.0185
21188W        W34602  11.400  13.552   3.230  0.0438  0.1707 -0.0641
21189W        W34603  14.384  15.921  13.350 -0.0103 -0.1310  0.1978
21190W        W34604   0.925   4.057   1.337  0.0421  0.0252  0.0002
21191W        W34605  16.783  13.115  14.555 -0.0774  0.1536  0.2487
21192W        W34606   9.361   6.912  12.249 -0.4382  0.4465 -0.0790
21193W        W34607   0.867   9.597  14.270 -0.0585 -0.0592  0.3635
21194W        W34608  15.201  12.429   0.883 -0.1436  0.1274 -0.1414
21195W        W34609  11.521  16.837  15.618 -0.1348  0.1128 -0.0520
21196W        W34610  10.122   4.972   5.313 -0.2605 -0.3069 -0.0709
21197W        W34611   2.506   5.551   6.045 -0.2010  0.2457 -0.0319
21198W        W34612  14.008   2.554   6.069 -0.2141 -0.2931  0.2036
21199W        W34613   0.071  10.016  15.286 -0.0136  0.0194  0.2232
21200W        W34614   5.534  14.593   5.430  0.0138 -0.0072  0.0424
21201W        W34615  14.241   2.464  12.284  0.0788  0.0917  0.0966
21202W        W34616   1.438  17.325  11.394 -0.1521 -0.1532 -0.0938
21203W        W34617  14.827  16.456   3.219 -0.0447 -0.0145  0.1034
21204W        W34618   4.231  10.040  14.692  0.0054 -0.0719 -0.0862
21205W        W34619  13.056  10.571  14.492  0.0235 -0.0468  0.1382
21206W        W34620   4.048   4.758   0.876 -0.0667 -0.1505 -0.1733
21207W        W34621   7.179   0.170   2.303 -0.0083  0.3952 -0.1399
21208W        W34622   8.000  16.663   0.925 -0.0813 -0.0194 -0.0112
21209W        W34623  14.611   2.687   1.340 -0.0367 -0.0104 -0.2273
21210W        W34624  13.857  15.991   1.138 -0.3824 -0.1335 -0.0820
21211W        W34625  14.403  14.548   1.020  0.0767 -0.0773  0.1767
21212W        W34626   8.937  12.284  14.900  0.0328 -0.2111  0.0347
21213W        W34627  15.604  17.262   1.899 -0.0536  0.1729  0.1665
21214W        W34628  12.348   4.700  11.689  0.4374  0.2487  0.2363
21215W        W34629  14.201   8.869   0.834  0.0882  0.2508 -0.0086
21216W        W34630  14.814  12.829   2.992 -0.2966  0.3743 -0.0943
21217W        W34631  17.360   2.603   2.737 -0.0227  0.1769 -0.0426
21218W        W34632  14.867   4.604   5.606 -0.1792  0.1378  0.0333
21219W        W34633  10.090   5.814  14.497  0.0926 -0.0529 -0.0284
21220W        W34634   5.397   5.393  16.455 -0.0958  0.0495  0.2635
21221W        W34635  17.104  13.939  11.126  0.1600 -0.1599  0.2137
21222W        W34636   4.688   4.612  12.069 -0.2177  0.0195  0.1664
21223W        W34637  14.455   4.290  14.400  0.1826  0.1038 -0.0814
21224W        W34638   1.318  14.965   0.724  0.1202  0.3372 -0.2089
21225W        W34639  11.090  12.185   4.877  0.2488 -0.0269 -0.2158
21226W        W34640   5.419   2.002  14.029  0.2095  0.0751  0.0465
21227W        W34641  10.441  11.630  11.941 -0.0789 -0.1826  0.2515
21228W        W34642  14.769  13.055   2.521  0.1569 -0.1234  0.0645
21229W        W34643  11.260   5.414  16.129 -0.2704  0.0182  0.0993
21230W        W34644   9.186   9.817   5.087  0.3493  0.0261 -0.1987
21231W        W34645  15.195  17.422   1.722  0.0726 -0.1299  0.0327
21232W        W34646  17.346   5.072   4.912 -0.1609 -0.0324  0.0341
21233W        W34647   8.816   3.445   4.085  0.0888  0.3695  0.1237
21234W        W34648  13.280   4.070   2.657 -0.1224 -0.0066 -0.2013
21235W        W34649   1.659   0.877  12.845 -0.1711  0.0715 -0.0112
21236W        W34650   5.508   0.671  11.949 -0.1228 -0.0740  0.2517
21237W        W34651   8.963  16.307  12.577 -0.0350  0.0324  0.2338
21238W        W34652   6.453  13.493   0.153 -0.0119  0.3603  0.0376
21239W        W34653  10.919   0.476   5.175  0.4927 -0.1715 -0.0885
21240W        W34654  11.983   7.880   4.593  0.0704  0.0569  0.1390
21241W        W34655  13.666  11.676   2.769  0.1460 -0.0694  0.0149
21242W        W34656  11.405  12.912   4.384  0.0536 -0.0370  0.0096
21243W        W34657  15.521   9.679  16.198 -0.0354 -0.3042  0.4707
21244W        W34658   3.249   3.719   1.471 -0.0608  0.0151  0.1251
21245W        W34659   5.138  13.956   0.992  0.0688  0.0365 -0.2812
21246W        W34660   1.645  11.529   4.313 -0.0492 -0.1405 -0.0318
21247W        W34661   9.202  10.883  16.544 -0.0500  0.0099  0.0572
21248W        W34662   6.617   2.959  16.327  0.0014  0.3044 -0.1609
21249W        W34663   6.921   3.310  13.418 -0.1133 -0.1666 -0.1467
21250W        W34664   2.280   8.178   6.238  0.3407  0.0268 -0.1322
21251W        W34665   6.646  10.685   2.965 -0.1683 -0.0485  0.2005
21252W        W34666  15.949  17.910  16.237 -0.0535  0.0768  0.1348
21253W        W34667   1.424  17.756  11.626 -0.0460 -0.0040  0.2043
21254W        W34668   6.528   1.652   0.667  0.3081 -0.2650  0.2682
21255W        W34669   3.633   7.756  10.644  0.0260  0.0695  0.0547
21256W        W34670   8.362  12.344   4.437  0.0718  0.1927 -0.0464
21257W        W34671   5.689   8.897  13.282  0.0527  0.1404 -0.1544
21258W        W34672  10.910   6.585   0.816  0.3141  0.0918  0.0026
21259W        W34673   3.317  11.286   1.611 -0.1627  0.0781  0.2003
21260W        W34674   9.114  11.474  15.111  0.1678 -0.0603 -0.2679
21261W        W34675   2.378  14.979   3.779 -0.0273 -0.0888  0.0206
21262W        W34676   8.861   8.618  15.053 -0.1445 -0.1076 -0.2853
21263W        W34677   1.389   4.569   1.714  0.1073 -0.0472  0.0903
21264W        W34678   4.592   8.029  10.586  0.2263  0.0904 -0.0731
21265W        W34679  13.543  14.186   1.895 -0.0096 -0.3244 -0.1050
21266W        W34680   9.297   5.080   2.509 -0.0678  0.1354 -0.1267
21267W        W34681  13.292   5.411   4.867 -0.1021  0.1183  0.2251
21268W        W34682  14.704   9.658   2.734 -0.0844 -0.2215 -0.2128
21269W        W34683  13.427  10.823  11.368  0.1215 -0.0303 -0.0112
21270W        W34684   6.396   3.726   0.098  0.0886 -0.0233  0.0880
21271W        W34685  13.656  11.001  13.985  0.2321 -0.0550  0.0015
21272W        W34686  17.155  14.909  14.662 -0.1328 -0.0510  0.0609
21273W        W34687   7.190   9.800  13.972  0.3826 -0.1567  0.1836
21274W        W34688   2.043  13.822   3.662 -0.1573  0.0884  0.0016
21275W        W34689   4.672   8.216   3.213 -0.1051 -0.1391 -0.0576
21276W        W34690  17.974   9.872  14.647 -0.1867 -0.0570  0.0603
21277W        W34691   5.179   5.980   1.842 -0.0100  0.1516 -0.0548
21278W        W34692   6.210  11.991  13.684  0.0385  0.1551 -0.2094
21279W        W34693  15.385   2.777  13.808 -0.2459 -0.0532  0.0410
21280W        W34694   2.809  14.156   0.094  0.1362  0.0839 -0.1672
21281W        W34695  15.469   4.480   4.166 -0.1795  0.0970  0.1263
21282W        W34696   7.472  12.304  11.501  0.2323  0.2067  0.1585
21283W        W34697   8.172   9.533   3.075 -0.0123  0.2306 -0.0934
21284W        W34698  17.225  15.396  15.440  0.2372 -0.1817 -0.0829
21285W        W34699   9.849  17.315   2.307  0.3175 -0.0707  0.5680
21286W        W34700  13.082  14.933  13.932  0.4176 -0.1367  0.0666
21287W        W34701  14.016  11.251  14.262  0.1699 -0.1469 -0.0355
21288W        W34702  13.677   8.145   6.905  0.1371 -0.0466  0.1297
21289W        W34703   0.132   1.756  11.847 -0.2583  0.1743 -0.2841
21290W        W34704   9.119   9.545   2.827 -0.1251 -0.2152  0.0059
21291W        W34705  15.740   7.200   0.841 -0.0056  0.1022  0.1725
21292W        W34706   3.343   0.782   0.129  0.0026 -0.2282 -0.0461
21293W        W34707  10.959   0.239  12.632 -0.0958 -0.0397 -0.4294
21294W        W34708  16.251  17.747   4.321  0.1497  0.0026  0.2646
21295W        W34709  17.804   5.205   0.813 -0.0821 -0.1703 -0.0312
21296W        W34710  16.596  11.137  14.902 -0.0294 -0.0669  0.1725
21297W        W34711  17.809   0.874   1.494  0.0065 -0.2212 -0.0934
21298W        W34712   2.541   6.354   6.626 -0.1119 -0.1578  0.0832
21299W        W34713   3.823   1.965  13.202 -0.1005 -0.2546 -0.1598
21300W        W34714  13.512   2.486   3.861  0.0532  0.1397 -0.0945
21301W        W34715   4.473   1.165  16.560  0.0588  0.0825 -0.0883
21302W        W34716   5.186  15.645   1.491 -0.1698  0.1780 -0.1152
21303W        W34717   4.186   8.263  16.125  0.2652 -0.0879  0.4248
21304W        W34718   8.546  14.567   5.457  0.2657  0.2760  0.0052
21305W        W34719   9.288   7.585  13.598  0.1413 -0.0295  0.0739
21306W        W34720  12.161   4.836  13.089 -0.1299 -0.0025  0.1290
21307W        W34721  14.317  14.750  14.363 -0.0608 -0.1310 -0.0468
21308W        W34722  12.552  14.085   0.355 -0.1148 -0.2503 -0.1732
21309W        W34723   1.325  13.121  11.553  0.0025 -0.0435 -0.1025
21310W        W34724   0.097  10.174  11.125  0.0005  0.0684 -0.1727
21311W        W34725  17.595  14.180  10.610  0.0558 -0.2841  0.0323
21312W        W34726  14.643   1.140  13.011 -0.1556  0.0039  0.0519
21313W        W34727  11.233   7.481   4.476 -0.1204  0.0509  0.3942
21314W        W34728   2.111  13.794  15.327 -0.0212 -0.1999  0.1149
21315W        W34729   9.964   5.746   1.397  0.0950 -0.0046 -0.0255
21316W        W34730  15.031  12.478   4.368  0.3188  0.1635  0.2300
21317W        W34731  10.315   9.358  16.012 -0.1638 -0.0863 -0.1383
21318W        W34732  10.700   7.857   1.200  0.0412 -0.0876  0.1717
21319W        W34733   2.110  17.607  15.579 -0.2127 -0.0879  0.2079
21320W        W34734   2.685   0.536  12.483  0.2543  0.2660  0.4420
21321W        W34735   0.188  11.641   3.277  0.2557 -0.0036  0.2147
21322W        W34736  12.080  17.398   4.703  0.0452  0.0269  0.1950
21323W        W34737   2.391  10.849   0.575 -0.1496 -0.2783 -0.0422
21324W        W34738   8.872  16.564  16.299 -0.0665  0.2182 -0.1042
21325W        W34739   8.556   4.536  13.078  0.0404  0.0600  0.2131
21326W        W34740   8.835  13.545  14.842 -0.2383 -0.3685 -0.1035
21327W        W34741  10.732   9.674   4.011 -0.0888  0.1290  0.1574
21328W        W34742   5.476  12.729   3.811  0.1075  0.1936  0.0196
21329W        W34743   0.122  13.029   1.986  0.2052 -0.0841 -0.1598
21330W        W34744   8.045   4.565   4.817 -0.0984  0.1993  0.2581
21331W        W34745   5.223  10.673  13.146  0.1308  0.1255 -0.0341
21332W        W34746   5.371   6.540   1.998  0.1312  0.1335 -0.4222
21333W        W34747  15.529  17.787   1.535  0.2242  0.0216 -0.0516
21334W        W34748  15.789   3.489  15.351  0.2677 -0.2952 -0.0468
21335W        W34749   5.244  10.635  16.150 -0.0224 -0.2409  0.0408
21336W        W34750  10.650  14.419   0.818 -0.2614  0.2226 -0.1640
21337W        W34751   0.863  10.365   1.748 -0.0684 -0.0931 -0.1812
21338W        W34752  16.778   2.454  15.484  0.1166 -0.1790  0.2395
21339W        W34753   7.109   5.488  11.286 -0.1278 -0.1051  0.1339
21340W        W34754  13.967   2.362   2.437 -0.0361  0.2988 -0.0261
21341W        W34755   4.638   1.494   0.852  0.0191  0.1180  0.0675
21342W        W34756   7.836   1.673  11.975 -0.1699  0.2279 -0.0510
21343W        W34757   7.987  14.910  14.195  0.1217  0.0373  0.0342
21344W        W34758  11.673   9.850  12.174 -0.2445  0.3303  0.0253
21345W        W34759   9.954  16.369  13.277  0.0902 -0.4077 -0.1148
21346W        W34760   2.787   5.991   1.982  0.2264 -0.0304 -0.1839
21347W        W34761   0.530   1.310   2.937  0.0517  0.0507  0.1328
21348W        W34762   9.512   8.830   3.989  0.1782  0.3923 -0.1005
21349W        W34763   8.039   5.495   3.720 -0.0792  0.3853  0.0124
21350W        W34764  15.915  10.029   4.104  0.1183  0.1173  0.2487
21351W        W34765  15.868   6.325   1.538 -0.1968 -0.2529  0.0793
21352W        W34766  11.683  11.329   1.710  0.1836  0.0325 -0.1025
21353W        W34767  17.157   6.833   6.281  0.0307  0.0231 -0.1007
21354W        W34768  11.940   2.346   2.470 -0.0982 -0.0336  0.0221
21355W        W34769  14.137   8.270   1.695 -0.0302 -0.3417 -0.0906
21356W        W34770   7.895  12.086  10.724  0.0472 -0.0666  0.2477
21357W        W34771  17.368   9.103  13.581 -0.0575  0.0122 -0.1030
21358W        W34772   8.790  11.256  16.603  0.2218  0.2239  0.2587
21359W        W34773  17.416  12.606  11.478  0.0633 -0.1653  0.0551
21360W        W34774  12.854  15.874  15.806  0.2097  0.1203 -0.1058
21361W        W34775  15.967   0.021   0.037 -0.1873  0.0920 -0.1634
21362W        W34776   1.784   3.520  12.977  0.2601 -0.1076 -0.1727
21363W        W34777   3.316  14.364  15.404 -0.1527 -0.0264  0.0405
21364W        W34778  11.013   0.505  13.573  0.2051 -0.2576  0.2237
21365W        W34779  17.036  15.763   3.902 -0.3136  0.2357 -0.2013
21366W        W34780   7.344  11.844   4.539  0.2736 -0.0678 -0.1085
21367W        W34781  10.923  16.601   4.682  0.0437  0.0466  0.0722
21368W        W34782   0.667  11.970   1.236  0.1147  0.0337 -0.2447
21369W        W34783   5.277  15.140  15.223 -0.0246 -0.0501 -0.0213
21370W        W34784  12.953   3.741   3.745 -0.2053  0.2145 -0.0824
21371W        W34785  13.895  15.157  12.419 -0.2042  0.2268  0.2333
21372W        W34786  12.530   1.737   5.055 -0.0135 -0.2019  0.1668
21373W        W34787  11.552   2.352  15.453  0.0878  0.0467  0.1294
21374W        W34788  12.767   0.111   4.794 -0.1357 -0.0731  0.2271
21375W        W34789   9.404  10.148   5.393 -0.3906  0.0089  0.0073
21376W        W34790  10.800   1.294  12.514  0.1275  0.0125 -0.1803
21377W        W34791   2.248   1.737   2.660  0.3486  0.0099 -0.2327
21378W        W34792  17.991  11.931  12.471  0.0883  0.0729  0.1816
21379W        W34793   4.943   6.685   4.919 -0.1941 -0.1088  0.2380
21380W        W34794  11.599   2.851  12.830 -0.0870 -0.2458  0.1383
21381W        W34795  10.345   5.570  15.733  0.3403  0.2394  0.1391
21382W        W34796  12.111   3.473   5.837  0.1702 -0.0047  0.2511
21383W        W34797  17.786   0.499   4.614 -0.0484  0.0568 -0.0650
21384W        W34798  11.044   1.755   3.910 -0.0914 -0.0207 -0.0628
21385W        W34799  17.360   2.650  14.034 -0.2294 -0.1288  0.0399
21386W        W34800  16.257  15.427   4.653  0.3939  0.2192  0.0895
21387W        W34801   1.578   7.871  12.769  0.0500 -0.2504 -0.0555
21388W        W34802  12.875   5.149   3.164 -0.0880 -0.0942 -0.1735
21389W        W34803   4.333   6.729  14.004  0.2143 -0.1134  0.0805
21390W        W34804  12.376   7.733  15.219 -0.0099 -0.2262  0.0305
21391W        W34805  18.024   7.399  14.921 -0.0247  0.1013  0.0776
21392W        W34806  12.390   2.424  11.982 -0.0008  0.0791  0.0587
21393W        W34807  13.016   2.972  11.803  0.2573 -0.1090  0.1334
21394W        W34808  16.933   0.229   0.389 -0.1616 -0.0149  0.1388
21395W        W34809  17.009   7.406   3.068 -0.0611 -0.3681  0.0126
21396W        W34810   5.995  17.215   1.289 -0.0898 -0.1684  0.0150
21397W        W34811  14.143   9.659   3.377 -0.1338 -0.1892  0.1593
21398W        W34812   6.951   4.750   3.492 -0.0218 -0.0984 -0.0980
21399W        W34813   0.164   0.144  14.536 -0.5215  0.0420  0.1838
21400W        W34814  16.529   4.144  11.862  0.0915 -0.0404  0.0845
21401W        W34815   8.249  14.900   0.971 -0.0683 -0.2870 -0.1301
21402W        W34816   8.356   7.512  15.627 -0.1850 -0.1661  0.3513
21403W        W34817  13.253  16.778   4.989  0.0486  0.1987  0.2483
21404W        W34818   8.349   1.701  14.069 -0.2169  0.1358  0.2726
21405W        W34819   5.439   3.670  11.527 -0.0728  0.1390 -0.0992
21406W        W34820   0.883  17.629  15.582  0.1504  0.0637  0.0971
21407W        W34821  15.325  13.309   4.632  0.0608 -0.0882 -0.2110
21408W        W34822   1.941   6.569   4.995 -0.0205 -0.0052 -0.0728
21409W        W34823   7.654   7.143  14.795 -0.3031  0.1821  0.0730
21410W        W34824   0.159   5.100  14.967  0.0548 -0.0884  0.0596
21411W        W34825   4.814   0.162   1.023  0.1771 -0.0843 -0.1125
21412W        W34826   4.929   8.948   6.065  0.1455  0.1032  0.1857
21413W        W34827  15.052  17.042  11.965 -0.3313  0.0031 -0.0876
21414W        W34828   4.600   8.351   1.325 -0.1352 -0.1264 -0.2568
21415W        W34829   6.682  12.819   3.048 -0.0988  0.1958  0.3588
21416W        W34830  13.327   1.622  10.421 -0.0885 -0.3687  0.0618
21417W        W34831   8.850   3.707  13.310 -0.0008  0.1746 -0.2630
21418W        W34832   6.202   3.470  11.364  0.1311  0.0855 -0.0799
21419W        W34833  14.118   2.246  10.215 -0.0892  0.0650  0.1893
21420W        W34834  12.062   1.678  14.205 -0.1883 -0.2571  0.0420
21421W        W34835   4.743  15.948   3.368 -0.0853  0.0618 -0.3393
21422W        W34836  12.660  14.405  12.103  0.0192  0.0823  0.0903
21423W        W34837   0.640   7.094  16.365  0.1845  0.1266  0.3306
21424W        W34838  14.948   7.266  12.379  0.1917 -0.0557 -0.2964
21425W        W34839  10.537  12.857  10.681 -0.3536 -0.0191  0.2104
21426W        W34840   3.625  13.902   5.839  0.2928 -0.1613 -0.1980
21427W        W34841   8.404   4.966  10.661  0.5022  0.1163  0.3081
21428W        W34842   1.380  16.925   4.483  0.0127  0.0643 -0.2738
21429W        W34843  13.039   3.637   0.518  0.0051 -0.1120  0.2467
21430W        W34844  14.788   1.518  13.674  0.0581 -0.0811  0.1354
21431W        W34845   3.658   3.247   5.999 -0.1679  0.2758  0.1850
21432W        W34846  10.887  15.976   1.889 -0.3071 -0.2318  0.0131
21433W        W34847  14.594   7.364   0.981  0.1119  0.3375 -0.2843
21434W        W34848  14.766  16.551  15.653  0.3042 -0.2318 -0.2179
21435W        W34849   2.764   2.925   5.690  0.2580 -0.3215  0.1902
21436W        W34850  14.832  12.835   5.198 -0.3582  0.1073 -0.0676
21437W        W34851  16.422   5.186   5.292  0.1090  0.1839 -0.0554
21438W        W34852   5.519  13.461  15.088  0.0933 -0.1405 -0.2428
21439W        W34853   5.870  10.523  15.220 -0.3883 -0.0053  0.2115
21440W        W34854  15.732   6.064  13.285 -0.0680 -0.1592 -0.0216
21441W        W34855   2.510  12.800   2.240  0.1705 -0.1027 -0.2323
21442W        W34856   9.139  13.626  13.798  0.2488 -0.1784  0.2522
21443W        W34857   7.677  15.230   4.267 -0.0515  0.0815 -0.2270
21444W        W34858  17.992  10.645  11.009  0.2210  0.0195 -0.2839
21445W        W34859   7.689   7.080  16.093  0.3738  0.0025  0.1746
21446W        W34860   3.583   0.957   5.591  0.2147 -0.3085  0.2455
21447W        W34861   4.825   3.401   4.921  0.0867  0.1314  0.1024
21448W        W34862   3.701   7.151  13.425 -0.1680  0.2227 -0.1364
21449W        W34863   8.625   8.990  12.839  0.2125 -0.3678 -0.0344
21450W        W34864   0.655  14.527   0.625  0.2720  0.2383 -0.4604
21451W        W34865   6.572   1.075  12.402 -0.2114 -0.4256  0.0555
21452W        W34866  17.435  16.225  15.161 -0.0402 -0.0855 -0.2596
21453W        W34867  17.356  16.126   4.038  0.2277  0.1756 -0.5568
21454W        W34868   2.600  16.102   6.563 -0.2360 -0.2364  0.2968
21455W        W34869   1.644  15.706   3.105  0.0016 -0.2506  0.3267
21456W        W34870  11.870  17.370   5.271 -0.0567 -0.0863  0.1649
21457W        W34871   3.702   6.824   2.579  0.2867 -0.0730  0.1807
21458W        W34872  15.022   9.145   1.765  0.2282 -0.0460 -0.4067
21459W        W34873   0.737   0.904  15.998 -0.1010  0.1549  0.0235
21460W        W34874  12.013   6.689   0.218 -0.0648 -0.0753  0.2015
21461W        W34875  10.937   0.693  13.110 -0.2004  0.0664 -0.0401
21462W        W34876   9.830   8.094   5.653  0.1852 -0.3332  0.0189
21463W        W34877   6.299   2.100  11.980 -0.1345  0.1888  0.2054
21464W        W34878  11.704  11.084  11.186 -0.2069  0.1502 -0.1929
21465W        W34879   5.135   3.214   4.049 -0.2157  0.0207 -0.0564
21466W        W34880   7.224  12.232  12.758  0.1891  0.1139 -0.2025
21467W        W34881  11.833  11.704   4.413 -0.3006  0.2497  0.2117
21468W        W34882   9.352   9.851   5.791  0.0540  0.0968 -0.3048
21469W        W34883   7.048  17.633   4.174 -0.2064  0.1114  0.0616
21470W        W34884   5.553  17.845   4.972 -0.1087 -0.1226 -0.0586
21471W        W34885   1.730  14.325   4.857 -0.1082 -0.0993 -0.0634
21472W        W34886   1.639   7.747   5.926  0.0008  0.1823  0.0794
21473W        W34887   9.270  11.111  14.758  0.2341 -0.0640 -0.1207
21474W        W34888   2.880   3.246   0.262  0.1993 -0.1079  0.1392
21475W        W34889   8.803  17.483  14.355 -0.3696 -0.0843 -0.1220
21476W        W34890  10.858   6.851  12.939  0.1534  0.0834 -0.0076
21477W        W34891  16.163  17.502  12.261 -0.0003 -0.0285 -0.3393
21478W        W34892   4.198   8.073  14.736  0.0826  0.4780  0.2837
21479W        W34893  12.879   8.482  12.890 -0.0486 -0.0495 -0.0670
21480W        W34894  16.650   0.401  13.334  0.2532 -0.1009 -0.0100
21481W        W34895   0.967  10.050  11.261 -0.2135 -0.0334 -0.2349
21482W        W34896   8.631   3.265  13.590  0.2266  0.3112 -0.1990
21483W        W34897   1.557  17.640  12.136 -0.0129  0.2088  0.0843
21484W        W34898  15.123   3.824  14.868  0.1307  0.2858 -0.1744
21485W        W34899   5.670   2.735  10.731  0.1114 -0.0837  0.0771
21486W        W34900  15.658   6.742  12.568  0.2112 -0.0721 -0.3273
21487W        W34901   6.591   3.139  14.345 -0.1578 -0.0291  0.1798
21488W        W34902  16.742   8.136   2.736  0.1616  0.0503 -0.0733
21489W        W34903   8.282   6.685   1.753 -0.2829 -0.0082 -0.0512
21490W        W34904   8.597  14.478  12.934  0.1647 -0.3441  0.0096
21491W        W34905  13.567  12.822  16.585  0.0360 -0.0842  0.0325
21492W        W34906   8.780   2.160  12.201 -0.1194  0.2795 -0.0010
21493W        W34907  14.934   1.982  13.934  0.3494 -0.3897  0.0833
21494W        W34908   9.340   9.140   3.185  0.1731  0.1395 -0.2733
21495W        W34909  18.001   7.415   3.095  0.1512  0.1927  0.2230
21496W        W34910   0.778   4.475   4.256  0.1291 -0.1505 -0.0997
21497W        W34911  12.646   2.118   2.961 -0.0154  0.0583  0.1289
21498W        W34912   7.122  12.162  14.429  0.1514 -0.0417  0.0311
21499W        W34913   5.908  14.988  12.272  0.2543  0.2741  0.2492
21500W        W34914  17.134  15.178  16.338  0.1228 -0.3144  0.0544
21501W        W34915   3.870  14.759  11.673  0.0836  0.0059  0.0853
21502W        W34916   5.979  13.041  15.049  0.2865 -0.0032 -0.2274
21503W        W34917  10.543  17.842   4.451  0.1452 -0.0900  0.0976
21504W        W34918  14.085   0.030   1.019 -0.0600  0.0797 -0.0128
21505W        W34919  15.691  11.950  16.249  0.0798  0.1062 -0.1887
21506W        W34920   9.961   4.558   5.053 -0.0907  0.1113 -0.0454
21507W        W34921   9.571  13.608   5.583  0.1635 -0.0083 -0.1435
21508W        W34922   7.315   8.913  10.370  0.0379  0.0636  0.0751
21509W        W34923  12.506   5.599   4.283 -0.0398  0.1083  0.0489
21510W        W34924   3.205  11.433  13.830 -0.1701 -0.0921  0.1612
21511W        W34925   4.358  17.119   1.039 -0.0249  0.1123  0.1792
21512W        W34926   4.001   9.937   3.940 -0.0300  0.4118 -0.0041
21513W        W34927  12.579   0.670  11.817 -0.0038  0.1624 -0.1037
21514W        W34928   6.885  14.064   2.787  0.0253  0.0230 -0.0059
21515W        W34929  12.301   9.971   1.167  0.2013  0.2659  0.0397
21516W        W34930  12.744   5.121   5.043 -0.0985 -0.1665  0.1205
21517W        W34931   9.364  14.635  16.177  0.0597  0.0238 -0.0924
21518W        W34932   3.614   2.950  15.345  0.0252  0.0193  0.3462
21519W        W34933  15.040   1.459  13.235 -0.0169 -0.0429 -0.1069
21520W        W34934   6.101   2.966  14.194  0.1174 -0.0955 -0.1006
21521W        W34935   4.880  13.760  16.173  0.0686 -0.1694 -0.0184
21522W        W34936  17.498   1.398   0.903 -0.1164  0.2892 -0.0747
21523W        W34937   3.578  10.648  11.395  0.2157 -0.0523 -0.0240
21524W        W34938   1.514   1.140   2.350 -0.0279  0.1215 -0.3409
21525W        W34939   8.191  15.200  11.525  0.1464 -0.0784 -0.2598
21526W        W34940  12.498   1.447  12.291  0.1813  0.0053  0.3173
21527W        W34941  13.552   8.271  12.282  0.3225  0.0389 -0.0351
21528W        W34942  11.478  10.966   2.212 -0.2318  0.1358 -0.0752
21529W        W34943  16.484   3.557  15.910 -0.0929 -0.0979  0.0510
21530W        W34944  10.762   6.339  12.188 -0.0049 -0.1414 -0.1178
21531W        W34945   2.147  14.866   6.027  0.0471  0.3083  0.0408
21532W        W34946  13.003   5.919  11.705 -0.0132  0.1205 -0.1173
21533W        W34947  16.016   6.184  13.709 -0.1753 -0.1610  0.1815
21534W        W34948   4.900   5.039   1.188 -0.3753 -0.1937  0.0399
21535W        W34949   8.423   5.342   3.413 -0.1423 -0.0295 -0.0632
21536W        W34950  14.547  13.788   0.955 -0.0735 -0.0685 -0.1898
21537W        W34951   3.058   3.322   4.675  0.1293  0.1522 -0.0307
21538W        W34952   0.752   7.061  13.565  0.2542  0.1713  0.0439
21539W        W34953   9.083  15.378  15.936  0.2045  0.0127  0.1344
21540W        W34954   6.299  16.560  16.415 -0.0384  0.1041  0.1004
21541W        W34955  16.393  15.262  14.903  0.0171  0.1050 -0.1161
21542W        W34956  11.164   5.488   1.310 -0.2729  0.0205 -0.2651
21543W        W34957  13.640   2.839  14.151 -0.1624  0.2388 -0.1001
21544W        W34958  11.191   5.168   3.866  0.1869 -0.0129  0.0412
21545W        W34959  11.218  10.870   2.672  0.0252  0.0112 -0.0691
21546W        W34960  16.082   7.220   3.490  0.2152  0.1030  0.0208
21547W        W34961   5.388  16.689   4.347 -0.0866 -0.2614  0.1230
21548W        W34962  15.258   6.668  11.081  0.0730  0.0119  0.0855
21549W        W34963  14.790   7.000   5.775  0.0132 -0.3633 -0.0635
21550W        W34964  12.608   3.470   3.511 -0.0012 -0.0530 -0.0396
21551W        W34965  12.475  12.335  15.924  0.0194  0.0623  0.5516
21552W        W34966   1.079   5.947   5.235 -0.0097  0.3544  0.0135
21553W        W34967   1.634   2.087   2.928 -0.2019  0.1410 -0.0143
21554W        W34968   8.060   8.060   4.401  0.0243 -0.1636  0.0572
21555W        W34969   0.224   5.078   4.432  0.0802  0.1251  0.2352
21556W        W34970  13.563  13.598  11.762  0.3105 -0.0378  0.1055
21557W        W34971  11.012  12.342  16.295  0.3406 -0.0189 -0.0992
21558W        W34972  11.334  12.153   1.532 -0.2433 -0.0589 -0.0993
21559W        W34973   9.896   0.311   2.850 -0.0237  0.0087  0.0720
21560W        W34974   9.128  16.024  12.168 -0.3309  0.2943 -0.0057
21561W        W34975   4.699  11.391  11.100  0.1146  0.2817 -0.1042
21562W        W34976   2.473  14.744  12.571 -0.1237 -0.0683  0.1295
21563W        W34977   0.848  14.535   3.338  0.2849  0.0504  0.2383
21564W        W34978   5.249   8.847   0.048 -0.0656 -0.0910  0.0287
21565W        W34979   2.755   3.220   4.303  0.0435 -0.0287  0.0429
21566W        W34980  12.708  16.948   4.352  0.1873 -0.2636 -0.0610
21567W        W34981   5.091  11.884  10.215 -0.3141  0.3666  0.0934
21568W        W34982   9.308   8.053  15.729  0.0634  0.1598  0.0880
21569W        W34983   6.486  15.522   3.825  0.0715 -0.2141 -0.1615
21570W        W34984   6.031  11.066  15.326  0.0366  0.0655 -0.1544
21571W        W34985   8.638   0.020  13.429  0.0176 -0.1402 -0.0637
21572W        W34986   8.559   3.690  11.296  0.0062 -0.0545  0.0218
21573W        W34987   5.808   9.819  16.260  0.0414 -0.1323 -0.2227
21574W        W34988  16.386  16.623   4.980 -0.2215  0.0499 -0.1062
21575W        W34989  14.512  11.025  11.544  0.2366 -0.0812  0.1944
21576W        W34990   6.953   7.665   0.051  0.1355  0.1353 -0.0271
21577W        W34991  12.159  16.298  13.712  0.2125  0.2883  0.0252
21578W        W34992   0.888  14.618  15.184  0.4281 -0.0318  0.1334
21579W        W34993  14.950   4.249   3.423  0.0629  0.1631 -0.0693
21580W        W34994   7.426   9.908   2.110 -0.0932 -0.0772 -0.0259
21581W        W34995   2.341   7.189   5.244  0.0447 -0.0416 -0.1515
21582W        W34996   0.418   3.973   5.170  0.0357 -0.1091 -0.0167
21583W        W34997  10.567   2.633  14.872 -0.0788  0.0767  0.0778
21584W        W34998   7.691  17.767   5.516  0.3374  0.2468 -0.3751
21585W        W34999   0.087  11.019   3.845  0.1371  0.1682  0.0545
21586W        W35000   1.465   1.587   2.677  0.2814  0.1502  0.1880
21587W        W35001  11.925  17.897  11.853 -0.4399 -0.0760  0.2155
21588W        W35002  15.177  15.223  12.705  0.0581 -0.0405  0.5654
21589W        W35003   7.286   9.689  15.651 -0.0843 -0.2123 -0.1875
21590W        W35004   2.092   3.338   2.266  0.2320 -0.0033 -0.0527
21591W        W35005   3.294  14.696  15.740 -0.3138 -0.1659 -0.0172
21592W        W35006   6.928   8.897  12.504 -0.2161 -0.1613 -0.1503
21593W        W35007  10.313  11.711   6.461 -0.0304 -0.1063 -0.0238
21594W        W35008  14.788   2.957  15.786 -0.1518  0.0948  0.1748
21595W        W35009   1.203   3.826  11.432 -0.0745 -0.1363  0.2095
21596W        W35010  10.536  11.508  12.500 -0.0105  0.0177  0.1044
21597W        W35011   1.039  12.002   2.079  0.2698  0.0527  0.1879
21598W        W35012   8.657  16.288  12.109 -0.2251  0.1195 -0.1158
21599W        W35013  12.228  13.230  10.877  0.3007 -0.1604  0.0842
21600W        W35014  12.480   4.248   6.377  0.1834 -0.2653  0.1695
21601W        W35015  11.691  14.997   0.438  0.0788  0.1158  0.1016
21602W        W35016  17.363  10.473  14.839  0.2888 -0.0248  0.2510
21603W        W35017  13.249  10.163   4.406 -0.0318  0.1295  0.1228
21604W        W35018  15.992  10.813   3.928  0.0261 -0.0302 -0.1292
21605W        W35019   3.981  13.503  16.401  0.3102  0.2166 -0.1475
21606W        W35020   5.812   2.233  11.737 -0.0438  0.2244 -0.3476
21607W        W35021   7.299   5.536  14.126  0.0939 -0.0139  0.0197
21608W        W35022   6.617  13.709   3.547 -0.2459  0.1663 -0.1603
21609W        W35023   3.719  16.134  16.365  0.1741 -0.1253  0.0081
21610W        W35024   6.507  11.047   1.223  0.1685 -0.1428 -0.3324
21611W        W35025   9.304   7.533  15.523  0.0426  0.0571 -0.1975
21612W        W35026   4.058  13.267   6.314 -0.0554  0.0877 -0.1870
21613W        W35027  12.786   1.851  10.637  0.0958 -0.0124 -0.0592
21614W        W35028   0.684  11.865  11.514  0.1408  0.0664 -0.2161
21615W        W35029   1.514  12.815   4.678 -0.3976  0.4509 -0.1625
21616W        W35030  13.217   2.066   2.026  0.0150  0.0824  0.0345
21617W        W35031   4.307  14.734  13.304  0.0566  0.4924 -0.1431
21618W        W35032  15.182   7.008   4.081  0.5299  0.1326  0.1135
21619W        W35033   0.361  11.762  15.193  0.1944 -0.3505  0.3670
21620W        W35034  15.583   2.544   2.693  0.3118  0.0579 -0.0104
21621W        W35035   3.402   5.980   3.678  0.2420 -0.0136  0.2099
21622W        W35036   4.657  17.010   1.415 -0.0270 -0.0492 -0.0811
21623W        W35037   3.573   4.861   4.312 -0.0519 -0.1626  0.2459
21624W        W35038   4.210   9.215  11.469 -0.1848  0.0202  0.0941
21625W        W35039  13.546  12.654  16.042 -0.0669 -0.1142 -0.0010
21626W        W35040   8.965   7.002  10.921  0.0245  0.0898  0.1729
21627W        W35041   0.743   9.525  15.848 -0.1205  0.1597  0.2684
21628W        W35042  13.849   4.857   0.967 -0.1051  0.1855  0.2605
21629W        W35043   2.365   8.531   4.358 -0.1574 -0.0471 -0.2146
21630W        W35044   1.148  10.400   2.969 -0.0024  0.0421 -0.0859
21631W        W35045   4.047   1.439   0.929 -0.0331 -0.3661  0.0803
21632W        W35046  16.802  15.931   1.701  0.2583  0.0741  0.5421
21633W        W35047   9.256   5.016   1.157 -0.0995  0.1635 -0.0606
21634W        W35048   5.130   8.907  11.601  0.1111 -0.0996  0.1387
21635W        W35049   8.010   4.202  11.914 -0.0659 -0.2121 -0.1373
21636W        W35050  17.324  17.995  16.479  0.1729 -0.0183  0.0502
21637W        W35051  16.380  16.599   1.230 -0.2659 -0.0555  0.3367
21638W        W35052  10.899  11.453  12.133  0.1882 -0.1072  0.0784
21639W        W35053   6.432   8.974   3.550  0.0079 -0.2695  0.1214
21640W        W35054  15.350  11.835   3.998  0.2388 -0.4460  0.1584
21641W        W35055  16.157   9.140  15.930 -0.0930  0.0287  0.1840
21642W        W35056   0.543   5.999  15.583 -0.0465  0.0596  0.0757
21643W        W35057   6.965  10.133   2.313  0.0122  0.2633 -0.0387
21644W        W35058   5.004   3.726  12.131  0.1846 -0.0744 -0.0228
21645W        W35059  10.834   3.231  10.087  0.1440 -0.1559 -0.0956
21646W        W35060   8.911   8.949   3.344  0.1134 -0.1107  0.0189
21647W        W35061  10.019   5.377  11.870 -0.0192 -0.1864  0.0597
21648W        W35062   1.288   7.346  12.683  0.0179 -0.0401 -0.2361
21649W        W35063  11.351   7.029  15.040 -0.1476  0.0495  0.1125
21650W        W35064  10.561  13.294  13.933 -0.0803 -0.0497  0.0804
21651W        W35065   9.128   1.723   2.665  0.0945 -0.0497 -0.2383
21652W        W35066  14.425   2.334  11.059 -0.0896  0.1674 -0.3161
21653W        W35067  11.651   3.797  15.649 -0.2969 -0.1223 -0.0171
21654W        W35068  13.325  13.685   3.074 -0.2460 -0.1384 -0.0531
21655W        W35069   1.765   3.842  13.353 -0.4278 -0.2188  0.1128
21656W        W35070  11.094  15.683  13.517 -0.1608  0.1049  0.1128
21657W        W35071   7.839   8.732   3.209 -0.0663 -0.2120  0.1585
21658W        W35072  14.407  11.516   1.027 -0.0395 -0.0625  0.2640
21659W        W35073   8.274   5.161   2.946 -0.0812  0.0482  0.1747
21660W        W35074  11.803  13.374  11.425  0.0627  0.2387 -0.1098
21661W        W35075   8.452   9.491   5.641  0.1441 -0.4336  0.0871
21662W        W35076  15.057   9.332  14.583  0.1714  0.2097 -0.3432
21663W        W35077   1.730   3.408  16.491  0.2024 -0.0579  0.0051
21664W        W35078  13.808   0.363   4.863  0.0588  0.2173  0.0243
21665W        W35079  12.188   4.555  12.657 -0.0771  0.1267 -0.2167
21666W        W35080   2.236  11.491  15.847  0.1186 -0.1093 -0.1659
21667W        W35081  17.494   2.189  14.210 -0.1338 -0.0141  0.0399
21668W        W35082   3.174   0.628   5.408 -0.1119  0.0242 -0.0342
21669W        W35083  11.857   4.960  12.580  0.0334 -0.1979 -0.1693
21670W        W35084  17.982  16.039  14.576 -0.0178 -0.0086 -0.1366
21671W        W35085   0.529   3.323  13.022  0.1169 -0.1706  0.1422
21672W        W35086   7.474  10.014   3.974  0.0467  0.4179 -0.3950
21673W        W35087  16.856  16.999   3.328 -0.0498  0.3773  0.2488
21674W        W35088  12.286  12.964   4.506 -0.1660  0.0173 -0.1815
21675W        W35089  15.448   5.522  16.698  0.1074 -0.1681 -0.0167
21676W        W35090  14.919  12.184   3.727 -0.3078 -0.1487  0.1926
21677W        W35091  13.947  13.306  16.363 -0.1148  0.0444  0.1045
21678W        W35092  17.363  15.918   1.837 -0.1429  0.0115  0.2516
21679W        W35093  11.269   3.516  13.978 -0.1739  0.1114  0.1458
21680W        W35094   7.963  17.933   2.521  0.0260  0.4735  0.2120
21681W        W35095  15.966   3.750   3.360 -0.1120  0.0385 -0.1993
21682W        W35096   8.317   9.814   1.315 -0.0160  0.0482  0.1885
21683W        W35097  13.856   6.095   6.157 -0.2211  0.1481  0.2538
21684W        W35098   1.933   7.886  15.687  0.0755  0.1454  0.1942
21685W        W35099  17.311   1.820  15.856  0.2595 -0.1426 -0.2179
21686W        W35100   0.437   3.067  13.964  0.2829  0.0200 -0.0637
21687W        W35101   1.511  17.144  13.038 -0.0606  0.0821 -0.1024
21688W        W35102   0.785   9.225   4.634 -0.3459  0.2436  0.2703
21689W        W35103   4.924   3.427   4.416  0.1699  0.0715 -0.0712
21690W        W35104  16.788   7.999  14.157 -0.0765  0.2139 -0.0346
21691W        W35105   7.124   5.882  15.471  0.2590 -0.0096  0.2588
21692W        W35106  16.459   4.359  14.556 -0.0094 -0.1189 -0.0155
21693W        W35107   9.707   9.298   4.172  0.0351 -0.0308 -0.0700
21694W        W35108   7.017  17.792  16.397 -0.2081 -0.2341 -0.2035
21695W        W35109   6.581   7.839   2.663  0.1048 -0.0923 -0.0798
21696W        W35110  16.063   1.056  12.752  0.4043 -0.1020 -0.2104
21697W        W35111   3.313  11.132  14.198  0.0548  0.0728 -0.0139
21698W        W35112   8.298   3.882  15.128 -0.1058  0.0145  0.1640
21699W        W35113  10.269   7.503  13.547  0.0529  0.2698  0.2014
21700W        W35114   6.601  17.902  10.987  0.0586 -0.0285 -0.0790
21701W        W35115   8.819  14.028   1.449 -0.3218 -0.0945 -0.1607
21702W        W35116   6.498  11.181   0.256 -0.1229 -0.1854 -0.0627
21703W        W35117   1.036  11.397  11.641  0.1402  0.0282  0.1740
21704W        W35118   6.273   2.852  10.702  0.1265 -0.2240 -0.1421
21705W        W35119  15.698   1.286  12.491  0.1695 -0.2014  0.1402
21706W        W35120   0.866  16.568   2.576 -0.0868 -0.2626  0.3013
21707W        W35121  12.956   0.761   3.683 -0.1833  0.0705 -0.1286
21708W        W35122  12.770  15.046   1.508  0.0884  0.0039 -0.0385
21709W        W35123   1.889   0.588   6.387  0.0695  0.0217 -0.0078
21710W        W35124  13.095  17.188   4.591  0.1909  0.0013 -0.0301
21711W        W35125  12.850  13.103   6.393  0.0317  0.2588 -0.0709
21712W        W35126  16.409  12.484  11.889 -0.0754 -0.0413  0.0508
21713W        W35127   9.714  10.928   2.168  0.1938  0.0692  0.1779
21714W        W35128  13.225   2.421   0.755  0.0461  0.2314 -0.0227
21715W        W35129   5.530  12.413   0.309 -0.0266  0.0741 -0.1305
21716W        W35130  13.298   9.779  13.678 -0.1261  0.0370  0.0299
21717W        W35131  18.029   2.336   3.406 -0.2713 -0.0060 -0.0772
21718W        W35132  17.892   5.856   4.290 -0.3128  0.0990  0.1223
21719W        W35133  11.355  16.576  12.271  0.2963  0.1789 -0.0786
21720W        W35134  17.367  10.049  13.874 -0.1844  0.0364 -0.0151
21721W        W35135  10.292   1.228  12.681  0.1664  0.0115 -0.1807
21722W        W35136  14.537   4.081   3.818 -0.0803 -0.0010 -0.1760
21723W        W35137   6.686  11.499  14.819  0.0651  0.3537 -0.2716
21724W        W35138   2.320   7.373  16.590  0.1236  0.3232  0.3144
21725W        W35139  13.398  11.564   4.577 -0.1358  0.0188 -0.0232
21726W        W35140  12.672  11.198  14.547 -0.0148  0.0920 -0.0230
21727W        W35141   1.611   1.804  10.712 -0.2146 -0.0477 -0.2131
21728W        W35142   6.307   3.618   4.757  0.0371 -0.2433  0.1606
21729W        W35143   4.550   7.596   0.806  0.0058 -0.1007  0.0660
21730W        W35144  11.406   7.481   5.786  0.0425 -0.2174 -0.0293
21731W        W35145   9.892   2.354   5.533 -0.1807 -0.0848  0.1403
21732W        W35146  14.850  14.575   0.313 -0.0590  0.0124 -0.0110
21733W        W35147  15.214   6.563  15.005 -0.0229 -0.1450  0.1329
21734W        W35148  16.175   8.096   6.198 -0.0937 -0.0649  0.3658
21735W        W35149   1.923   1.710   3.061  0.0217 -0.0165 -0.2303
21736W        W35150  12.119   1.195   4.599 -0.2254 -0.3064  0.0245
21737W        W35151   6.360   8.151   0.590  0.0903  0.1399 -0.2931
21738W        W35152   4.556  16.291   4.546 -0.2513  0.1712  0.4140
21739W        W35153   5.327   6.076   1.373  0.1018 -0.1701 -0.0731
21740W        W35154  15.402   3.619  15.815 -0.0224 -0.2581  0.0595
21741W        W35155   3.357   9.852   3.763  0.4179  0.0372 -0.4149
21742W        W35156   5.831   8.482   4.140  0.1500 -0.0481  0.1144
21743W        W35157   5.225  15.841  13.155  0.1418  0.3112 -0.0383
21744W        W35158  16.319  17.890   3.295  0.1896 -0.3531 -0.0132
21745W        W35159   7.059  17.642  11.040 -0.1181  0.0509 -0.0009
21746W        W35160  11.244   8.765  13.800  0.1174 -0.1719 -0.0486
21747W        W35161   3.777  10.328   0.255  0.0829  0.1526  0.1593
21748W        W35162   8.229   0.657   5.496  0.0112  0.0057  0.1647
21749W        W35163   9.554  17.379  11.619 -0.1433 -0.4313  0.0323
21750W        W35164  16.071   4.580   6.132  0.0772  0.2272  0.1385
21751W        W35165   1.260  17.775   4.780 -0.3988  0.0608  0.2182
21752W        W35166   0.253  13.617  16.085 -0.0554 -0.2263 -0.0645
21753W        W35167   1.937  11.658  10.878 -0.0856 -0.2131  0.2285
21754W        W35168   9.731  12.254   6.419  0.3105  0.1275  0.1941
21755W        W35169  10.792   8.114  13.064  0.1036  0.2685 -0.3064
21756W        W35170   8.513  12.058   4.050 -0.1051  0.0960  0.2865
21757W        W35171   8.952  12.582   1.202 -0.0512 -0.0479  0.0165
21758W        W35172   0.316   7.359   6.251  0.3506  0.2329  0.3270
21759W        W35173  14.296   7.908  16.593 -0.2001 -0.0186  0.2896
21760W        W35174  16.173   5.292   0.739  0.0293  0.1191  0.0819
21761W        W35175   1.112  13.442  11.217 -0.0110  0.1063 -0.0978
21762W        W35176  14.780  13.999  11.378 -0.2869 -0.2203  0.2302
21763W        W35177  11.554   5.585   3.818 -0.1594 -0.0820  0.1637
21764W        W35178  10.648  17.249  13.818  0.0361 -0.0296 -0.1209
21765W        W35179   2.164   3.437   1.785  0.2865 -0.1138  0.0120
21766W        W35180   5.965  14.005   1.826  0.0180  0.0789 -0.0935
21767W        W35181  17.326   2.674  12.120 -0.1010 -0.0046  0.0625
21768W        W35182   9.713   8.507  10.947  0.0851 -0.0881  0.0971
21769W        W35183   9.712   5.281  12.306  0.0378  0.1308 -0.0096
21770W        W35184   7.487   6.494   2.832  0.3039  0.1131 -0.4370
21771W        W35185  16.955   7.016  12.415  0.0208  0.0318 -0.1346
21772W        W35186   1.538   1.396  11.973 -0.1117  0.1585 -0.2157
21773W        W35187  10.806  15.430   5.350  0.3985  0.0874 -0.2160
21774W        W35188   0.030   8.454  15.673 -0.3149 -0.0427 -0.0650
21775W        W35189   6.763   2.988  10.773  0.0924  0.0546 -0.0764
21776W        W35190   5.641  16.254  11.564 -0.2585 -0.0624  0.0367
21777W        W35191   9.266   5.304   4.653  0.1479 -0.0983  0.1266
21778W        W35192   5.839   8.137  11.246  0.1453  0.0234 -0.0261
21779W        W35193  17.430   2.521  13.278  0.2157 -0.1124 -0.0417
21780W        W35194   4.134  10.945   2.022  0.0513  0.3190 -0.0292
21781W        W35195  13.821   6.331  15.160  0.0146 -0.1558 -0.0215
21782W        W35196  11.675  14.502   5.747  0.1459  0.0149  0.0065
21783W        W35197   9.398  14.505   4.388  0.0286  0.2876  0.0080
21784W        W35198  16.139  15.502   3.550  0.0711 -0.1315  0.1617
21785W        W35199  13.506   3.795   0.448  0.0548 -0.0021 -0.0946
21786W        W35200   2.064   3.475  11.484  0.0901  0.0685 -0.1644
21787W        W35201   0.888  14.707   3.848 -0.0918  0.1978 -0.1513
21788W        W35202  14.339   7.600  13.989 -0.0287  0.4200  0.1551
21789W        W35203   1.936   5.334  12.951  0.0258 -0.1351 -0.0578
21790W        W35204   6.081   3.078   2.652 -0.0451 -0.2819  0.2607
21791W        W35205   2.076   7.419  11.122 -0.0465  0.2006  0.4073
21792W        W35206  16.840   8.201  11.713  0.3028  0.0644 -0.2655
21793W        W35207   3.780  16.718   4.546 -0.0453 -0.0698 -0.3787
21794W        W35208  12.287  12.712   0.729  0.0234  0.0792  0.0169
21795W        W35209   6.012  15.270   3.732 -0.0038  0.0635 -0.0061
21796W        W35210   6.048   2.190   4.707 -0.1256  0.2547  0.2435
21797W        W35211  14.520  18.011  14.689 -0.2402  0.3277  0.0408
21798W        W35212  10.399  16.478  13.004 -0.2221 -0.1327 -0.1216
21799W        W35213  15.540   4.461   6.036  0.4417  0.1184  0.2427
21800W        W35214  14.950   7.096   3.658 -0.1843 -0.0102 -0.0506
21801W        W35215  10.798   8.645  13.135  0.0718  0.1297  0.0778
21802W        W35216   1.167  11.915   1.462 -0.2335 -0.0442  0.3076
21803W        W35217  11.334  11.003  15.761  0.0323  0.0497  0.0012
21804W        W35218  11.713  15.716   3.068 -0.3532  0.1640  0.0294
21805W        W35219   8.113   3.167  13.064  0.2851 -0.0363 -0.3779
21806W        W35220  13.417  16.077  16.504  0.1170 -0.0217 -0.0659
21807W        W35221   3.182   6.154  14.762  0.1966  0.0372  0.2238
21808W        W35222   6.272   0.981  14.753  0.1540 -0.0554  0.2968
21809W        W35223  10.896   3.087  12.380  0.2389 -0.0376 -0.2169
21810W        W35224  15.533  11.684   5.249  0.0912  0.1140 -0.2342
21811W        W35225  12.111   1.439   4.995 -0.0316  0.0066  0.0909
21812W        W35226  12.405   1.283   1.811 -0.0746  0.1103  0.1506
21813W        W35227   7.847  15.618   0.782  0.0391 -0.2217  0.0690
21814W        W35228   2.532  13.497  16.002  0.1168  0.1271 -0.0209
21815W        W35229   8.874   1.811   3.090 -0.3746  0.0309 -0.0540
21816W        W35230  10.080  11.954  10.964 -0.0583 -0.0916 -0.0336
21817W        W35231   6.033   2.581   2.225 -0.0402  0.4697  0.0041
21818W        W35232   8.838   8.822   5.126 -0.2958 -0.1256 -0.2874
21819W        W35233   3.893   9.381  14.672  0.2705  0.3495 -0.0527
21820W        W35234  11.436  14.013   0.373 -0.1169 -0.2479 -0.0496
21821W        W35235   3.768   1.414  14.609  0.1251  0.1332  0.1385
21822W        W35236   8.860   6.469   4.875  0.2492 -0.1528  0.2679
21823W        W35237   4.162  12.189  14.669 -0.1769 -0.1516  0.1243
21824W        W35238   6.588   3.532  10.993  0.0779  0.1106 -0.0323
21825W        W35239   5.010   1.600  10.765  0.1524  0.0333  0.0425
21826W        W35240   8.566   7.738  16.015 -0.0417 -0.2350 -0.1033
21827W        W35241  13.638  10.667   0.781 -0.1815 -0.0046  0.1617
21828W        W35242  14.201   4.365   0.664  0.0424  0.2432 -0.1320
21829W        W35243   7.701   1.860  15.298  0.0597 -0.0941  0.3482
21830W        W35244   1.652   9.341  14.907  0.2962  0.2542  0.1271
21831W        W35245  12.724  17.206  12.770  0.1049  0.1326 -0.2325
21832W        W35246   8.972  17.524  15.997  0.0117 -0.1745 -0.0586
21833W        W35247  11.407   3.484  13.430 -0.2554 -0.0159 -0.1277
21834W        W35248   3.857  17.617   4.999  0.0398 -0.3003  0.6705
21835W        W35249   2.232  12.514  12.987 -0.1500 -0.0965  0.0035
21836W        W35250  14.236  11.951   0.581  0.1873  0.1479  0.0646
21837W        W35251  12.919   9.592  15.519 -0.2197 -0.4162 -0.4599
21838W        W35252  10.043   9.923  12.821 -0.2776 -0.2039  0.1787
21839W        W35253   9.444   7.139  11.779  0.2174  0.0611  0.1758
21840W        W35254   9.228  17.030  10.514  0.1964  0.3375 -0.1582
21841W        W35255  15.086  15.111  14.837 -0.0019 -0.0204  0.1550
21842W        W35256   4.497  12.338   2.310  0.0652 -0.1721  0.2903
21843W        W35257  14.129  17.625   4.737 -0.1350  0.0838 -0.0375
21844W        W35258  11.813   1.855   0.068  0.4306 -0.2525  0.2779
21845W        W35259  14.808   0.332   0.769  0.2138  0.0360 -0.2258
21846W        W35260   5.109  10.595   2.994  0.0781 -0.3949  0.1555
21847W        W35261   0.035   7.263   5.866 -0.0161 -0.1011  0.2132
21848W        W35262   6.331   6.075  11.011 -0.1567  0.0790 -0.0011
21849W        W35263   9.349   6.553  11.838  0.1458  0.1584  0.1179
21850W        W35264   0.824  12.221   3.107  0.0276 -0.4664 -0.0655
21851W        W35265  16.252   9.929   0.656 -0.0082 -0.1089 -0.0653
21852W        W35266  15.429   9.808  14.771 -0.0693  0.3447  0.2376
21853W        W35267  16.930   5.956  13.744  0.3783 -0.2507  0.0447
21854W        W35268   0.095   8.728   5.198  0.2404  0.1069  0.1490
21855W        W35269  14.463  13.279  16.227  0.0706  0.1477  0.0465
21856W        W35270  13.382   6.006  13.540  0.1843 -0.0088 -0.0070
21857W        W35271   8.317  15.894  13.380  0.0508 -0.3039  0.2694
21858W        W35272   4.477  14.564  15.367  0.2255 -0.5574  0.1724
21859W        W35273  10.701  11.858  14.110 -0.1656  0.2189 -0.0531
21860W        W35274   3.941   7.451   1.381 -0.0846  0.0231 -0.2526
21861W        W35275   3.722   5.475  12.601 -0.0211  0.2093 -0.1946
21862W        W35276  13.960   4.149  14.186  0.2634 -0.0337 -0.0681
21863W        W35277   7.746  16.857  15.924  0.1741 -0.1885 -0.1241
21864W        W35278   4.967   8.312   4.035 -0.1437  0.0511 -0.0858
21865W        W35279  15.460  12.140   1.837  0.3739 -0.1459  0.1029
21866W        W35280   4.451  15.886  12.733  0.0147 -0.3127 -0.1149
21867W        W35281   6.264  14.434   1.684  0.1965 -0.1168  0.0658
21868W        W35282   1.971   3.008  16.230  0.1886 -0.0655 -0.0957
21869W        W35283  12.525   0.246  16.277  0.2805  0.1788  0.0306
21870W        W35284  16.337   4.030   3.675  0.0537  0.4042  0.0912
21871W        W35285   1.530  16.389   0.956 -0.0085  0.2768 -0.3601
21872W        W35286   4.466  15.148   1.995 -0.0254  0.2526 -0.1325
21873W        W35287   5.588  11.895  10.864  0.1094  0.4045  0.1075
21874W        W35288   2.067   4.957   3.672 -0.0546 -0.1431 -0.0042
21875W        W35289  12.539  10.222   0.827  0.1778  0.2879 -0.1300
21876W        W35290   2.633   4.347  11.371  0.0412  0.3610 -0.0307
21877W        W35291  15.423   6.083  11.199  0.1343  0.1071 -0.1823
21878W        W35292  17.509   8.144  12.418 -0.4031  0.1257  0.0412
21879W        W35293   9.575  14.190  13.331  0.0618  0.1168  0.0743
21880W        W35294  14.684   6.268  13.055 -0.1530  0.1682 -0.0039
21881W        W35295  10.859   7.128   4.542 -0.2811  0.1595 -0.1562
21882W        W35296  15.083   9.387  15.133  0.0063 -0.1244  0.0197
21883W        W35297  11.520  14.933  11.120  0.1410 -0.1926  0.0522
21884W        W35298  11.160   9.170  12.463 -0.1577  0.0517 -0.0114
21885W        W35299   6.022   1.609  13.525  0.2386 -0.0472 -0.0270
21886W        W35300   4.637   2.012   4.806 -0.2440  0.0247  0.2014
21887W        W35301   4.082  10.767   1.557 -0.0645 -0.1804 -0.0903
21888W        W35302   6.023  17.788   4.008  0.2028  0.0846  0.3485
21889W        W35303   9.203  10.882   9.952  0.0608 -0.4086  0.0178
21890W        W35304  13.868   2.497   1.702  0.3816 -0.3966 -0.1069
21891W        W35305   9.686   1.267  15.718  0.0165  0.1069 -0.2618
21892W        W35306  12.258   7.962  16.041 -0.0883  0.2704 -0.1305
21893W        W35307   9.151  13.225   2.764  0.0400  0.0297 -0.1636
21894W        W35308   6.473   2.768   2.923 -0.1067  0.2534 -0.0472
21895W        W35309   4.358  15.555  14.094 -0.1031 -0.0313  0.0328
21896W        W35310   6.691  16.489  10.367 -0.0462 -0.1738 -0.0857
21897W        W35311  15.891  10.454   3.334  0.2516  0.0294 -0.0243
21898W        W35312  11.342  12.589   6.285  0.0720  0.1851 -0.0179
21899W        W35313   1.530   0.975  13.324 -0.3631 -0.1100 -0.4730
21900W        W35314  17.071   5.822   5.613  0.1668 -0.1313 -0.1931
21901W        W35315  15.796  12.698   1.692  0.0113  0.0079 -0.2749
21902W        W35316  13.900   4.245  13.394  0.1883 -0.1977 -0.0792
21903W        W35317   6.453   3.505   2.007 -0.2945  0.2196 -0.0237
21904W        W35318  16.900   5.915  15.002  0.0442 -0.1933  0.3351
21905W        W35319  17.511   0.838   0.604  0.1490 -0.0725 -0.1580
21906W        W35320   7.104   2.221  13.368  0.0929 -0.0716 -0.0425
21907W        W35321  12.385   9.772  11.118 -0.0759 -0.0486 -0.0564
21908W        W35322  17.979  10.764   5.551  0.0251  0.2457  0.1266
21909W        W35323  14.551   8.092   5.541 -0.2107 -0.1319  0.1240
21910W        W35324   6.051   8.413  12.464 -0.0596 -0.2570  0.0966
21911W        W35325  12.761   5.197   0.475  0.1095 -0.1401  0.1499
21912W        W35326   3.295   5.289   4.488 -0.0809 -0.0690  0.1371
21913W        W35327  11.985   4.925   2.380 -0.0085 -0.1827 -0.0684
21914W        W35328  14.695   4.821   2.502  0.2688 -0.0847 -0.2556
21915W        W35329  11.333   2.110  13.941  0.1162 -0.1371 -0.0717
21916W        W35330   1.658  12.382   5.482 -0.1166  0.1159 -0.2316
21917W        W35331   6.027  14.237  13.754  0.2656 -0.1017  0.0774
21918W        W35332   6.747  14.205  14.625 -0.1072 -0.0283  0.0591
21919W        W35333   8.456  10.925  15.739 -0.2048 -0.1042 -0.0272
21920W        W35334   7.579   1.118   4.976 -0.0810  0.1691  0.0767
21921W        W35335   8.159  17.690   2.939  0.0178  0.0450  0.0950
21922W        W35336  18.043  12.309   0.187  0.1211 -0.1325 -0.1850
21923W        W35337  12.960  17.397  13.166 -0.0547 -0.0070 -0.1262
21924W        W35338   3.867   0.261   0.408 -0.3521  0.1758  0.0015
21925W        W35339   5.503   0.468   2.741 -0.0287 -0.0505 -0.4971
21926W        W35340   7.726   7.302   3.039 -0.3962 -0.0016  0.1857
21927W        W35341   9.652  17.683  12.268 -0.0484  0.1936 -0.0328
21928W        W35342   2.108   3.831   5.488 -0.0863  0.3477  0.0656
21929W        W35343  14.780  16.290   0.840  0.2620  0.0720  0.2478
21930W        W35344   3.618  17.482   0.404  0.0222  0.0852  0.0292
21931W        W35345   5.929   2.337   1.351  0.0309  0.2498  0.4058
21932W        W35346   8.976   4.476   3.340 -0.1980  0.1179  0.2640
21933W        W35347  15.641   7.969  14.541 -0.2393  0.2181 -0.0843
21934W        W35348  10.757   0.131  13.589  0.3013  0.0972 -0.1622
21935W        W35349   8.191  15.935  12.335  0.0256 -0.2542  0.0785
21936W        W35350   1.000  13.783   1.263  0.0492  0.1199 -0.0440
21937W        W35351   0.724  15.174  12.387  0.0685  0.2490  0.1916
21938W        W35352   1.513  11.170  15.427 -0.0387 -0.2987 -0.0053
21939W        W35353  14.798   2.990  14.456  0.1915  0.0286 -0.0965
21940W        W35354   2.562  12.031  15.694 -0.2256  0.4766 -0.3464
21941W        W35355   7.437   7.661   2.896  0.3215 -0.0296  0.1968
21942W        W35356   9.419  17.619  10.476  0.1749 -0.1981 -0.1105
21943W        W35357  16.502   5.592  13.009 -0.2667  0.1466 -0.0235
21944W        W35358  12.172  14.073  13.315 -0.0482  0.1555  0.2203
21945W        W35359   0.240  16.158  13.605  0.2793  0.0960  0.2561
21946W        W35360  13.640   9.715   4.419 -0.1549 -0.0393 -0.3871
21947W        W35361  15.534  10.592  11.950 -0.2163 -0.0119 -0.0540
21948W        W35362  12.606   7.885  15.684  0.0312  0.0658  0.4003
21949W        W35363   1.718   3.674   5.151  0.1661 -0.2307 -0.3423
21950W        W35364  16.585   5.199   3.863 -0.0402  0.0533 -0.2427
21951W        W35365  11.183   0.412  15.814 -0.1230  0.2829  0.3517
21952W        W35366  16.852  16.598   5.288  0.0305  0.0908 -0.1480
21953W        W35367  13.681   8.612  14.058 -0.0342  0.2099  0.1868
21954W        W35368  17.267  10.139  12.127  0.1819  0.1151 -0.0821
21955W        W35369   4.446  16.383  12.633 -0.1713  0.2441 -0.1198
21956W        W35370   5.751   6.064  15.839  0.0531  0.0749 -0.4286
21957W        W35371   5.698  10.300   5.944 -0.2642 -0.0818 -0.1115
21958W        W35372   0.695   7.716  16.494  0.1082  0.1727  0.0248
21959W        W35373  10.348   2.997  15.569 -0.1078  0.2793  0.1795
21960W        W35374  10.783   8.553   4.787 -0.3430 -0.1400  0.0521
21961W        W35375  13.489  14.250   3.808  0.2089  0.1906  0.0305
21962W        W35376   5.876  13.843  12.366  0.2816 -0.0128 -0.0701
21963W        W35377  10.375   3.733  16.180 -0.0844  0.4693 -0.0944
21964W        W35378   0.686   3.278  13.554 -0.1818  0.0637  0.2097
21965W        W35379   7.717   1.646  16.192 -0.3506  0.1329 -0.4522
21966W        W35380  14.064   3.526   4.561 -0.1920  0.1152 -0.0079
21967W        W35381  15.268   6.269  11.978  0.2300 -0.0421 -0.2192
21968W        W35382  10.744   4.415   3.602  0.0422  0.1038  0.3506
21969W        W35383   7.602   8.334   4.544 -0.0587  0.1085 -0.0561
21970W        W35384  17.372  14.385  14.511  0.2909 -0.3715 -0.3809
21971W        W35385   0.747   1.227  12.783  0.0580  0.0431 -0.1639
21972W        W35386   1.010   9.913   2.793 -0.2287 -0.0010 -0.0484
21973W        W35387   2.673  16.738   0.722 -0.3167 -0.0530 -0.0835
21974W        W35388  10.274  16.038  15.946 -0.2344 -0.2096 -0.1274
21975W        W35389   9.443   7.623  16.039 -0.1549  0.2117  0.0633
21976W        W35390  16.218  13.504   5.238  0.2106 -0.1155  0.0447
21977W        W35391  10.657   2.386  11.730  0.0841 -0.0650  0.0828
21978W        W35392   3.561   4.621   0.255 -0.0226  0.0112 -0.1538
21979W        W35393   5.760   6.542  12.525 -0.3465 -0.1884 -0.0896
21980W        W35394  16.404  17.121   3.696  0.1875 -0.0401  0.0501
21981W        W35395   3.140   4.853   5.372 -0.0285 -0.1544  0.0557
21982W        W35396   9.673   0.060  11.419 -0.1225 -0.2817  0.1400
21983W        W35397   0.966  14.064  10.310  0.0052 -0.1130  0.0983
21984W        W35398   5.110  11.087   1.762  0.2102  0.0057 -0.0967
21985W        W35399   5.676  14.757  10.796  0.2317  0.2445 -0.0936
21986W        W35400   3.137  16.685   1.394  0.1672 -0.0247  0.0717
21987W        W35401  15.888  12.757   0.606  0.0323 -0.4669 -0.0421
21988W        W35402  16.600   0.502  16.244  0.2495 -0.0885  0.0272
21989W        W35403   3.771  14.727  15.935  0.1001 -0.1245  0.0072
21990W        W35404   2.393   5.927   6.363 -0.4161  0.0819  0.1134
21991W        W35405  11.264   0.234   3.358  0.0847 -0.0276 -0.1182
21992W        W35406  10.864   7.943  11.846  0.1239 -0.0810  0.0667
21993W        W35407  14.342   8.268   3.163  0.0774 -0.1607  0.4095
21994W        W35408   5.441   4.918   2.076  0.0595 -0.0334 -0.0043
21995W        W35409   7.650   6.914   5.028 -0.0394 -0.2214  0.3628
21996W        W35410   8.309   2.259  11.536 -0.1678 -0.0433 -0.2171
21997W        W35411   0.869  15.920   5.795  0.2286 -0.3425  0.5410
21998W        W35412  16.520  17.799  15.336  0.0857 -0.1924 -0.1556
21999W        W35413  16.913  11.906   0.864  0.1223  0.1189  0.0802
22000W        W35414   4.485   1.365  12.413  0.0883 -0.1790  0.1385
22001W        W35415   7.348  11.697   4.991 -0.1961  0.0001 -0.0928
22002W        W35416   6.924  12.548  16.610  0.2220 -0.0576  0.0493
22003W        W35417   4.105   9.922   4.548 -0.0514 -0.0596 -0.1003
22004W        W35418   6.612   0.804   1.219 -0.0375  0.1296  0.0505
22005W        W35419  16.847   7.114  13.646 -0.1481  0.0823  0.1986
22006W        W35420   4.061   2.306   3.949 -0.0814  0.1421 -0.0854
22007W        W35421   1.232   0.852   1.960  0.0720 -0.2193 -0.0656
22008W        W35422   4.637   4.501   1.720 -0.2279 -0.2055 -0.0093
22009W        W35423  12.024   8.813   0.015  0.1755  0.0429 -0.0400
22010W        W35424  15.733   7.586   2.149 -0.0005 -0.0057 -0.0334
22011W        W35425  15.939   4.977  11.986 -0.1106  0.2073 -0.0713
22012W        W35426  13.657  11.392   4.164  0.0500  0.0106 -0.0597
22013W        W35427  11.988  16.999   0.056 -0.0281 -0.0825 -0.0238
22014W        W35428  12.014  17.210   1.020  0.1354 -0.1480  0.0334
22015W        W35429  14.921  12.848   2.122 -0.0124  0.0148  0.0646
22016W        W35430  13.251  14.246   6.548 -0.1504  0.4254 -0.0140
22017W        W35431  11.744  16.615  14.387 -0.1623 -0.2667  0.1285
22018W        W35432   4.935   3.391  13.480  0.0142  0.1291  0.1360
22019W        W35433   5.528  12.961  11.102 -0.0853 -0.0786  0.0090
22020W        W35434  14.736   2.873   5.415 -0.0150 -0.1567 -0.2776
22021W        W35435   7.350  12.829   5.816  0.1560  0.1447 -0.0696
22022W        W35436   6.692  10.519  11.006  0.1245  0.0706  0.1515
22023W        W35437   7.521   4.024   0.763  0.0882 -0.0832 -0.0386
22024W        W35438   9.031   2.599  12.253  0.3523  0.2642  0.2563
22025W        W35439  14.229  14.399   4.738  0.1171  0.0271  0.0047
22026W        W35440  10.380   0.430  16.633  0.0258  0.0973  0.0920
22027W        W35441   1.586   8.476   4.720  0.0241  0.0389  0.0485
22028W        W35442  12.641   2.314  12.418  0.0042 -0.0963  0.0024
22029W        W35443  10.301   0.167   1.465  0.1529  0.2445  0.1774
22030W        W35444   3.704   8.807  15.504  0.1157 -0.1986 -0.2177
22031W        W35445  10.645   4.872  12.102 -0.2531 -0.0529 -0.0010
22032W        W35446   5.936  15.595  13.314  0.0615 -0.2774  0.1054
22033W        W35447   6.477  16.025  15.606 -0.1395 -0.3402  0.1260
22034W        W35448   2.259   9.608   0.679 -0.2722  0.0402  0.0508
22035W        W35449   0.216   7.740   2.848  0.1762  0.1059 -0.1573
22036W        W35450   8.714  17.369   1.793  0.3181  0.1660 -0.0424
22037W        W35451  15.594   4.443   0.810  0.1435  0.0353  0.1075
22038W        W35452  15.546   6.753   2.405 -0.2727  0.1841 -0.0415
22039W        W35453  11.148  17.447   0.439 -0.0046 -0.1059  0.0792
22040W        W35454   0.627   1.509   4.685 -0.0593  0.1060  0.0507
22041W        W35455   3.934  15.651   5.180  0.2034 -0.1034 -0.0395
22042W        W35456  12.527   8.916  14.513  0.2017 -0.0636  0.1888
22043W        W35457   8.990   8.367  12.571  0.0130  0.2772 -0.0305
22044W        W35458  11.441   6.403  10.986 -0.1803 -0.1233 -0.1284
22045W        W35459   7.701   9.293   1.667  0.0027 -0.3627 -0.0174
22046W        W35460   5.996  13.671   4.848 -0.3439 -0.0101 -0.0219
22047W        W35461  10.690  10.670  12.744  0.1551 -0.0014  0.0009
22048W        W35462  11.429   7.699  14.661  0.0432  0.1698 -0.0739
22049W        W35463  13.838  12.882   5.517  0.1430  0.3460 -0.1956
22050W        W35464   9.409   7.492   4.099 -0.2162  0.0724 -0.1714
22051W        W35465   4.768   2.515  10.744  0.0792 -0.0821 -0.0793
22052W        W35466   1.480  14.139   4.402 -0.2164 -0.0523 -0.1771
22053W        W35467  17.288  14.865   1.871  0.2767  0.0910  0.1302
22054W        W35468  17.993   8.094   2.090 -0.2934  0.0365  0.1491
22055W        W35469   0.380  14.654   6.611 -0.3163 -0.2626  0.0472
22056W        W35470   6.715   7.601  13.488  0.3484  0.0838 -0.0440
22057W        W35471  15.030  17.174   2.114  0.1719  0.3434  0.0757
22058W        W35472  15.981   5.157  10.993  0.0032 -0.1956  0.1594
22059W        W35473  14.874   7.579   0.600  0.2909 -0.0275  0.1757
22060W        W35474  13.116   6.927   1.738 -0.2234  0.2159 -0.3765
22061W        W35475   5.289   1.781   6.098  0.2090 -0.1403  0.0810
22062W        W35476   1.502  11.091  15.973 -0.0023  0.0002  0.1194
22063W        W35477  17.838  13.296  15.224  0.2671  0.0099 -0.1998
22064W        W35478  13.647   3.959   5.653  0.0596 -0.2100  0.0379
22065W        W35479   3.971   9.773   1.767 -0.0062 -0.2780 -0.1500
22066W        W35480  16.185   8.873   5.295 -0.2126  0.1262  0.1082
22067W        W35481  10.672  14.953  13.348  0.2685  0.1292 -0.2166
22068W        W35482   7.405  15.890   5.530  0.1376 -0.3473  0.0260
22069W        W35483  11.898   8.781   5.655  0.1167  0.1987  0.2234
22070W        W35484   7.881   3.239  11.447 -0.0631  0.2540 -0.0318
22071W        W35485   8.520  11.258  13.451 -0.2038  0.2042 -0.3121
22072W        W35486  11.998  13.434   3.235 -0.2712 -0.0137  0.0851
22073W        W35487   6.291   4.122   2.469 -0.1464 -0.1908  0.0610
22074W        W35488   0.259   6.967  12.683  0.1070  0.0583 -0.0019
22075W        W35489  13.399   8.371  14.678  0.0290 -0.0323 -0.0583
22076W        W35490   9.478   8.332   0.952  0.1198 -0.3479 -0.2204
22077W        W35491  10.288  10.276  13.228  0.0945 -0.2460  0.2594
22078W        W35492   7.732   7.496   5.215 -0.0636  0.2122 -0.1279
22079W        W35493   3.755  17.670  10.991  0.0900  0.1412  0.0119
22080W        W35494   8.032   9.291   3.900 -0.2736  0.0671  0.0526
22081W        W35495  12.926   5.827  15.298 -0.4048 -0.0511  0.0040
22082W        W35496   2.721   4.988  10.336  0.0173  0.0118  0.1245
22083W        W35497  16.559  14.742   4.012 -0.0985  0.0898  0.2002
22084W        W35498   1.597   3.289   2.081 -0.0640  0.0843  0.1714
22085W        W35499   7.728   4.550   1.994 -0.1936 -0.0736 -0.0772
22086W        W35500  13.756  12.387   4.372 -0.1056 -0.1912  0.1668
22087W        W35501  13.558   2.806   4.803  0.2862 -0.1076 -0.3061
22088W        W35502   0.186   4.008  14.723  0.0931  0.0083 -0.1070
22089W        W35503   0.497   6.580  13.603  0.0562 -0.2357 -0.0025
22090W        W35504  16.362   0.181  12.824 -0.2357 -0.1038  0.1987
22091W        W35505   0.255   7.898  12.299  0.2539  0.1331 -0.2563
22092W        W35506  17.820  11.164   0.450 -0.5168 -0.0567  0.4042
22093W        W35507   6.466  17.527  14.702  0.1552  0.0112  0.0221
22094W        W35508   3.077  12.721  12.275 -0.0955 -0.1423  0.2285
22095W        W35509  10.492  15.325  14.253 -0.0216  0.0305  0.1450
22096W        W35510   5.306   3.567   6.308 -0.0669  0.2794 -0.0035
22097W        W35511   7.884   6.711  16.570  0.2290 -0.0181  0.2557
22098W        W35512   9.987   0.776  14.066  0.0320  0.1019  0.2194
22099W        W35513   6.190   5.681   3.879  0.3685 -0.0845 -0.0494
22100W        W35514  16.736   4.699  14.418 -0.0366  0.0987  0.2056
22101W        W35515  16.006   7.513   4.565  0.0764  0.3639  0.1684
22102W        W35516  11.206   4.811   3.059 -0.0112  0.0866 -0.0034
22103W        W35517   3.083   3.981   5.108 -0.1328 -0.0349  0.0280
22104W        W35518   1.258  12.781   1.420  0.1330 -0.1956  0.2011
22105W        W35519  10.027  17.723   4.540  0.0332 -0.5575 -0.0888
22106W        W35520   6.922   4.652   0.646  0.0757  0.0561 -0.0383
22107W        W35521   9.696   6.288  15.997  0.0377 -0.0182  0.1237
22108W        W35522   0.743  17.611   1.891  0.0965  0.0232 -0.1942
22109W        W35523  17.325  14.836   3.631  0.0870 -0.0933 -0.0204
22110W        W35524  12.654  13.692  14.706 -0.0539  0.2338  0.0332
22111W        W35525  11.956  13.845  14.143  0.0130 -0.2678 -0.0162
22112W        W35526   9.952  13.670   1.287 -0.0474 -0.1968  0.0084
22113W        W35527   8.433  17.481  10.817 -0.0710  0.1275  0.4892
22114W        W35528   2.452   3.902   2.707  0.0897 -0.0679  0.2575
22115W        W35529   7.257   1.277  13.450  0.0685 -0.3570 -0.1918
22116W        W35530  17.867   0.420   2.680 -0.0402  0.3911  0.1537
22117W        W35531   0.870   6.230   0.488  0.0338 -0.0846 -0.2496
22118W        W35532  16.867  16.672   1.441 -0.2205 -0.2727  0.2184
22119W        W35533   8.875   5.688  12.529  0.5261 -0.2378 -0.2139
22120W        W35534  12.033   1.220  14.376  0.2024  0.2720  0.2117
22121W        W35535  12.078   3.349  11.757 -0.1479 -0.0514 -0.1759
22122W        W35536  14.138  10.831   0.897  0.0320 -0.2515 -0.2978
22123W        W35537  15.237   8.570  12.925 -0.0258 -0.0197 -0.0109
22124W        W35538  15.233   2.837   2.547 -0.1629  0.2325  0.4805
22125W        W35539   6.733  10.397  11.491  0.0614 -0.1292 -0.2930
22126W        W35540  11.277   2.894   3.283  0.2249 -0.2362  0.0575
22127W        W35541   1.317   2.860  15.604  0.2473 -0.2185  0.0191
22128W        W35542  14.373  11.455   4.827  0.0371 -0.2906 -0.2351
22129W        W35543  13.880   2.338  11.934  0.0856 -0.1116  0.0942
22130W        W35544   1.528   3.901   2.865  0.0611 -0.1343  0.0123
22131W        W35545  13.156  11.313  15.962  0.0980 -0.2225  0.1235
22132W        W35546  10.997   6.876   1.238 -0.1978 -0.0265  0.2548
22133W        W35547   2.787   5.403  14.214 -0.0602 -0.3382  0.1257
22134W        W35548   2.671  14.070  11.897  0.1561 -0.0570  0.3069
22135W        W35549   0.387   8.609   2.413  0.0378 -0.0762  0.2196
22136W        W35550   3.518   3.844  12.828  0.1929  0.1674  0.2447
22137W        W35551   2.810   4.120   0.560 -0.0249 -0.0711  0.2379
22138W        W35552  10.975   0.306   2.109 -0.1852 -0.0208 -0.2081
22139W        W35553  14.591   7.432   4.759  0.2624  0.1714 -0.0599
22140W        W35554  16.978   0.409   1.779  0.0577 -0.3041 -0.1293
22141W        W35555  11.714  16.625   4.166 -0.0191 -0.0791 -0.0604
22142W        W35556  10.632  14.357  14.148 -0.1874  0.2895  0.3033
22143W        W35557   5.996   8.025  13.320  0.1069 -0.0491 -0.0684
22144W        W35558   6.218   5.513   2.294 -0.0310  0.0532 -0.0395
22145W        W35559  15.129  17.177   4.937  0.1234 -0.1080  0.0380
22146W        W35560  16.061   9.406  12.891 -0.0032  0.1091  0.3726
22147W        W35561  14.930  14.268  12.148 -0.2852  0.0770 -0.2823
22148W        W35562   2.692   7.189  13.192 -0.0385  0.0594  0.0012
22149W        W35563  13.340   3.115  11.463  0.2293  0.0566  0.1002
22150W        W35564  13.867  11.560  10.949 -0.0353 -0.1819  0.0146
22151W        W35565  15.246  16.475  14.969 -0.0466  0.2514  0.4395
22152W        W35566   1.126   8.076   3.510 -0.0450 -0.0883 -0.1621
22153W        W35567  13.915  15.532  11.563 -0.3391 -0.1718  0.4636
22154W        W35568  16.890  10.547   1.724  0.0976  0.1647  0.0885
22155W        W35569   9.702   4.044   2.734 -0.1958 -0.0521  0.0621
22156W        W35570  14.892  14.245  16.025  0.1648  0.0773 -0.1235
22157W        W35571  13.261  13.649  12.952  0.0734 -0.5763  0.0250
22158W        W35572   9.056   0.227  14.827 -0.2487 -0.0021  0.0436
22159W        W35573  12.877  13.010  10.112  0.1651 -0.2343 -0.0145
22160W        W35574  12.379  13.834   5.484  0.3451 -0.0971 -0.3133
22161W        W35575   0.734  10.135   1.344 -0.0779 -0.2541 -0.1782
22162W        W35576   0.026   3.762   6.204  0.0474  0.0887  0.1302
22163W        W35577  16.423   0.766   1.776  0.1290  0.0933  0.1496
22164W        W35578   7.751  14.592  14.729  0.1568 -0.1136 -0.0159
22165W        W35579  15.863   2.341  15.749  0.0143 -0.0717  0.1198
22166W        W35580  12.914  14.242  16.194 -0.0930  0.3712  0.2424
22167W        W35581  13.969  11.673   1.275 -0.0211 -0.0419 -0.0122
22168W        W35582   2.229   4.055  13.379 -0.1456  0.2242  0.0946
22169W        W35583   3.039  13.016   0.616 -0.2540  0.1236  0.0846
22170W        W35584  12.764   9.696  16.095  0.1482 -0.1019  0.1142
22171W        W35585   7.225   4.015  16.429  0.1179  0.2989  0.2202
22172W        W35586  10.625  12.059  16.457  0.1986 -0.1187 -0.1491
22173W        W35587  17.478   8.842  11.724  0.0813 -0.1012  0.0690
22174W        W35588   7.823   4.118   4.059  0.0662 -0.0545 -0.3057
22175W        W35589   2.746   0.738   0.907  0.1139  0.2420 -0.0676
22176W        W35590  15.592  13.311   4.119  0.2002 -0.3813 -0.2895
22177W        W35591  13.092  15.749  14.940 -0.0708  0.1238  0.2530
22178W        W35592  12.317   1.451   2.427 -0.2221 -0.0974  0.0970
22179W        W35593  10.506   9.247   0.330  0.0163 -0.1951  0.0504
22180W        W35594   2.146  17.566  13.658  0.1185  0.1223 -0.0773
22181W        W35595   3.511  15.535  13.971  0.1350  0.1741  0.3248
22182W        W35596   5.600  12.422   1.709  0.0327 -0.0380  0.1655
22183W        W35597   2.070   6.151  13.556  0.0457 -0.1333  0.1198
22184W        W35598  17.853   5.093  12.515  0.0840  0.1836 -0.0317
22185W        W35599   8.229  13.456  11.071  0.2374  0.1107 -0.2180
22186W        W35600   5.791  11.525   1.346 -0.0289 -0.1515 -0.2363
22187W        W35601  10.213   1.023  13.643  0.1359  0.1315  0.2553
22188W        W35602  13.506  16.392  16.101  0.2178  0.0559 -0.1650
22189W        W35603  13.908   2.737  11.550  0.0632 -0.0227  0.0281
22190W        W35604   7.144  14.524  15.964  0.4684 -0.0846 -0.0621
22191W        W35605   0.190  12.992  15.432 -0.0991  0.0635 -0.1793
22192W        W35606   8.934   0.890   3.010  0.0337 -0.0255 -0.3762
22193W        W35607   9.421   4.440   1.507  0.0586  0.3096  0.0022
22194W        W35608  11.658  17.955   3.293  0.1158  0.0847 -0.1160
22195W        W35609  15.890   5.975  11.312 -0.2978 -0.1198  0.2684
22196W        W35610  16.698   6.863  15.125  0.1212 -0.0068  0.0157
22197W        W35611  13.848   1.339  12.929 -0.2173 -0.2994 -0.1894
22198W        W35612   0.011  17.235   1.705  0.2938  0.1362  0.1729
22199W        W35613   2.695   9.907  11.582  0.4561  0.0279  0.0115
22200W        W35614   0.746   3.407   1.021  0.2013 -0.0579  0.5111
22201W        W35615   1.848  15.542  13.312 -0.0893 -0.0721 -0.3220
22202W        W35616  16.756   7.613  15.405  0.0152  0.0366  0.0517
22203W        W35617  12.744  12.968   4.319  0.1608 -0.0024 -0.0570
22204W        W35618   9.642  15.458  11.740  0.0070 -0.0989 -0.0328
22205W        W35619   0.107  14.734   5.718 -0.2327  0.0892  0.3268
22206W        W35620   1.454   0.550   3.629  0.0392  0.0399  0.1377
22207W        W35621   8.740   0.126   3.561 -0.1738  0.1921 -0.1337
22208W        W35622   7.449   1.334  15.592  0.1735 -0.2460 -0.1554
22209W        W35623   9.952   7.486  16.075  0.3004  0.0531 -0.0738
22210W        W35624  17.917   0.097  12.733 -0.1067  0.0291 -0.1700
22211W        W35625   5.343  16.803   0.135  0.2732 -0.0970 -0.0490
22212W        W35626  13.159   0.111   2.916 -0.1997  0.1464  0.0250
22213W        W35627  13.938   9.875   5.388 -0.0180 -0.2661  0.0676
22214W        W35628  16.215   4.399  16.533 -0.2386  0.0366 -0.1065
22215W        W35629  15.374   7.866  13.620  0.1161 -0.0494 -0.0819
22216W        W35630   9.515   0.109  10.440  0.1053  0.0699  0.1523
22217W        W35631  16.413  13.305   1.897  0.0049 -0.2270 -0.0319
22218W        W35632  13.166  11.385  13.292 -0.1486 -0.2542  0.0305
22219W        W35633  14.778   7.348   4.077 -0.0309  0.0049  0.2110
22220W        W35634   0.078   0.828  16.651 -0.0924 -0.0061  0.1977
22221W        W35635  17.585   7.205   5.944  0.2158  0.1074 -0.0784
22222W        W35636  17.683   8.445  12.988 -0.2313  0.0798 -0.0555
22223W        W35637   6.802   4.729  14.546  0.1924 -0.1642 -0.3391
22224W        W35638   0.951  17.577  11.354  0.0608 -0.1430  0.1445
22225W        W35639   7.667  15.576   5.749  0.0518  0.0690  0.4030
22226W        W35640  15.509   2.305   3.277 -0.0760  0.0270 -0.1959
22227W        W35641  11.046  17.013  16.615 -0.2670 -0.1594 -0.2588
22228W        W35642   3.338  14.469  16.181  0.4044  0.0602 -0.1501
22229W        W35643  10.730   0.458  11.097  0.2718  0.2124 -0.0538
22230W        W35644   0.756  10.461   5.037  0.0540  0.0174 -0.1277
22231W        W35645  17.794  10.695   0.524 -0.1472 -0.1155 -0.0030
22232W        W35646  10.861  10.329   2.033 -0.1123 -0.1312  0.0854
22233W        W35647  14.685   5.073   2.049 -0.0740  0.1244  0.0863
22234W        W35648  10.319   8.834   0.539  0.1554 -0.1916  0.2304
22235W        W35649  16.596   2.392  16.442 -0.0465  0.0622 -0.1032
22236W        W35650  16.518   5.396   6.296  0.1676 -0.2110  0.0880
22237W        W35651   6.483  16.489  11.935 -0.0072  0.0086 -0.3276
22238W        W35652  15.701  11.017  12.117  0.3131 -0.1146  0.0317
22239W        W35653  14.112   6.786   4.108  0.0170 -0.1671  0.0946
22240W        W35654   8.558  16.998   4.968 -0.0687  0.2597  0.0790
22241W        W35655  15.966   1.709  15.003 -0.0052  0.0331 -0.0249
22242W        W35656  14.694   3.578  15.239 -0.0005 -0.2670  0.0020
22243W        W35657  11.092   9.718  12.575 -0.0144  0.0009 -0.1808
22244W        W35658  15.816   2.497   4.809 -0.0023  0.1553 -0.0791
22245W        W35659  11.966  10.656  12.891  0.3005  0.1441  0.0621
22246W        W35660  12.086   1.941   5.131  0.1791 -0.1282  0.2149
22247W        W35661  15.812   4.070   1.397 -0.1846  0.0626  0.0528
22248W        W35662   2.318   6.029  12.516  0.3012  0.2366  0.0566
22249W        W35663   4.939   5.080   6.335 -0.0304  0.1800  0.0478
22250W        W35664   2.820   3.742   3.262  0.2674  0.3025  0.4332
22251W        W35665  10.608  12.399  14.158  0.0953  0.0117  0.0222
22252W        W35666   9.531  15.190  12.664  0.1572  0.1484 -0.0718
22253W        W35667   2.597  12.721   1.317  0.1933  0.0289 -0.2111
22254W        W35668   9.273   1.314  10.336 -0.0856  0.1220 -0.0704
22255W        W35669   4.946   9.644   5.511  0.3684  0.0145  0.0448
22256W        W35670   2.766  11.007   4.895 -0.2073  0.1416  0.0612
22257W        W35671  12.115   4.841  11.239 -0.0426  0.0301 -0.1111
22258W        W35672   4.578  16.688  16.279 -0.0929 -0.0598  0.0417
22259W        W35673   6.793   8.606   3.674  0.0711 -0.2111 -0.0728
22260W        W35674   1.439   4.941   0.292 -0.1616 -0.2368 -0.0479
22261W        W35675   9.724   8.973   6.190  0.0421 -0.1397 -0.2809
22262W        W35676   6.910   1.216   1.475 -0.0527 -0.0534 -0.1796
22263W        W35677  17.817   6.946   3.330  0.0559  0.2691 -0.2224
22264W        W35678   9.828  16.776  10.507 -0.1361 -0.0214  0.1275
22265W        W35679  13.506  15.424   1.959  0.0358 -0.1192 -0.1719
22266W        W35680  15.009   8.256   4.661  0.0932  0.2282 -0.4120
22267W        W35681  10.756   2.248   6.322 -0.1428 -0.0976 -0.1309
22268W        W35682  10.672  17.372   1.786  0.0517  0.1427  0.2156
22269W        W35683  16.246   1.357  11.183  0.1620 -0.0328  0.2026
22270W        W35684   4.119  14.505  12.484  0.1365 -0.1247 -0.1410
22271W        W35685  15.971  13.310  16.031  0.0258  0.0422 -0.2865
22272W        W35686  16.485  15.746  10.903 -0.0626  0.4789  0.0702
22273W        W35687   1.446  17.753  14.875  0.2796  0.1888 -0.2279
22274W        W35688   5.866  14.863  11.233 -0.1868 -0.2477 -0.1997
22275W        W35689   4.757   7.933   1.601 -0.0379 -0.1607 -0.0854
22276W        W35690   1.956   5.929  11.446 -0.0145  0.2078 -0.2524
22277W        W35691  15.025  15.118   2.443  0.1161  0.0001  0.0188
22278W        W35692  11.552   1.244  12.435  0.1586  0.0396 -0.1660
22279W        W35693  10.253   7.445   5.063 -0.0359 -0.0313  0.0168
22280W        W35694   3.723   2.571   3.707  0.1494  0.0792 -0.2271
22281W        W35695   5.866  16.525  13.047 -0.1355 -0.2112 -0.1320
22282W        W35696   6.870  10.064   3.841  0.0067  0.0275 -0.0007
22283W        W35697  15.431  10.997   3.035  0.1055 -0.1712  0.4124
22284W        W35698   9.852  15.412  16.415 -0.1961 -0.1486 -0.0161
22285W        W35699   0.109  11.754   4.823  0.2063 -0.1442  0.1338
22286W        W35700   0.548  14.620  16.479  0.0528  0.2108 -0.2146
22287W        W35701   0.535   2.621  12.123  0.1695  0.1987 -0.3817
22288W        W35702  15.091   3.970   4.989  0.1017 -0.0729  0.0876
22289W        W35703   2.094   9.311   4.531  0.0624  0.2527  0.1212
22290W        W35704   1.392   9.831   0.615  0.0624  0.3031 -0.0540
22291W        W35705   6.562   5.883   4.392  0.0822  0.0129  0.1410
22292W        W35706   8.995   7.232  10.471  0.3090  0.0832 -0.0562
22293W        W35707  14.073  11.402  12.784  0.1228 -0.0676  0.2358
22294W        W35708  14.269   8.898   5.882 -0.0370  0.3352 -0.0095
22295W        W35709  14.060  13.587  12.731 -0.0500  0.0271  0.1297
22296W        W35710   7.021  10.016   6.461  0.3428  0.0503  0.1713
22297W        W35711  10.655   7.994   2.930  0.2646 -0.2408  0.1158
22298W        W35712   1.898   1.287   2.757  0.0416  0.3863 -0.0935
22299W        W35713   2.849  15.730   3.801  0.0984  0.0404 -0.0292
22300W        W35714   1.456  14.877   0.037 -0.4709 -0.1860 -0.2467
22301W        W35715   2.576   4.307  15.696 -0.2070 -0.2141 -0.1229
22302W        W35716   3.208   2.216  14.349  0.0666 -0.0625 -0.1465
22303W        W35717  13.726   6.455   3.753 -0.0697  0.2402  0.0545
22304W        W35718   7.488  15.671  12.396  0.0259 -0.2513 -0.0472
22305W        W35719   6.859   1.660  10.428  0.0077 -0.3667 -0.0327
22306W        W35720  14.405   0.530   1.689 -0.0341  0.2774 -0.4142
22307W        W35721  12.800   3.323  16.311 -0.1057 -0.0242  0.0123
22308W        W35722  14.291   1.843   2.238  0.1439 -0.2674  0.0250
22309W        W35723   9.098  17.282  11.635  0.0815 -0.1048 -0.0572
22310W        W35724  10.591   0.212   2.525  0.0035  0.0795  0.0044
22311W        W35725   5.511   6.934  14.100  0.2421  0.2484  0.3115
22312W        W35726   4.740  10.916   2.128  0.2836 -0.2316 -0.0651
22313W        W35727  10.074  10.478  10.894 -0.2190 -0.3078 -0.2439
22314W        W35728  12.943   2.031   4.938 -0.0639  0.0587 -0.2565
22315W        W35729  10.321  17.661   3.232 -0.3919 -0.1086 -0.2108
22316W        W35730  15.018   8.654  14.174 -0.2127 -0.2641 -0.0924
22317W        W35731   3.221   4.289   6.323 -0.1104  0.1751  0.0543
22318W        W35732   0.828   7.720   4.951  0.1669  0.2035 -0.2835
22319W        W35733   8.029  10.722  10.270 -0.2932  0.4696  0.1068
22320W        W35734   3.676  17.542  12.346 -0.0284 -0.2165 -0.2101
22321W        W35735  13.483   1.417  12.565  0.1776 -0.4428  0.2721
22322W        W35736   9.591   4.560   2.570  0.2293  0.1282  0.0780
22323W        W35737  16.226  15.711  14.263 -0.0824 -0.2929 -0.0620
22324W        W35738   9.168   1.712  10.126 -0.2184  0.1383  0.0472
22325W        W35739   0.323  16.405  14.750  0.0021  0.2074  0.1485
22326W        W35740  17.542   4.163  16.357 -0.1444  0.1529  0.0486
22327W        W35741   1.035   4.158   0.670 -0.0138 -0.0603  0.2841
22328W        W35742   5.127   0.942   1.371  0.1959 -0.1950 -0.2132
22329W        W35743   2.735  12.681  13.029  0.1894 -0.1736  0.2337
22330W        W35744  17.206  10.743  12.915 -0.1967 -0.1404 -0.1506
22331W        W35745  17.685   0.570   5.166 -0.2269 -0.2135  0.2092
22332W        W35746  17.486   0.305   0.643 -0.1189 -0.4968  0.0763
22333W        W35747   0.431   4.854   4.022  0.0925 -0.1322 -0.2164
22334W        W35748  12.885   3.143  14.862 -0.2427  0.1333  0.0293
22335W        W35749   4.439   9.470   4.663  0.0084 -0.1969  0.0250
22336W        W35750  13.652  16.979  16.690 -0.0672 -0.0608  0.0493
22337W        W35751   4.137  10.941  16.162 -0.0476 -0.1233 -0.0921
22338W        W35752  14.276  16.143   0.766 -0.1958  0.1582  0.1035
22339W        W35753   8.248  11.807   5.324 -0.0498 -0.0956  0.1138
22340W        W35754  14.028   1.795  14.002  0.2433  0.0009 -0.1429
22341W        W35755  15.275   5.129   2.103 -0.0416  0.2166 -0.0983
22342W        W35756   6.593   1.011  13.480 -0.3279  0.0405  0.0618
22343W        W35757   6.246   8.323   1.075  0.1156 -0.0282 -0.2642
22344W        W35758   2.843   1.916  13.341  0.0718 -0.1592  0.0387
22345W        W35759   9.074   4.688   2.309  0.2419  0.2756  0.0601
22346W        W35760   1.562   7.641   4.278 -0.2232  0.0237  0.0743
22347W        W35761   5.606   7.840  14.813 -0.0768  0.1583 -0.1268
22348W        W35762  16.444  11.275  13.986 -0.2382 -0.1307  0.1614
22349W        W35763  14.602  11.320   3.911  0.1628 -0.0445 -0.2351
22350W        W35764   4.448   3.628  13.054  0.1144  0.1524  0.0348
22351W        W35765  11.374   6.047   1.951  0.2652 -0.2831 -0.1477
22352W        W35766  12.362   8.450   1.883 -0.1845 -0.0248 -0.0168
22353W        W35767  13.261  13.243   6.130 -0.0987  0.0329  0.1556
22354W        W35768  14.473  13.320  14.666 -0.3527  0.1826 -0.1145
22355W        W35769   7.036   5.141   0.595 -0.0983  0.0386  0.1643
22356W        W35770  13.574   7.000  12.128  0.2008  0.2085  0.2356
22357W        W35771   6.434  16.565   1.840 -0.5188 -0.1640  0.3323
22358W        W35772   8.597   5.213  11.889  0.2866  0.3968  0.0808
22359W        W35773   2.071  15.853  15.874 -0.1406  0.0015  0.1394
22360W        W35774   2.032  11.144  16.112 -0.0064 -0.0209 -0.0287
22361W        W35775   8.768   3.633   9.754  0.1300  0.2826 -0.0283
22362W        W35776   1.890  10.394  11.268  0.0485  0.0335  0.0179
22363W        W35777   6.984  13.937  13.773 -0.0992 -0.1416  0.1594
22364W        W35778   9.341  11.560  14.546 -0.1225 -0.0075 -0.0519
22365W        W35779   4.900  12.631  10.488  0.0370 -0.2838 -0.0640
22366W        W35780   6.883   6.096   0.283  0.2323  0.0249 -0.2347
22367W        W35781   9.197   7.600   4.859 -0.0081 -0.3805 -0.0005
22368W        W35782   7.506   0.212   0.701  0.2854 -0.0411  0.3976
22369W        W35783   0.213  15.494  16.240 -0.2993 -0.1834  0.0507
22370W        W35784  11.641   7.640   2.737  0.3031  0.3089 -0.1087
22371W        W35785  18.022   1.573   2.702 -0.0151 -0.0594 -0.0402
22372W        W35786  17.265   1.733  13.370 -0.1119  0.3279 -0.2615
22373W        W35787   5.112  13.994  11.688 -0.0617 -0.0236  0.2189
22374W        W35788   4.991   2.425   4.072  0.0343 -0.0680  0.1342
22375W        W35789   8.628   8.298  14.779  0.0223 -0.2229  0.0435
22376W        W35790  10.065   8.982   0.038 -0.1033 -0.0868  0.0836
22377W        W35791   8.980   9.414  12.180  0.1041 -0.0824  0.0992
22378W        W35792  13.726  11.976  14.360 -0.0852 -0.1970 -0.0202
22379W        W35793  11.044  17.348  14.560  0.0298  0.0498 -0.0926
22380W        W35794  14.980  17.200   0.128 -0.1881 -0.1074  0.0564
22381W        W35795   7.850   0.828   2.761 -0.1498 -0.1282 -0.1163
22382W        W35796  11.801  15.929  13.484  0.0482 -0.4509 -0.0053
22383W        W35797   8.078  14.958  12.306  0.2056 -0.2623  0.0618
22384W        W35798  15.410  16.697   3.493  0.3446  0.0063  0.1346
22385W        W35799   9.626  14.528  13.787 -0.1018 -0.2185  0.2075
22386W        W35800   8.298  15.221   2.679 -0.0920  0.1860  0.0687
22387W        W35801   9.521  16.714   5.510 -0.1363 -0.1007  0.0734
22388W        W35802  16.472   4.150   0.707  0.1640 -0.0557  0.1248
22389W        W35803   2.559   9.371   5.888 -0.1374 -0.0506 -0.3035
22390W        W35804   5.392  15.993   2.309 -0.0043 -0.0563 -0.1493
22391W        W35805   0.144  14.257  12.887  0.2209  0.1675  0.4190
22392W        W35806   4.596   3.634  11.254  0.1186 -0.0185  0.1344
22393W        W35807   6.045   3.442  14.998  0.1819 -0.3300  0.2066
22394W        W35808  11.332  15.847   3.987  0.2039  0.0815 -0.2715
22395W        W35809   0.104   4.965   1.900 -0.2924  0.5188 -0.0849
22396W        W35810   9.046  15.834  11.149 -0.1063 -0.2262 -0.0541
22397W        W35811  16.504  14.546  10.749  0.0695 -0.1406  0.2134
22398W        W35812  13.825   6.989   5.896  0.2556 -0.1310 -0.1029
22399W        W35813   2.524   9.103   3.069 -0.0998 -0.2088 -0.1661
22400W        W35814  17.833   3.691  13.173 -0.3570 -0.0480 -0.3044
22401W        W35815   7.762  16.591   1.371  0.1070  0.2870 -0.0494
22402W        W35816   0.816   5.459  14.222 -0.1749 -0.1006  0.1808
22403W        W35817  10.360   2.805   4.698 -0.1847 -0.1183 -0.0436
22404W        W35818  16.381  17.263   5.573 -0.0080  0.0515 -0.0270
22405W        W35819  15.280  10.197  16.126  0.3525 -0.0465  0.4584
22406W        W35820   3.372   2.340   0.059  0.2173 -0.1123  0.3070
22407W        W35821  15.736  15.534   3.847  0.2370 -0.3383 -0.0390
22408W        W35822  10.882   2.496   1.773 -0.1171  0.4440 -0.1368
22409W        W35823   3.017   5.666  16.012  0.2343 -0.1873 -0.2454
22410W        W35824   8.904   7.852   3.841  0.0434 -0.2176  0.3309
22411W        W35825   2.737   1.662  14.111  0.1182  0.0239  0.0137
22412W        W35826  17.211   4.337   0.870  0.3138  0.3393  0.2007
22413W        W35827   4.088  10.438   1.170  0.0118 -0.1793  0.2062
22414W        W35828  12.978   5.725   4.161  0.0159  0.0945 -0.2044
22415W        W35829   5.083   3.462   0.231 -0.3651 -0.1465  0.2036
22416W        W35830  12.122   4.428  15.202 -0.0156 -0.1843  0.2429
22417W        W35831   6.228   0.714  12.465  0.0503  0.1537 -0.1108
22418W        W35832   0.675  16.246  12.151  0.1604  0.0984 -0.0548
22419W        W35833  13.973   9.255  16.493 -0.2259 -0.2062  0.1615
22420W        W35834  12.213   6.166   1.161  0.0698  0.0167 -0.1068
22421W        W35835  11.122  17.516   1.996  0.2913  0.2924 -0.1346
22422W        W35836   9.537   0.944  13.041 -0.1531  0.1387  0.2123
22423W        W35837  13.309  16.056  11.076 -0.3858  0.0349 -0.0200
22424W        W35838   2.839  14.543  14.337  0.6019 -0.1859  0.1042
22425W        W35839  11.240   0.985  13.391  0.1930 -0.1012  0.0928
22426W        W35840   8.473   4.431  15.162 -0.2422  0.1925  0.0651
22427W        W35841   0.064   1.491  15.807 -0.1535 -0.2079 -0.1255
22428W        W35842   8.491  10.352  11.862  0.1716  0.0188 -0.0545
22429W        W35843  11.787   0.207   0.414 -0.2231 -0.1060 -0.1303
22430W        W35844   3.333  12.895   1.827 -0.0796 -0.0811  0.0886
22431W        W35845   5.974  11.122  15.856 -0.3267 -0.1113 -0.3232
22432W        W35846   0.227  11.206  14.422 -0.0278  0.1697  0.1794
22433W        W35847  13.536   9.001  16.323 -0.1208 -0.1942  0.0284
22434W        W35848  14.261  15.045  12.725  0.1759  0.1134  0.0472
22435W        W35849  14.477   8.211   0.248  0.2337 -0.1058  0.1896
22436W        W35850   8.250  13.796  12.591 -0.0185 -0.0543  0.0972
22437W        W35851   8.442  10.819  13.100  0.0899  0.0710  0.1594
22438W        W35852   0.731   0.499   4.971  0.0381  0.0592  0.2339
22439W        W35853  14.450   4.070   1.979 -0.3843  0.1329  0.0291
22440W        W35854   3.600  10.461  12.322  0.1535 -0.1592 -0.0533
22441W        W35855   5.438   3.977  16.495 -0.1212  0.0578 -0.3146
22442W        W35856  10.390  14.282  13.236 -0.0282  0.1074  0.1984
22443W        W35857  12.666   2.858   0.360  0.0706  0.2106  0.1312
22444W        W35858   3.602  15.702  15.761 -0.2080  0.0489  0.1578
22445W        W35859  16.883  10.391   1.194 -0.1791  0.1044  0.0037
22446W        W35860  10.166   4.460  12.461  0.1681  0.1023  0.1922
22447W        W35861   2.401   0.056  14.488  0.0227  0.0115 -0.0521
22448W        W35862   9.296   4.942  12.370  0.3523 -0.1274 -0.0475
22449W        W35863  10.385   5.461   1.315 -0.0014  0.2548  0.1594
22450W        W35864   9.700  11.332   1.612 -0.0499  0.0629 -0.1293
22451W        W35865   3.070  14.003   1.068  0.2009 -0.1669 -0.0493
22452W        W35866   7.437   2.642  15.321  0.0240  0.1853 -0.1641
22453W        W35867  15.690   0.133   3.900  0.0758 -0.0423  0.0375
22454W        W35868  11.457   4.376  11.747  0.1081 -0.1039  0.0322
22455W        W35869  16.989  10.680   4.059 -0.0567  0.1101 -0.0543
22456W        W35870   5.598   1.496  15.471  0.0340  0.3530  0.2337
22457W        W35871   7.081   7.868  12.654  0.0531 -0.0643 -0.0381
22458W        W35872  13.440  12.201   0.283 -0.0513  0.0945 -0.1279
22459W        W35873  14.213  15.265   4.626  0.0091 -0.3390  0.3049
22460W        W35874   3.704   0.006   4.750 -0.0198 -0.2043  0.1025
22461W        W35875  10.822   2.726   3.451 -0.1248 -0.3378  0.2878
22462W        W35876  11.618   3.042   5.183  0.1224 -0.3748 -0.5702
22463W        W35877  14.502   0.536   5.678 -0.0961 -0.1270  0.1684
22464W        W35878   5.301  15.635  11.166  0.1404 -0.1418 -0.1139
22465W        W35879   8.522  17.598   6.169  0.0881  0.2281 -0.1140
22466W        W35880   7.948  12.226   2.566  0.0028 -0.1108  0.3159
22467W        W35881  16.728  13.611  13.737  0.1041  0.1251 -0.1156
22468W        W35882   4.460  15.967  11.570  0.0576  0.0571 -0.2383
22469W        W35883   7.097  11.385   3.322 -0.1725 -0.0802  0.0567
22470W        W35884  17.142   9.330  13.930  0.1101  0.0882 -0.0619
22471W        W35885  14.709   5.811  16.014 -0.3807  0.5943 -0.2217
22472W        W35886  14.629  14.869  15.321  0.2864 -0.1924 -0.2164
22473W        W35887   4.477   9.177  12.437 -0.2352 -0.1730  0.0500
22474W        W35888   2.501   3.081  12.438 -0.1410 -0.0163 -0.0977
22475W        W35889   3.285  16.526   6.028 -0.3089 -0.0221  0.2615
22476W        W35890   2.552  10.973  11.546  0.1623 -0.0254  0.2140
22477W        W35891  14.507  10.083  11.901  0.4116  0.1619 -0.0829
22478W        W35892  13.939  10.894  15.589  0.1012  0.0588  0.1934
22479W        W35893   0.142   9.409   1.679 -0.0748  0.0134 -0.1412
22480W        W35894   3.930   6.375  12.860  0.1952  0.1300 -0.0991
22481W        W35895   4.300   2.715   5.892  0.0168  0.0901 -0.1148
22482W        W35896   2.047   3.879  15.392 -0.0252  0.1288 -0.0927
22483W        W35897  10.958  17.127   4.344 -0.2962  0.2133 -0.0086
22484W        W35898  14.148   1.305   4.936  0.1505 -0.1755 -0.1742
22485W        W35899   3.820  17.610   1.891 -0.2100  0.2866 -0.1693
22486W        W35900  16.757   6.199  13.065  0.3240 -0.1155 -0.1671
22487W        W35901   7.299   8.206   0.868  0.1926 -0.0171 -0.0805
22488W        W35902   5.879   0.188   2.792 -0.0518 -0.0293  0.1303
22489W        W35903   9.387  12.467  12.101  0.2443 -0.2330  0.1476
22490W        W35904   2.334   9.573  11.724  0.0297 -0.0744 -0.1099
22491W        W35905   0.807   2.698   0.638  0.3336  0.0538 -0.0019
22492W        W35906  12.532   7.544   1.658 -0.1113 -0.0911 -0.1697
22493W        W35907   6.058   8.275   0.108  0.0366 -0.0384 -0.6025
22494W        W35908   1.581   6.509  14.762 -0.0638  0.0224 -0.1684
22495W        W35909   9.441  10.723  16.144 -0.3094 -0.2865  0.2121
22496W        W35910  15.721   2.900   0.132 -0.0158  0.0709  0.0867
22497W        W35911  17.136  17.073  13.265 -0.1368 -0.3470 -0.0815
22498W        W35912   5.580   4.919   4.393 -0.1879 -0.3854 -0.2669
22499W        W35913  14.935   4.218   0.169 -0.4703  0.0197  0.2224
22500W        W35914   1.942   4.367   5.872  0.1238  0.0953 -0.1274
22501W        W35915   7.204   2.579   0.753  0.1465  0.0979  0.0954
22502W        W35916   6.544   4.880  13.320 -0.1434  0.1478  0.3169
22503W        W35917   5.201   1.992   4.754 -0.4331 -0.4159  0.2321
22504W        W35918  14.928   2.058  15.359  0.0790 -0.1801 -0.1778
22505W        W35919  17.045   6.567   5.429  0.2881 -0.1406 -0.0511
22506W        W35920   9.762  15.976   2.195 -0.0091  0.0865  0.0688
22507W        W35921  14.560  17.084  15.336  0.0056  0.0734 -0.3725
22508W        W35922   4.370  16.175   6.467  0.1530 -0.2151 -0.1677
22509W        W35923   5.309   7.941  16.565 -0.2140 -0.3367 -0.1039
22510W        W35924  15.245   2.310   5.896  0.1482  0.1250  0.0317
22511W        W35925   5.946   1.872   3.640  0.0251  0.1548 -0.5497
22512W        W35926  17.770  13.996   5.605 -0.0591 -0.0296  0.2793
22513W        W35927  11.220   6.978   3.697  0.0247  0.0620  0.1200
22514W        W35928   0.613  13.623  15.497 -0.1602  0.2322 -0.1234
22515W        W35929  16.493  17.959  10.877 -0.0043  0.0723  0.0374
22516W        W35930  10.537   9.615  16.469  0.2053  0.0043  0.1522
22517W        W35931   8.579  15.358  16.197  0.1280 -0.0287 -0.2314
22518W        W35932   2.964   9.732  12.027 -0.3006 -0.1044  0.1855
22519W        W35933   3.738   6.051   4.657 -0.0587  0.1104 -0.1604
22520W        W35934   9.156  12.305  11.469  0.0560 -0.0003  0.0724
22521W        W35935   1.600   8.259   5.420 -0.0198  0.0161 -0.3554
22522W        W35936  15.238   4.828  13.132 -0.0192  0.1230  0.2221
22523W        W35937  11.998  13.159  14.947  0.0272  0.1747  0.1987
22524W        W35938  12.740  12.170  15.468  0.1325 -0.1093 -0.0359
22525W        W35939   2.095  13.529   5.000 -0.1979 -0.1181 -0.0860
22526W        W35940   2.774   1.511  15.272  0.2861  0.0464 -0.0582
22527W        W35941  16.522   5.699   3.069  0.1641 -0.3222 -0.0420
22528W        W35942   0.405   2.949  16.103  0.2485 -0.1664  0.4360
22529W        W35943  12.069  15.122  13.621 -0.3706 -0.1693  0.0897
22530W        W35944   3.382   6.119   3.035 -0.1424 -0.0557  0.1056
22531W        W35945   9.743  13.026   4.159 -0.0495  0.0004 -0.0182
22532W        W35946   8.859  13.135   1.835 -0.0060 -0.0203  0.4625
22533W        W35947  13.477   4.559  13.320 -0.1338 -0.0775  0.2018
22534W        W35948   3.953  16.055   0.755 -0.1411 -0.0783 -0.3323
22535W        W35949  14.949   1.272  14.932 -0.1125  0.0975 -0.0756
22536W        W35950  11.360  13.153  10.580  0.2571  0.4996 -0.2530
22537W        W35951  17.578   6.654   6.111 -0.1211 -0.3552 -0.1669
22538W        W35952   6.252   0.846   0.326 -0.0176 -0.1330  0.3449
22539W        W35953   3.768  17.995   5.287 -0.0959  0.0889  0.0769
22540W        W35954   0.224   7.364  16.383  0.0672  0.1143 -0.0273
22541W        W35955  11.396  11.468  11.072 -0.2682  0.2025  0.0132
22542W        W35956  12.318  12.134  13.666 -0.1976  0.1938  0.0066
22543W        W35957   7.067   8.187  13.136 -0.3348 -0.1496  0.0634
22544W        W35958  17.544   7.551  13.294  0.1848 -0.0421  0.1555
22545W        W35959   2.647   5.394   7.118 -0.0320  0.0079 -0.0205
22546W        W35960   7.631  11.710   4.135 -0.1816 -0.1056  0.3679
22547W        W35961   3.919  17.738  14.598 -0.1740 -0.0560 -0.0175
22548W        W35962  11.525   7.710   4.883  0.2232 -0.1496 -0.2223
22549W        W35963  13.849  14.499   3.299  0.2196  0.1199 -0.0582
22550W        W35964  10.474  12.284   2.676 -0.2166  0.0187  0.0661
22551W        W35965   7.267  17.397   0.980  0.0247  0.0328  0.1321
22552W        W35966   1.109  10.988  11.270  0.1589  0.1570 -0.0348
22553W        W35967   0.303   2.418  12.815  0.3449  0.3579  0.0170
22554W        W35968   9.503  13.666   0.696  0.2791  0.1399 -0.2269
22555W        W35969   2.785   2.710  12.628  0.2011  0.0021  0.2669
22556W        W35970   7.119   5.366  10.384 -0.0953 -0.0787 -0.1699
22557W        W35971   1.134   7.223  14.893  0.1461 -0.0827 -0.2941
22558W        W35972   2.925   7.973  13.821 -0.2014  0.0827 -0.1488
22559W        W35973  14.591   2.335  13.191 -0.0984 -0.1195 -0.2715
22560W        W35974   9.389  11.858  15.272 -0.1723  0.1700  0.0272
22561W        W35975  14.799  15.844  12.967  0.0105 -0.1100  0.0436
22562W        W35976  16.203  16.696   1.759  0.1986  0.1879  0.1363
22563W        W35977   6.958   5.097  15.337  0.1967  0.1276 -0.1876
22564W        W35978   5.721   2.858   4.524  0.0530 -0.1454 -0.0442
22565W        W35979   6.724   3.646  14.266  0.1793  0.1598  0.0623
22566W        W35980   2.165   4.673  14.412  0.1279 -0.1184 -0.1229
22567W        W35981  12.653   4.767  14.419  0.0519 -0.1160 -0.2215
22568W        W35982  11.767   2.824   3.601  0.1395  0.0392 -0.2101
22569W        W35983  15.926  13.538   6.128 -0.1548  0.5248 -0.1202
22570W        W35984   5.526   7.650  12.115 -0.2818 -0.1848 -0.1730
22571W        W35985   4.234  16.418  11.151  0.2377 -0.1729 -0.2512
22572W        W35986   5.711  12.712   1.294  0.4127  0.3383 -0.2851
22573W        W35987   6.313   1.981  13.633 -0.1645  0.0111  0.1616
22574W        W35988   1.976   4.477  13.471 -0.0528 -0.0357  0.1405
22575W        W35989   9.857   2.869  12.154  0.0927  0.1026 -0.1771
22576W        W35990  13.540   4.333   2.254  0.2599 -0.0464  0.1370
22577W        W35991   7.290  14.337   4.348  0.1139 -0.0428 -0.1837
22578W        W35992  15.451  16.792   4.858 -0.3687 -0.1879 -0.0944
22579W        W35993  13.619  14.453   2.832  0.0413  0.1792  0.0162
22580W        W35994  13.067   5.344   3.708 -0.0057 -0.1392  0.0616
22581W        W35995   1.467  17.998   5.184 -0.3143 -0.0397  0.2228
22582W        W35996   2.489   1.136   4.172 -0.1398  0.2794  0.1422
22583W        W35997  15.988  11.763   3.253 -0.1026 -0.2091 -0.1381
22584W        W35998  11.423   5.771  14.454  0.1504  0.0068  0.0875
22585W        W35999   9.175   0.378   3.790 -0.0851 -0.0971  0.0015
22586W        W36000  14.891   5.591   2.045 -0.0890  0.3028  0.1198
22587W        W36001   2.901   2.525   2.687  0.0867  0.0124  0.3098
22588W        W36002   9.045  15.021  10.575  0.0040  0.0941  0.0139
22589W        W36003   1.849  16.054   1.735  0.3043  0.0501 -0.4068
22590W        W36004   6.040   9.292   1.217 -0.0613 -0.0389 -0.0283
22591W        W36005  15.518  17.501   5.555  0.1810  0.1145 -0.1956
22592W        W36006  13.095   6.119   5.393  0.1036 -0.1658  0.1265
22593W        W36007   5.364   7.661  12.670  0.3824 -0.0260  0.0463
22594W        W36008   0.258   1.242   4.474  0.1353 -0.0438  0.0514
22595W        W36009   0.211  10.575  15.130  0.0455  0.1543  0.2380
22596W        W36010  17.036   9.179   3.171 -0.2459  0.1210  0.4730
22597W        W36011  11.189   6.600  11.445  0.0309  0.1219 -0.2987
22598W        W36012  11.377   4.038   1.094  0.2156  0.3505 -0.1264
22599W        W36013  12.461  17.826  10.970  0.1217  0.0223 -0.2588
22600W        W36014   2.631   8.453  12.001  0.1842 -0.4844 -0.0571
22601W        W36015   7.061   9.849   4.340  0.0364 -0.0424  0.0555
22602W        W36016  17.646   3.861   1.651  0.1804 -0.2948  0.0054
22603W        W36017   0.894  11.316  15.266 -0.1471 -0.2579  0.1033
22604W        W36018  16.728  16.991  15.971  0.0941 -0.0712  0.0240
22605W        W36019   8.750  16.430   0.170  0.0384  0.0127 -0.1699
22606W        W36020  13.114   9.672   4.324 -0.0564 -0.0797 -0.0385
22607W        W36021   0.421   7.570   4.687  0.2215  0.0447  0.4862
22608W        W36022   1.936   8.660   5.606  0.1918  0.0616  0.1537
22609W        W36023   3.002  15.685   5.594  0.1464 -0.2144  0.1784
22610W        W36024  14.233   9.807  14.638  0.0066 -0.1739  0.0077
22611W        W36025  16.083   9.564  10.547  0.0196 -0.1940 -0.0952
22612W        W36026   2.036   0.582  11.140 -0.2928  0.0533 -0.1732
22613W        W36027  14.595  11.927   0.290 -0.2580 -0.0434  0.0191
22614W        W36028  10.097   0.274  15.904  0.1439  0.0253 -0.0546
22615W        W36029  10.705  11.308  13.905 -0.1429 -0.0993  0.0631
22616W        W36030   6.300   2.727  11.833 -0.0453  0.1976  0.3181
22617W        W36031  17.260   1.134   2.365  0.2150 -0.1012 -0.0062
22618W        W36032  14.987   1.376   2.699 -0.2317 -0.1034  0.0449
22619W        W36033   4.728   2.527  13.749 -0.2573 -0.2340 -0.0244
22620W        W36034  15.973   8.256  12.812  0.0413 -0.0273  0.0393
22621W        W36035  16.096   0.581  11.325  0.0793 -0.0265  0.1157
22622W        W36036  12.864  16.578   0.473  0.1209  0.0366 -0.1950
22623W        W36037   9.574  16.491  15.187  0.0433 -0.2911 -0.1323
22624W        W36038   2.897  11.718   3.395 -0.2860  0.0494  0.1733
22625W        W36039   9.124  12.819   5.898 -0.0120 -0.4284  0.1556
22626W        W36040   5.812  10.017  11.623 -0.0761  0.0228  0.2540
22627W        W36041   1.698  15.706  11.831 -0.0623  0.2191  0.1700
22628W        W36042   6.661   0.544  13.688  0.0185 -0.0801 -0.0051
22629W        W36043   3.743  14.089  15.260 -0.0965 -0.1118 -0.0792
22630W        W36044   4.204  16.515  13.327 -0.1448 -0.1571  0.0815
22631W        W36045   3.098   6.024  14.006  0.2923  0.1344 -0.3628
22632W        W36046   6.563   2.707   2.486 -0.1406 -0.2618 -0.0078
22633W        W36047  13.687  15.129   3.549 -0.0597 -0.0128  0.0660
22634W        W36048   0.009  11.218  16.527 -0.1657  0.1416  0.2036
22635W        W36049   2.324   3.063   0.749 -0.1020 -0.1008  0.2251
22636W        W36050   3.358  14.416  11.599  0.1076 -0.0827 -0.0530
22637W        W36051  17.828   8.740   3.772  0.0675  0.2789 -0.0517
22638W        W36052  13.306   6.569   2.462  0.1869 -0.0297  0.0814
22639W        W36053  10.515  14.059  16.629  0.2246  0.0440  0.1016
22640W        W36054   2.287  12.260  13.837 -0.0552  0.1916 -0.0502
22641W        W36055  15.113   7.289   1.826  0.2498  0.2727 -0.2405
22642W        W36056   4.961  14.447  15.929 -0.2581 -0.2583  0.0881
22643W        W36057   8.896  14.515  10.602  0.1154 -0.2485 -0.1113
22644W        W36058  15.312  16.209   3.361  0.0560 -0.4845 -0.0994
22645W        W36059  17.563   4.675   1.655  0.0157 -0.1025  0.1881
22646W        W36060  14.087   8.498  13.806 -0.0317 -0.0356 -0.0407
22647W        W36061   6.890  17.663  12.831 -0.2168  0.1342  0.4995
22648W        W36062   4.597   0.163   5.283 -0.0511 -0.1564 -0.1021
22649W        W36063  12.612  14.350  13.162 -0.0195  0.0616  0.2095
22650W        W36064  11.966  13.247  15.718 -0.2543 -0.0629 -0.0962
22651W        W36065  14.447  14.122   5.359  0.2711  0.0459  0.0065
22652W        W36066   8.454   3.858   1.997 -0.1620  0.1455 -0.0005
22653W        W36067   3.578   1.782   5.059  0.0913  0.0911  0.0440
22654W        W36068   7.193  13.575  14.010 -0.1003  0.3107 -0.2679
22655W        W36069   4.616   3.635  10.056 -0.2041  0.0086 -0.1242
22656W        W36070   2.520   3.528  13.655  0.1791  0.1368 -0.2546
22657W        W36071   6.705  16.007   1.055 -0.0633  0.0604 -0.2519
22658W        W36072   0.425  13.440   5.194 -0.1184 -0.0428 -0.0618
22659W        W36073   1.665  13.738  15.692  0.0265  0.0387  0.0700
22660W        W36074  12.750   6.513  16.625 -0.0861 -0.0866 -0.0909
22661W        W36075  10.389   9.577  12.962 -0.1465  0.2033  0.1316
22662W        W36076  11.357  16.068  16.667  0.0479 -0.1202 -0.1426
22663W        W36077   0.512  12.223  15.548  0.0343 -0.0436 -0.0123
22664W        W36078   5.507   9.292   4.614 -0.0252 -0.2282 -0.0820
22665W        W36079   6.599   1.261   3.191 -0.0270 -0.1833  0.0477
22666W        W36080  17.449  11.144  13.260 -0.2467 -0.2361 -0.0211
22667W        W36081  11.534   1.017   4.070 -0.0729  0.0168  0.0050
22668W        W36082   0.570  13.043  13.671  0.1612 -0.0435 -0.2930
22669W        W36083  16.340  14.255  14.283  0.0580 -0.0813  0.2383
22670W        W36084   7.373   8.378  14.293 -0.0384 -0.1409 -0.2073
22671W        W36085   1.720   2.530   3.761 -0.1510  0.0452  0.3034
22672W        W36086   4.998   6.651   0.974  0.1921  0.1357  0.0565
22673W        W36087  17.418   6.150  10.718 -0.0294 -0.2050  0.1203
22674W        W36088  16.255   8.187  16.213 -0.0060 -0.1585 -0.0615
22675W        W36089   3.719   7.066   2.115 -0.0660  0.1805 -0.1731
22676W        W36090  13.335   1.753   1.635 -0.0901 -0.0781  0.0563
22677W        W36091   5.929   1.310   1.753  0.1571 -0.0045 -0.2062
22678W        W36092   9.833  16.333   2.500  0.2147 -0.0694  0.0479
22679W        W36093   2.595  10.186  14.692  0.0160  0.1626 -0.2393
22680W        W36094   6.921  12.883  12.990  0.3197 -0.1186 -0.0020
22681W        W36095  12.193   5.412   1.119 -0.0219 -0.1803  0.0993
22682W        W36096  13.995   4.176   1.978 -0.1863 -0.1431 -0.0441
22683W        W36097  15.539   5.874  14.755 -0.2114  0.0106 -0.1359
22684W        W36098  13.955  15.391   5.880 -0.0017  0.1285 -0.1806
22685W        W36099   0.032   3.610   4.355 -0.0218 -0.0278  0.0018
22686W        W36100   7.444  12.502  16.602  0.2189  0.1000 -0.0277
22687W        W36101   7.905   5.445   3.258  0.0774  0.2960  0.1780
22688W        W36102  13.458  17.249   5.978 -0.2382  0.2143 -0.0124
22689W        W36103   9.699  17.020   5.009 -0.1645  0.1186  0.1426
22690W        W36104   5.553   0.704  15.105  0.0688  0.1215  0.1715
22691W        W36105  17.403  13.271   3.687 -0.2143  0.2757  0.0460
22692W        W36106  10.437  14.840  14.379 -0.0999  0.3840 -0.1909
22693W        W36107   9.461   2.214   1.061  0.2901 -0.0280 -0.1155
22694W        W36108   0.336  17.691   1.135 -0.2807  0.0915 -0.2362
22695W        W36109   4.986  17.301  10.753 -0.1121 -0.0238 -0.2323
22696W        W36110   1.605   4.096  15.137  0.2354  0.1381  0.2293
22697W        W36111   0.973   9.182   1.909 -0.5290  0.2260  0.1014
22698W        W36112   9.014   3.646   3.186 -0.1528 -0.2302 -0.2050
22699W        W36113  11.981  17.459  14.968  0.2003 -0.1267  0.1680
22700W        W36114   8.321   4.375   0.329  0.0739  0.1404 -0.0031
22701W        W36115   5.514  12.009  15.557  0.0120  0.0174 -0.1659
22702W        W36116  15.289   3.500   4.101 -0.0859  0.0532  0.1119
22703W        W36117  12.686  13.827  16.364  0.3706  0.0711  0.1453
22704W        W36118  13.003  16.017   6.381 -0.1605 -0.1303 -0.2639
22705W        W36119  11.787   1.193   0.918  0.0664  0.0321  0.1998
22706W        W36120   5.687   2.677  16.689  0.0427  0.1363  0.0022
22707W        W36121   4.760   3.876   5.073  0.2202  0.0483 -0.1425
22708W        W36122  14.186  15.800  12.045 -0.1442 -0.0715 -0.1087
22709W        W36123   2.019   8.840   4.639  0.0841 -0.3126 -0.3182
22710W        W36124   3.340   2.998  14.034  0.0402  0.1290 -0.0037
22711W        W36125  11.537  17.912  12.352 -0.1207  0.0166 -0.0089
22712W        W36126   9.962   9.412   3.326 -0.3418 -0.2467  0.1301
22713W        W36127  17.512   6.729   4.759  0.0215 -0.0322 -0.4090
22714W        W36128  11.146  16.268  13.798  0.0502 -0.1607  0.1878
22715W        W36129  12.797   2.239  10.173 -0.2296  0.0310 -0.2141
22716W        W36130  12.394   2.019  11.020  0.1594 -0.2303 -0.1709
22717W        W36131  12.048   4.778   3.208 -0.0171 -0.0728 -0.1373
22718W        W36132  15.029   5.278   5.555  0.2233 -0.2078 -0.1966
22719W        W36133   8.496  16.294  12.573  0.5420 -0.0289  0.0488
22720W        W36134   1.639   4.283   3.321  0.2324 -0.3241  0.0776
22721W        W36135   9.246   1.798  12.750  0.0523  0.0461  0.1498
22722W        W36136   4.764  10.869   3.222  0.1157 -0.0062 -0.0165
22723W        W36137   1.900   8.357   1.597  0.2099  0.0653 -0.1473
22724W        W36138   7.712  16.426  13.994 -0.1303  0.0664 -0.0757
22725W        W36139  17.999   9.697   1.300  0.1460 -0.2912 -0.0420
22726W        W36140   6.643   8.703   0.368 -0.1312 -0.2928  0.3403
22727W        W36141   8.851  10.094   3.306  0.0213  0.2874 -0.0856
22728W        W36142  14.469  10.992   1.752  0.1036 -0.1515 -0.1286
22729W        W36143   6.940  14.277   0.416 -0.0536  0.3001 -0.2185
22730W        W36144  10.970   4.914  14.892  0.1127  0.0934  0.2085
22731W        W36145  14.258  17.069  14.408 -0.1095 -0.1221 -0.3754
22732W        W36146  15.356  12.146   2.589  0.1629  0.4214 -0.2515
22733W        W36147   6.840   0.211  15.743  0.0147 -0.1231 -0.0944
22734W        W36148   9.916   0.235  16.423 -0.2129  0.0751  0.0615
22735W        W36149   3.255   2.135   5.173 -0.0147 -0.0934 -0.0212
22736W        W36150   3.585  16.822  16.437 -0.0299  0.4116 -0.0932
22737W        W36151  13.072  11.346   4.921 -0.0721  0.1036  0.0233
22738W        W36152  17.064  15.163   0.465  0.3202  0.0159  0.2266
22739W        W36153  12.881   2.127   4.088 -0.0215 -0.0852 -0.3079
22740W        W36154  14.992  13.415  14.774 -0.1826 -0.0453 -0.1025
22741W        W36155  10.097  15.836   1.821 -0.1415  0.1646  0.1789
22742W        W36156   4.283  12.898   2.833  0.2572  0.0602 -0.0539
22743W        W36157   4.155   4.813   4.286  0.1932 -0.1673  0.0944
22744W        W36158   0.984   3.730   2.834 -0.0885  0.1585  0.0006
22745W        W36159   7.072   1.148   4.955 -0.1051  0.0374  0.0056
22746W        W36160  11.199  11.162   1.743 -0.0458  0.0011 -0.0555
22747W        W36161   2.169  11.091   3.802  0.0399 -0.2033 -0.0343
22748W        W36162  10.921  11.508   3.955  0.0515  0.0822  0.0286
22749W        W36163   5.316  17.542   3.612 -0.1947  0.0435 -0.2348
22750W        W36164  15.721   0.807   2.123 -0.0918 -0.0645 -0.2699
22751W        W36165   3.463  17.456   2.770 -0.1453  0.0804 -0.1105
22752W        W36166   9.933  16.687  12.229 -0.0977 -0.2018  0.1645
22753W        W36167   0.183   0.781   4.424  0.2509  0.0445  0.0369
22754W        W36168  12.191   1.640  15.509 -0.0665 -0.1631 -0.1897
22755W        W36169   5.276   4.194   2.962  0.3065 -0.3411 -0.0248
22756W        W36170  15.429   3.307  12.009  0.0041  0.2473  0.0722
22757W        W36171   6.872  14.141  13.206  0.0025 -0.2014 -0.1824
22758W        W36172   2.929   1.311   1.805 -0.2123 -0.2339  0.0446
22759W        W36173  12.481  10.881  16.217 -0.0373 -0.0140  0.1283
22760W        W36174   5.298  11.508  14.757 -0.3164  0.0419  0.0407
22761W        W36175  11.101  11.413  13.532  0.1315  0.0320  0.0548
22762W        W36176  11.414  14.310  14.579 -0.2800 -0.3273 -0.0278
22763W        W36177   7.030  15.726  12.069  0.1247 -0.0181  0.0358
22764W        W36178   5.914   0.388  14.509 -0.1172 -0.0904 -0.0173
22765W        W36179  12.313   5.891  13.945  0.1551  0.1468 -0.1897
22766W        W36180  12.000  15.101  11.365  0.0642  0.2062  0.0470
22767W        W36181   8.476  12.823   1.626 -0.0846 -0.1236  0.2634
22768W        W36182  10.148  11.474   3.371 -0.0419  0.0036 -0.1470
22769W        W36183   4.340   0.704  13.574  0.0542  0.2793 -0.0584
22770W        W36184  13.128   9.476  12.423  0.1011  0.0283  0.1331
22771W        W36185  11.315  17.444   4.368  0.0551  0.1041  0.0283
22772W        W36186  12.028   3.410   4.812  0.0511 -0.2852  0.0234
22773W        W36187   1.637   1.585   1.480  0.4305 -0.1162  0.2688
22774W        W36188   4.721   4.013  14.731  0.1037  0.0846  0.0955
22775W        W36189  16.924  17.475   2.086 -0.2025  0.4179  0.0053
22776W        W36190  14.394   0.334  11.445  0.0001  0.2451  0.1922
22777W        W36191  10.396  14.835  10.254 -0.1908 -0.1163  0.1345
22778W        W36192   0.865   3.558  14.494 -0.1001 -0.1396 -0.2395
22779W        W36193  14.916  14.599  10.218  0.1711  0.0833  0.0204
22780W        W36194  15.705   7.806   0.056  0.1311 -0.1753 -0.1896
22781W        W36195   8.890  14.567  16.365 -0.1250  0.0666 -0.0357
22782W        W36196   4.371   9.637   5.961 -0.0213  0.2181  0.1510
22783W        W36197  16.386   8.810  14.227 -0.1289  0.0627 -0.0872
22784W        W36198  17.542  11.245   2.584  0.2127 -0.1740 -0.1491
22785W        W36199   7.150  14.507  12.296  0.1765 -0.0035 -0.0582
22786W        W36200   0.402  11.524  16.442  0.2314 -0.1476 -0.1197
22787W        W36201  12.800  16.382  10.887 -0.0319 -0.2265 -0.0468
22788W        W36202   0.855   4.733   2.864 -0.0250  0.1361  0.0175
22789W        W36203   9.664  12.492  13.140  0.0756 -0.2918  0.0702
22790W        W36204   9.751  15.024  13.762 -0.0541 -0.0207  0.2737
22791W        W36205  11.389   8.246  13.780 -0.1752 -0.0907  0.0140
22792W        W36206   3.837  13.638   0.951  0.1303 -0.3851 -0.3078
22793W        W36207   2.996  12.524  10.693 -0.2857  0.0291 -0.2443
22794W        W36208  17.380  13.473  16.037  0.0404  0.2843  0.2091
22795W        W36209  16.920   9.406  15.949 -0.2391  0.0809 -0.0474
22796W        W36210   3.990   1.414  16.092 -0.2373  0.3492  0.1255
22797W        W36211  10.189   3.091  14.113 -0.0324  0.3309 -0.0114
22798W        W36212  10.986   9.187   3.968  0.1198  0.0574  0.0224
22799W        W36213  15.559  14.888  12.659 -0.4720  0.2047 -0.1825
22800W        W36214   3.878   1.896   0.808  0.3791 -0.1320  0.0530
22801W        W36215   9.095   5.281   3.033  0.2902  0.0752 -0.0049
22802W        W36216   5.058   1.917  12.748  0.1255 -0.0065 -0.0875
22803W        W36217  13.996  14.257   5.155  0.1370  0.1617 -0.0498
22804W        W36218  10.150  10.986   2.277 -0.1973  0.0222 -0.0861
22805W        W36219   9.126   6.682  13.130  0.4871  0.0467 -0.3063
22806W        W36220  16.786   7.361   4.297  0.1711 -0.0030  0.0862
22807W        W36221  12.303  16.390   5.707 -0.2996 -0.0051  0.1561
22808W        W36222   9.210  11.716   3.112  0.0357  0.1921 -0.1635
22809W        W36223  12.151  16.487  11.128  0.4453  0.3158  0.0602
22810W        W36224   9.180   0.673  14.626 -0.2879  0.1061 -0.1556
22811W        W36225   6.287   2.902  15.439  0.2514 -0.2850 -0.0832
22812W        W36226   4.801   6.955  15.885  0.0654 -0.2279  0.1129
22813W        W36227  10.182   5.760  12.704 -0.1017 -0.0604  0.3164
22814W        W36228  16.091   7.774   3.360 -0.2130  0.1828 -0.0670
22815W        W36229  15.692   5.184  13.699 -0.2795 -0.0120  0.1437
22816W        W36230  14.106   2.968  15.046 -0.1340  0.1979  0.0830
22817W        W36231  10.239  16.154  14.064 -0.4392  0.1504 -0.0838
22818W        W36232   1.160   4.804   1.231 -0.1679  0.1373 -0.2671
22819W        W36233   3.391  16.462  14.821  0.0797  0.4259  0.0114
22820W        W36234  12.655  15.461  11.043  0.0764 -0.1375  0.2453
22821W        W36235  11.831   7.508   0.416  0.0489  0.0121  0.0873
22822W        W36236   4.678   6.268  14.932 -0.2813  0.1242  0.0255
22823W        W36237   3.077   8.917   5.454  0.0740  0.0403  0.0058
22824W        W36238   0.292   2.276   4.254 -0.1017 -0.0236 -0.1498
22825W        W36239   7.269   4.078  10.037 -0.1189 -0.2313 -0.0722
22826W        W36240  17.315   9.808  11.657 -0.3628  0.4211  0.0603
22827W        W36241  10.947   2.291  12.207  0.1099  0.0869  0.1167
22828W        W36242   8.884   8.821  14.489 -0.1110 -0.0016 -0.0996
22829W        W36243  16.161  10.639  16.677 -0.0350 -0.3594  0.0201
22830W        W36244  14.909  13.087  11.806  0.1395  0.0531  0.0370
22831W        W36245  16.650  16.368   4.639 -0.2532 -0.1173  0.1926
22832W        W36246  15.492   4.604   1.266  0.1299 -0.1143  0.1509
22833W        W36247  16.510   8.277  13.039 -0.0323  0.0739 -0.1918
22834W        W36248   4.510   0.380   4.231  0.3083  0.1723  0.1316
22835W        W36249  13.743   8.832  12.000  0.0341  0.0016  0.1576
22836W        W36250  12.555  11.466   0.855  0.0739  0.5038 -0.0383
22837W        W36251   4.501   9.976  11.971  0.0701 -0.0841  0.2393
22838W        W36252  16.398  11.668   4.948 -0.0846  0.2778  0.0452
22839W        W36253   5.143   7.508   5.449 -0.0267  0.0227 -0.1181
22840W        W36254   8.258   1.429  11.315  0.4096 -0.2389 -0.0347
22841W        W36255   5.877   6.662  16.259  0.2949  0.0926  0.0728
22842W        W36256   5.256   7.398  10.992 -0.2458  0.0614  0.0594
22843W        W36257  13.831   8.436   1.025 -0.0789  0.3083  0.0754
22844W        W36258  13.167   3.516  14.614  0.0229  0.1795 -0.2749
22845W        W36259  16.476   9.832  16.109  0.1533 -0.0039 -0.4341
22846W        W36260  13.546   8.914   2.197 -0.3307  0.1659  0.1544
22847W        W36261   8.405   8.938  11.048 -0.1777 -0.2077  0.1666
22848W        W36262  15.710  15.597  13.759  0.0326  0.2463  0.2748
22849W        W36263   1.599  15.695  10.988  0.0792  0.0319 -0.0420
22850W        W36264   0.799   1.943   1.312  0.0246 -0.1797  0.2363
22851W        W36265   7.599   4.596  11.186 -0.0667 -0.2968 -0.0215
22852W        W36266  17.948   5.581  15.275  0.0159 -0.0549  0.1731
22853W        W36267   8.069  14.914   4.600  0.3860 -0.0261  0.1167
22854W        W36268  12.921   9.083  15.503 -0.2365 -0.0572 -0.3197
22855W        W36269   9.826  15.912  16.267 -0.0576  0.1721 -0.0913
22856W        W36270  12.974  11.325   0.539  0.3290  0.1836 -0.1256
22857W        W36271  17.306   4.216   5.986 -0.1418  0.1020 -0.3102
22858W        W36272   2.829   8.913   5.873  0.0128  0.0550 -0.0111
22859W        W36273  11.794  14.051   1.404  0.1381 -0.0179 -0.0291
22860W        W36274  11.645   5.722  15.068 -0.1540 -0.0172 -0.5544
22861W        W36275  11.718   0.544   5.647  0.0878 -0.0871  0.1114
22862W        W36276   4.157   1.719  12.355 -0.2447  0.1804 -0.0270
22863W        W36277  11.262   8.604  10.562 -0.1305  0.0803 -0.3005
22864W        W36278   8.605   8.422  13.969  0.0454  0.0429  0.0357
22865W        W36279   6.945   1.471   0.987 -0.0916 -0.1807 -0.0638
22866W        W36280  15.132   7.427  13.772  0.1330  0.2262  0.3106
22867W        W36281  14.218   4.239   0.181  0.1124 -0.0503  0.1169
22868W        W36282   2.693   3.012  11.948 -0.0516 -0.0725 -0.4412
22869W        W36283  12.550  14.656  10.700  0.1874 -0.1793  0.0302
22870W        W36284   9.509   9.096  16.637  0.0417  0.0481 -0.0872
22871W        W36285  11.506   1.943  11.750  0.0193 -0.1232 -0.3100
22872W        W36286   8.454   8.463   4.382 -0.2132  0.3426 -0.0079
22873W        W36287  15.985   2.036  13.041  0.1157  0.0620  0.1375
22874W        W36288  12.941   9.814  13.311  0.0344 -0.0898 -0.1377
22875W        W36289  16.001  11.460   1.717  0.0820 -0.1282 -0.1844
22876W        W36290   1.424   1.303   4.212 -0.2111 -0.1947  0.0027
22877W        W36291  11.063   2.892  16.240 -0.3954  0.1536  0.0831
22878W        W36292   2.374   9.699  16.127 -0.1989  0.0244  0.3275
22879W        W36293  15.535   6.233   4.545  0.0781 -0.0233  0.1395
22880W        W36294   8.865   9.687   9.910 -0.0663 -0.2846 -0.3302
22881W        W36295   3.842   6.781  13.828 -0.2993 -0.0079 -0.0064
22882W        W36296   6.914   0.439   2.988  0.0968  0.0189  0.2207
22883W        W36297   2.747   6.511  15.659 -0.1867 -0.0789 -0.3535
22884W        W36298   2.357   1.175  14.408 -0.4500 -0.0900  0.0516
22885W        W36299  10.515   7.487   3.147 -0.0535 -0.2088 -0.1015
22886W        W36300  17.405  16.100  13.521  0.2891  0.1081 -0.1542
22887W        W36301   3.005   1.737  11.657 -0.3648  0.0215 -0.0673
22888W        W36302  13.372  14.631   1.169 -0.1698 -0.1173 -0.0173
22889W        W36303   0.116   5.767   2.528  0.1024 -0.0926 -0.1020
22890W        W36304   2.506   9.695  11.165  0.0508 -0.2148  0.4478
22891W        W36305  10.485   1.931   4.738 -0.0363  0.0065  0.1411
22892W        W36306  17.800   9.181   3.552 -0.1332 -0.0795  0.0174
22893W        W36307   8.364  14.752  11.349 -0.0398  0.0121  0.0925
22894W        W36308   3.752  16.719  14.089  0.1027  0.2381  0.0198
22895W        W36309  17.016  11.767   4.135 -0.1633 -0.1629 -0.1177
22896W        W36310  17.034  13.798   4.575 -0.1914  0.0064  0.0650
22897W        W36311   4.855  15.530  10.308 -0.0192 -0.0968 -0.0738
22898W        W36312  10.778   9.853   3.441  0.1009  0.2873 -0.2216
22899W        W36313   4.044  15.435   3.798  0.2083  0.0862  0.3326
22900W        W36314   5.987   1.994   5.186  0.0761 -0.0084  0.0224
22901W        W36315  13.305  10.286   3.899  0.0676  0.0335  0.4722
22902W        W36316   5.729  16.772   5.048  0.0538 -0.0996  0.2679
22903W        W36317  17.689  12.397   3.195 -0.0749 -0.1260 -0.1154
22904W        W36318   2.335  16.294   4.977  0.1773  0.0290  0.0774
22905W        W36319   2.465   6.368  15.167  0.0243  0.1705  0.1358
22906W        W36320  15.868  14.015   6.056  0.1902 -0.0492  0.1362
22907W        W36321   1.908   0.595  15.316  0.2408 -0.0605 -0.1441
22908W        W36322   0.830   8.874   3.697  0.2390 -0.0554  0.0327
22909W        W36323   9.205   8.034   5.471 -0.1975 -0.1604 -0.0234
22910W        W36324  11.100  12.886   1.150  0.0623 -0.1717 -0.0615
22911W        W36325   8.686  12.889   0.289  0.1191 -0.0429 -0.3924
22912W        W36326   7.029   8.971   5.349  0.1740  0.0364  0.0117
22913W        W36327  11.196  12.275   2.902  0.2284  0.1293 -0.2208
22914W        W36328   9.234   6.777   5.782  0.0581  0.0145 -0.2865
22915W        W36329   5.015   0.976   5.586  0.1194 -0.0410 -0.1155
22916W        W36330  17.431   7.558   0.313  0.0373  0.2375 -0.1043
22917W        W36331   7.743   5.021   5.104  0.1823 -0.0480 -0.1737
22918W        W36332   9.449  14.279  16.472  0.0740  0.2308  0.2696
22919W        W36333  17.663   0.509   4.110  0.1781  0.1622 -0.0006
22920W        W36334  15.771  13.007  14.629  0.0623 -0.2156  0.0480
22921W        W36335   2.993  14.768  12.937  0.1971  0.2447  0.0553
22922W        W36336   6.652   3.669  12.507 -0.0400 -0.1364 -0.0147
22923W        W36337  12.118  12.188   1.867  0.0899  0.1529  0.1189
22924W        W36338  14.658   9.035   5.540  0.0787  0.0340 -0.1263
22925W        W36339   5.973   9.058   3.361  0.1798  0.2507 -0.0936
22926W        W36340   2.576   0.999   2.119 -0.0589 -0.2634  0.1197
22927W        W36341   8.694   7.535  10.299 -0.4020 -0.0900 -0.1816
22928W        W36342  12.732   7.925  10.724 -0.2741  0.0166 -0.0637
22929W        W36343  17.623   4.787   0.502 -0.2224  0.0501 -0.1904
22930W        W36344  14.713  16.779   2.811  0.0745  0.1702 -0.0751
22931W        W36345  16.254  10.373  10.971 -0.0876  0.0770  0.0795
22932W        W36346  15.544   7.566  16.131  0.2785 -0.0528 -0.0156
22933W        W36347   8.219   4.070  12.904 -0.0317 -0.1089  0.1857
22934W        W36348  10.753   0.989  13.521  0.2701 -0.2931 -0.0211
22935W        W36349   2.208   9.428  14.399 -0.4295 -0.0903 -0.1293
22936W        W36350   8.374   2.854  14.658 -0.0004 -0.1643  0.0972
22937W        W36351   6.667  17.961   5.578 -0.2650  0.2451  0.0570
22938W        W36352   5.763  10.857  12.930  0.1729  0.0768 -0.1185
22939W        W36353  15.723   2.340  16.278  0.1327  0.2415  0.1602
22940W        W36354  17.451  14.481   2.873 -0.0037  0.0343 -0.1499
22941W        W36355  11.066   6.173  14.620  0.0376 -0.0012 -0.0709
22942W        W36356  17.831  13.727   2.594 -0.0070  0.0627 -0.0231
22943W        W36357   8.312   8.285   1.219  0.0029  0.0926  0.3098
22944W        W36358  11.388  17.113   5.226  0.1364  0.0841 -0.2335
22945W        W36359   9.301  10.049  11.762 -0.2285 -0.1333 -0.1008
22946W        W36360   9.846   8.157   1.765  0.2565  0.1734 -0.4616
22947W        W36361  17.128   7.851   5.354 -0.0236 -0.5430 -0.0952
22948W        W36362   3.465   8.594  14.439 -0.1239  0.1566  0.0619
22949W        W36363  13.828   1.115  12.399  0.0527 -0.1336 -0.1294
22950W        W36364   7.812   0.841  16.440 -0.0123  0.0734 -0.2626
22951W        W36365   3.798   7.652  13.410  0.4349 -0.2262 -0.2053
22952W        W36366   4.748  10.854  16.296 -0.1894  0.0856  0.0756
22953W        W36367   4.945  10.355  16.369  0.3115  0.4338 -0.0942
22954W        W36368   1.384  16.566   2.637  0.2413 -0.3017 -0.1796
22955W        W36369   9.007   2.327  15.275 -0.2566  0.1292  0.1212
22956W        W36370  14.580  14.620   6.012 -0.0431  0.0949 -0.3111
22957W        W36371  13.278   6.743  12.917  0.1718  0.1939 -0.0566
22958W        W36372   4.298  16.487   3.094  0.0289  0.2660 -0.1159
22959W        W36373   3.534  18.027  14.380  0.0155  0.0795 -0.0038
22960W        W36374  16.605  14.280  15.155  0.1823  0.2130  0.1416
22961W        W36375  15.001  13.336   2.862 -0.0428  0.0402  0.2157
22962W        W36376   6.230   8.700  15.326 -0.2107  0.2012  0.1011
22963W        W36377  13.430   0.852  16.187  0.0087 -0.1365  0.0214
22964W        W36378  11.992   9.023   1.262  0.1664  0.0060  0.1918
22965W        W36379   7.485  15.021  14.870  0.0425 -0.0375 -0.1551
22966W        W36380  17.471   9.515   3.284 -0.0017  0.1204 -0.3035
22967W        W36381  10.046   3.416   6.317  0.1311 -0.0628  0.1726
22968W        W36382  11.990  12.411  13.975  0.1116  0.0653 -0.1160
22969W        W36383  17.168  14.304   3.671 -0.0499  0.0916 -0.0904
22970W        W36384  13.623   3.787  13.992 -0.1712 -0.2241 -0.2907
22971W        W36385   2.599   5.124  11.750  0.1197 -0.3474 -0.1133
22972W        W36386  17.205  10.412   4.904 -0.0118  0.1198 -0.1982
22973W        W36387  14.227   1.396  12.153 -0.0963 -0.0930  0.0744
22974W        W36388  15.843  13.070   4.408 -0.2974  0.2079  0.2925
22975W        W36389  10.851   8.658   6.306 -0.0456 -0.2838 -0.0961
22976W        W36390  15.601  13.506  12.394  0.3920  0.0367 -0.3919
22977W        W36391   9.098  16.676  15.253  0.0157  0.0345  0.2242
22978W        W36392  16.899   5.230  11.447 -0.0514 -0.0742 -0.1237
22979W        W36393   9.323   0.589  15.110 -0.2517  0.2673 -0.2536
22980W        W36394   4.956   7.309   3.293 -0.0433  0.0978 -0.0692
22981W        W36395   6.659   3.445  15.967  0.2637  0.2084 -0.0488
22982W        W36396   5.226   1.360   2.899 -0.0063 -0.2449  0.0427
22983W        W36397   1.495  14.445  16.394 -0.0254 -0.0026  0.1297
22984W        W36398   8.379   6.393  11.968 -0.0126 -0.1269 -0.0464
22985W        W36399  17.257   6.211  15.551  0.2733  0.2448 -0.0574
22986W        W36400   4.483   9.957   2.913  0.0459 -0.2201  0.2329
22987W        W36401   3.714   9.248  14.152  0.0068 -0.1588 -0.1680
22988W        W36402   3.393   9.201   3.029  0.1482 -0.3077 -0.0798
22989W        W36403  10.827  15.244  13.714  0.0756 -0.0394 -0.3425
22990W        W36404  10.643   5.209  15.535 -0.1702 -0.4636 -0.0380
22991W        W36405   5.758   6.270   3.820  0.3223 -0.1964 -0.0740
22992W        W36406   8.865   6.514  13.536 -0.0009  0.0761 -0.2042
22993W        W36407   7.740  15.388   3.422 -0.1163 -0.2458  0.0386
22994W        W36408   0.739  13.620   3.729  0.0469  0.2097  0.1576
22995W        W36409   9.699   0.556  10.615  0.2732 -0.0907  0.0746
22996W        W36410  14.120   0.835  15.266  0.0068 -0.1088  0.0655
22997W        W36411  16.578   5.000  15.710 -0.1863 -0.1980  0.0167
22998W        W36412  17.277   8.731   2.984  0.2532  0.0739 -0.1483
22999W        W36413   0.585  11.820   4.976  0.1240  0.0244  0.0554
23000W        W36414   7.987  13.372  14.879 -0.1473  0.3115  0.1948
23001W        W36415  10.510   1.818  15.812  0.1680 -0.1315 -0.2083
23002W        W36416   1.233   2.789  15.100  0.3912 -0.0532 -0.1935
23003W        W36417   4.005   2.413  15.990  0.0088  0.2194 -0.1448
23004W        W36418   0.346  11.964   0.317  0.0707  0.4236 -0.0033
23005W        W36419  15.597  11.619   2.018  0.0512  0.3641 -0.1459
23006W        W36420  16.423   2.839  16.367  0.0408 -0.2341 -0.0443
23007W        W36421   9.827   7.130   6.348 -0.3359  0.2801 -0.0986
23008W        W36422  13.231  11.204  13.839 -0.1927  0.0874 -0.1120
23009W        W36423   3.647  12.723  11.571 -0.0736  0.0444  0.1330
23010W        W36424   6.771  12.520  12.641  0.2481 -0.0198  0.1009
23011W        W36425   5.776   8.761  10.625  0.1263  0.1460 -0.3168
23012W        W36426   1.002  11.082   0.915 -0.0834  0.0542  0.0452
23013W        W36427  13.572  16.018  13.458  0.0023  0.0086 -0.1867
23014W        W36428  11.658   5.287   2.590  0.1929  0.0512 -0.1633
23015W        W36429   2.079   8.344   4.730  0.1610 -0.1019  0.0530
23016W        W36430   8.406  17.286  11.660  0.0760  0.3701  0.0787
23017W        W36431  17.151  15.798  14.883 -0.0193 -0.0209  0.0766
23018W        W36432   6.790  13.879   0.096  0.0238 -0.3048 -0.3548
23019W        W36433   7.459   5.386  12.755 -0.1766  0.0144  0.5358
23020W        W36434  13.743   8.512  13.193  0.1406 -0.1236 -0.2407
23021W        W36435  12.382   7.547   4.623 -0.0378 -0.1188 -0.1089
23022W        W36436   5.654   6.881   4.765  0.0877  0.3811  0.1173
23023W        W36437  13.808   4.189   0.455 -0.0283 -0.2255  0.3026
23024W        W36438   0.162   2.718   2.068 -0.0289  0.3457  0.3373
23025W        W36439  14.990  15.507   3.871  0.0918  0.0338 -0.1072
23026W        W36440  13.600  11.215   1.413 -0.2368 -0.0901 -0.0076
23027W        W36441  16.140   4.842   1.885  0.0403  0.3228  0.0844
23028W        W36442   6.624   1.177  11.546 -0.2415 -0.1662 -0.2717
23029W        W36443  16.534   7.638  10.837  0.1819 -0.1003  0.2153
23030W        W36444  17.440   2.135   3.291  0.3666 -0.0038  0.1611
23031W        W36445  13.897  10.359   5.192  0.0830  0.1485  0.2060
23032W        W36446  13.822  16.037  11.684 -0.0397 -0.0087  0.3136
23033W        W36447   2.147  10.944   6.155 -0.1294  0.0218 -0.0333
23034W        W36448   6.776   5.138   1.670  0.1327 -0.0289  0.3197
23035W        W36449  15.414  14.804   2.307  0.0420  0.3051  0.1829
23036W        W36450   8.462  18.043   0.428  0.1857 -0.3112  0.0976
23037W        W36451   8.161  17.154   0.194  0.1186 -0.4652 -0.1217
23038W        W36452   2.553  16.721  14.046 -0.0029 -0.0238 -0.0056
23039W        W36453   6.320   8.294  11.128 -0.0623 -0.0839  0.0537
23040W        W36454  14.974   4.180  13.582  0.0341  0.0662 -0.2700
23041W        W36455  11.421   3.751  12.479  0.0287 -0.1373  0.2700
23042W        W36456  11.883  17.745   2.156  0.4023  0.1537 -0.1569
23043W        W36457   6.206   3.710  12.200  0.2324 -0.2642  0.0244
23044W        W36458   1.974  11.141   2.523 -0.2609 -0.2884 -0.3109
23045W        W36459   9.218   4.476  14.968 -0.2102  0.2480  0.1421
23046W        W36460  14.464   5.383   4.521  0.2352  0.0319  0.2398
23047W        W36461  15.315   0.807  14.041  0.3193  0.2733  0.1668
23048W        W36462   2.423   0.217   2.347 -0.2748 -0.0007 -0.2263
23049W        W36463  17.612  11.451  13.812 -0.0988  0.4096 -0.0811
23050W        W36464   9.859  14.196   1.451  0.0709 -0.0052  0.2427
23051W        W36465  15.654  12.229  12.156 -0.3194  0.2223  0.1001
23052W        W36466  17.767   0.067   3.427 -0.2167  0.0175  0.0937
23053W        W36467   5.360   0.368   4.537 -0.0618  0.1883 -0.3614
23054W        W36468  16.583  14.017   4.272 -0.2499  0.0783 -0.0650
23055W        W36469   7.170   4.422   4.930 -0.0515 -0.1388 -0.2397
23056W        W36470   2.961   7.139  13.966 -0.0006  0.0763  0.1131
23057W        W36471   7.169  14.245   0.935  0.0617 -0.0449  0.2611
23058W        W36472  16.051   3.455   0.844  0.2674  0.0891 -0.2052
23059W        W36473   7.258  13.025   0.257 -0.0858  0.0788 -0.0892
23060W        W36474   6.543   4.405  13.605  0.1739 -0.1768  0.0707
23061W        W36475   2.998   6.486  13.116  0.0357  0.0937 -0.0580
23062W        W36476  17.223   6.334   6.355  0.0564 -0.1438  0.4652
23063W        W36477   9.546   4.767   2.111  0.1902  0.1746  0.2158
23064W        W36478   9.737   2.655   3.978 -0.1211 -0.0254  0.1929
23065W        W36479  14.277   6.579   3.590 -0.1176 -0.0019  0.0174
23066W        W36480  17.177   7.042   2.000 -0.1954 -0.0845  0.0041
23067W        W36481   2.931   5.441   4.961 -0.0918 -0.0800  0.0198
23068W        W36482  13.292  12.619  11.556  0.4598 -0.0803  0.0043
23069W        W36483   7.925  16.627   5.375  0.4931  0.1709  0.2141
23070W        W36484   9.002   9.646  16.024 -0.0207 -0.0891  0.0739
23071W        W36485   5.106  17.313  15.081  0.2059  0.0520  0.0170
23072W        W36486   3.349  11.053  15.499  0.2549  0.2040  0.0795
23073W        W36487  16.651   4.645  16.640 -0.1265  0.4495 -0.1016
23074W        W36488  10.008   9.815   1.153 -0.2085 -0.0491 -0.1596
23075W        W36489  13.108   2.000  13.697 -0.0746  0.1118  0.0924
23076W        W36490  12.283   9.326   2.162  0.0364  0.1341  0.2625
23077W        W36491  11.421  16.637   4.974  0.1426  0.2394 -0.2616
23078W        W36492   0.113   7.150  11.200 -0.1034  0.0894 -0.1960
23079W        W36493   3.811   0.440   5.524 -0.0681 -0.1538 -0.0270
23080W        W36494  14.435   1.851  13.649  0.0894 -0.0247  0.1945
23081W        W36495   7.792  11.495  15.733 -0.1653  0.2092 -0.3182
23082W        W36496  14.972   0.402  16.091  0.0903 -0.1069 -0.0522
23083W        W36497  13.568   3.348  10.902 -0.0495 -0.1156 -0.1613
23084W        W36498   0.792   5.635   1.447  0.3428 -0.0205 -0.0336
23085W        W36499   6.366   8.397   2.228  0.0445  0.0628 -0.0107
23086W        W36500   5.826   8.688   3.667 -0.0369  0.1387  0.2266
23087W        W36501   6.194  12.776  14.213 -0.4132 -0.0372 -0.0688
23088W        W36502   9.048   4.985  14.174  0.4096  0.2616  0.1526
23089W        W36503  15.343  15.908   5.437  0.2718 -0.1684 -0.3619
23090W        W36504   8.777  10.438  14.067  0.0444  0.0528  0.2676
23091W        W36505   3.097   8.380   0.991  0.1161 -0.1062  0.1468
23092W        W36506  15.681   0.363   4.437  0.1461  0.0476  0.0989
23093W        W36507  10.079   1.789   4.458  0.1743 -0.2212  0.1934
23094W        W36508  13.756   2.971   6.315  0.0808  0.1751  0.0299
23095W        W36509   5.153   8.421   0.444  0.1549  0.1153  0.0790
23096W        W36510   9.679   6.819   2.115 -0.1623 -0.2177 -0.0078
23097W        W36511   5.868  17.337  13.805 -0.0707 -0.1921 -0.0070
23098W        W36512  10.176   3.972  12.835 -0.0454  0.2444 -0.1379
23099W        W36513  15.320   4.442  11.684  0.1658 -0.3520 -0.1714
23100W        W36514  17.463   5.129   6.365  0.2558 -0.1822 -0.1215
23101W        W36515  15.948   3.511   5.978  0.1101  0.1135  0.0282
23102W        W36516  11.342   1.654  10.826  0.1392  0.1677 -0.2418
23103W        W36517  12.593  10.878  11.320 -0.0886  0.1392 -0.0442
23104W        W36518   1.678   9.141   0.662 -0.2397  0.0227  0.3559
23105W        W36519  14.744   6.392  13.576 -0.0447  0.1194  0.0446
23106W        W36520  15.053   8.926   4.060 -0.0163  0.2392 -0.2088
23107W        W36521  12.640  12.626   4.675  0.0636  0.0661 -0.1027
23108W        W36522  13.489  17.903  15.102  0.0207 -0.0365  0.1902
23109W        W36523   8.498  12.108  10.698 -0.0708 -0.0912  0.1100
23110W        W36524   5.387  14.296   3.157  0.3149  0.1028 -0.2287
23111W        W36525   9.518   2.393  13.929 -0.3516  0.0286  0.2653
23112W        W36526   7.213   9.524   4.638  0.0924  0.1068  0.1068
23113W        W36527   2.794   5.173   4.519  0.1159  0.0714  0.1387
23114W        W36528  10.269  10.838   4.910  0.5098  0.2127 -0.1585
23115W        W36529   5.519   3.668   2.291  0.2561  0.0529  0.0510
23116W        W36530  18.034   5.444   5.554  0.0387  0.0681  0.2861
23117W        W36531   3.448  15.963  12.218 -0.1216 -0.2147 -0.1902
23118W        W36532  13.279   8.761  15.958 -0.0001 -0.1085  0.0997
23119W        W36533   0.569  10.747  15.715  0.2509 -0.3038  0.1598
23120W        W36534   3.706   9.522   3.792 -0.2292 -0.1805  0.2640
23121W        W36535   7.732  13.655   4.326 -0.0726 -0.3040 -0.0480
23122W        W36536   4.196   8.270   1.004  0.1604 -0.4678 -0.0177
23123W        W36537   0.032   5.552   2.061 -0.0940  0.0907  0.1960
23124W        W36538  15.709   9.439  11.400 -0.0709  0.1538  0.3977
23125W        W36539  12.866   2.129  11.111  0.3707  0.1727 -0.2635
23126W        W36540  10.745   3.640   5.455  0.1013  0.2425 -0.0245
23127W        W36541  15.904   6.377   0.408 -0.1800  0.2354 -0.1209
23128W        W36542  12.137   3.421  13.759  0.0857 -0.3898  0.2192
23129W        W36543  14.646  10.498  11.367  0.2798 -0.0818  0.0041
23130W        W36544  12.119  15.084   2.765 -0.2205 -0.2634  0.1773
23131W        W36545  14.192  12.674   4.159  0.3860  0.2099 -0.0074
23132W        W36546  10.467  17.747   3.699  0.2031 -0.0218 -0.1105
23133W        W36547   7.925   6.042  11.076  0.0940 -0.0264 -0.1069
23134W        W36548   5.928  10.290   2.519 -0.0184  0.1102  0.2612
23135W        W36549   4.273   5.053  14.182  0.1410 -0.1246  0.0650
23136W        W36550   9.472   7.961   2.528  0.0219 -0.1125  0.0992
23137W        W36551   6.557  16.118  13.687  0.2111  0.2055  0.3064
23138W        W36552   3.074   4.519  11.252  0.2839  0.0299 -0.0312
23139W        W36553  14.088  13.731   4.192 -0.1350 -0.1779 -0.0471
23140W        W36554   1.111  15.232  15.809  0.0631 -0.1264 -0.0003
23141W        W36555   8.355  13.151   3.215  0.2489  0.1227  0.1592
23142W        W36556  10.920   4.887   0.634  0.0976  0.0401  0.1886
23143W        W36557  11.068   5.493  13.131  0.0131 -0.1047 -0.0954
23144W        W36558   5.158   0.098   0.446  0.2044 -0.1104  0.0059
23145W        W36559  14.349   4.762  14.163 -0.1431 -0.0915 -0.0689
23146W        W36560  16.803  10.816  11.515  0.1070  0.2209 -0.2659
23147W        W36561  11.245   5.041   1.030  0.0695 -0.1623 -0.0698
23148W        W36562   4.547  11.216  15.324  0.0329  0.1797 -0.2160
23149W        W36563  11.416  14.495   4.304  0.0445 -0.1687  0.0264
23150W        W36564   8.810  16.223  13.137  0.3201  0.0131  0.1443
23151W        W36565  12.108  16.964  11.067  0.1921  0.2640  0.2106
23152W        W36566  10.806   3.126   0.298 -0.0889 -0.4600  0.1441
23153W        W36567  16.926   6.029   2.817  0.0788  0.0404 -0.0857
23154W        W36568  16.724  11.458  10.383 -0.0669  0.1754  0.3094
23155W        W36569   0.688  11.043  11.071 -0.0688 -0.2375 -0.1945
23156W        W36570   9.517   2.337   3.519  0.2547  0.1593 -0.2025
23157W        W36571  14.550  17.619  15.056  0.0157 -0.3635  0.1522
23158W        W36572   5.257  15.678  15.421 -0.1565  0.2503 -0.0350
23159W        W36573   8.406   4.699   1.598 -0.3023  0.1165 -0.1372
23160W        W36574   4.803  16.504   3.351  0.0618 -0.0191  0.0684
23161W        W36575  12.711   8.200  11.491  0.1344 -0.0081 -0.0453
23162W        W36576  16.697  11.492   6.383  0.0134 -0.0261 -0.2235
23163W        W36577   3.950   5.808   0.114  0.3661 -0.0015 -0.1341
23164W        W36578   2.106  15.097  16.652  0.0081 -0.0092  0.5020
23165W        W36579   2.470  16.074  16.630 -0.0539  0.0072  0.1747
23166W        W36580  14.646   9.583   3.446  0.0307  0.0073  0.0105
23167W        W36581   8.196  16.163   3.189  0.1944 -0.0232 -0.0984
23168W        W36582  14.053  12.688   4.637  0.0868 -0.0306 -0.2317
23169W        W36583  17.057   2.144  13.161  0.0342 -0.0593 -0.4606
23170W        W36584   8.395  12.596   0.647  0.0629  0.0242  0.0259
23171W        W36585   2.637  12.568  12.538 -0.1237  0.0464  0.1876
23172W        W36586  12.685   2.478   3.597  0.0114  0.3863  0.1401
23173W        W36587  15.259   7.107   6.307  0.0872 -0.1078  0.3605
23174W        W36588   7.705   8.143  10.915  0.0839 -0.4493  0.0510
23175W        W36589   9.085  14.207   0.159  0.0844 -0.1777 -0.1791
23176W        W36590  16.066   2.176   6.723 -0.0682  0.0446 -0.2526
23177W        W36591  16.249   1.976   0.550  0.0255  0.0281  0.0247
23178W        W36592  16.862   7.428  11.143  0.1293  0.2031 -0.1317
23179W        W36593  17.794   4.510  13.392 -0.0533  0.0410  0.3007
23180W        W36594   9.504   6.312  16.529 -0.2049  0.0149  0.3147
23181W        W36595   8.957  12.612   5.474  0.0442  0.0297  0.2110
23182W        W36596  17.626  14.421  15.529  0.2249  0.0970  0.1961
23183W        W36597  16.101   3.639   1.331  0.1038  0.0472  0.2068
23184W        W36598  17.317   8.681   3.896  0.1481  0.0028  0.0985
23185W        W36599  10.263   1.383   4.250  0.0506  0.0301 -0.1021
23186W        W36600  15.183   3.332   2.766  0.1662 -0.0987 -0.0532
23187W        W36601  13.427   6.924  16.241  0.1335 -0.0276  0.0306
23188W        W36602   8.821   2.723  13.112  0.1753 -0.1138  0.2290
23189W        W36603   1.301   3.690  15.055 -0.1323  0.1368  0.2268
23190W        W36604   7.306   7.332   2.311 -0.1682 -0.1226 -0.0485
23191W        W36605  12.949   7.641   4.970 -0.1639 -0.1193 -0.0408
23192W        W36606   5.837   4.766   4.952 -0.0454  0.0044 -0.0910
23193W        W36607   2.443   1.136   1.098  0.0008 -0.1407  0.0853
23194W        W36608  11.424   5.129   3.371 -0.2466 -0.0753 -0.0239
23195W        W36609  11.257   3.459   3.513  0.0769 -0.1486  0.2415
23196W        W36610   9.363   8.175   1.451  0.1962 -0.1688 -0.0947
23197W        W36611   6.164  10.741   5.187  0.0178 -0.3855 -0.0139
23198W        W36612   8.232   9.745  13.743  0.0779  0.1536  0.0449
23199W        W36613   8.408   2.728   4.071  0.2049  0.0641 -0.2115
23200W        W36614   8.062   4.120  12.415  0.1778 -0.0080 -0.0837
23201W        W36615   1.680   5.607  14.318 -0.2220 -0.3674  0.2369
23202W        W36616   6.240   5.709  14.302 -0.0882  0.0892 -0.5888
23203W        W36617   6.759   4.860   0.239 -0.0678  0.1896  0.3437
23204W        W36618  17.606  16.512   1.405  0.0978  0.0660 -0.0867
23205W        W36619  16.485   2.509   6.807  0.2442  0.1761  0.0518
23206W        W36620   6.448  15.703  11.977  0.0281 -0.0328 -0.3463
23207W        W36621  12.324  14.175  14.052 -0.3149 -0.0097 -0.4458
23208W        W36622  12.160  15.730  15.097  0.0569  0.3417 -0.1558
23209W        W36623   1.087  12.551  14.417  0.2557 -0.0923  0.2317
23210W        W36624   5.454  10.437   0.852  0.1907 -0.0103  0.3477
23211W        W36625  17.602  14.847  14.872  0.1990 -0.0188 -0.1447
23212W        W36626  15.261  10.791  15.381  0.1602  0.1340 -0.2171
23213W        W36627   9.459   8.197   0.432 -0.0153  0.0073 -0.1095
23214W        W36628  17.302  12.282   0.995 -0.1054 -0.0470  0.3726
23215W        W36629   3.803   5.425  13.568 -0.2027 -0.1133  0.3656
23216W        W36630   4.464  15.240   3.667  0.1941  0.0811 -0.0276
23217W        W36631  12.430   6.331   6.198 -0.0404 -0.2280  0.1378
23218W        W36632   7.208   2.004   1.064 -0.0610  0.1352  0.1529
23219W        W36633   0.852  15.852  11.671 -0.0630  0.0109  0.0993
23220W        W36634   2.653  12.581  14.917  0.1540 -0.0561 -0.2465
23221W        W36635   6.180   0.016  10.799  0.0215  0.2793  0.3666
23222W        W36636   5.032   4.043   1.445  0.1147 -0.0000 -0.0088
23223W        W36637  15.890  16.362   4.026  0.1987  0.0658  0.4382
23224W        W36638  14.638  15.547   4.252 -0.0207  0.2154 -0.1042
23225W        W36639  10.746   6.881  16.157 -0.0136  0.0683 -0.1293
23226W        W36640   1.832  14.683  15.278  0.2488 -0.0453  0.1228
23227W        W36641  14.347   0.322   5.025 -0.1624 -0.0752  0.0640
23228W        W36642   8.839   0.043   0.141  0.1627  0.3708 -0.0163
23229W        W36643   3.595   0.439  15.213  0.1199 -0.3016 -0.2457
23230W        W36644   7.175  15.283  11.517  0.0555  0.0174 -0.3621
23231W        W36645  11.526  16.918  16.606  0.2183 -0.0867  0.1161
23232W        W36646  12.707   6.357  12.356  0.4918 -0.0118 -0.3021
23233W        W36647   2.045   3.187  10.655  0.2134  0.0385  0.2232
23234W        W36648  17.783  16.642   2.382  0.1939  0.2753  0.0935
23235W        W36649   0.069   7.107   6.682 -0.0659 -0.1151  0.2439
23236W        W36650  16.348  14.016   5.304  0.3229 -0.0465 -0.2212
23237W        W36651  10.245   4.113  14.241  0.2148  0.0334 -0.0684
23238W        W36652   4.777  17.383  11.302 -0.1251  0.2961 -0.1139
23239W        W36653  14.071   8.703  11.027 -0.0123  0.0578 -0.1506
23240W        W36654   6.467   4.114  14.028 -0.3099  0.1060  0.0943
23241W        W36655   7.152   3.034   4.734  0.1592 -0.0670 -0.1244
23242W        W36656   8.817   0.413   0.514  0.1320 -0.0872  0.0274
23243W        W36657   2.351  16.698  13.116 -0.0932 -0.0306 -0.1894
23244W        W36658  12.392   5.826   5.026 -0.0598 -0.2451 -0.1377
23245W        W36659  10.403   7.963  13.587 -0.0177 -0.0815  0.2194
23246W        W36660   9.614   5.301   4.265  0.0036  0.1088 -0.0932
23247W        W36661   7.557   6.290  12.421  0.1479 -0.4274  0.0879
23248W        W36662  13.908   4.061   2.551 -0.0262  0.1347 -0.2302
23249W        W36663  17.549   2.703  16.215 -0.0518  0.0834 -0.0291
23250W        W36664  11.889   1.481   1.742  0.1031  0.2146 -0.1716
23251W        W36665   8.971   7.271   4.574  0.0909  0.0465  0.2996
23252W        W36666   7.684  12.562  14.437  0.0868 -0.2583  0.1545
23253W        W36667  12.302  14.797   6.395  0.0336 -0.2681 -0.2123
23254W        W36668  11.331  17.066  11.246  0.0585  0.0585 -0.0634
23255W        W36669   9.798   7.613   5.703 -0.0625 -0.2310  0.0595
23256W        W36670   6.923  11.573  11.549 -0.2928  0.0650  0.2282
23257W        W36671   9.005  11.364   4.463  0.1819  0.1657 -0.3191
23258W        W36672  11.854   6.585  13.921  0.1869 -0.0739  0.1174
23259W        W36673  12.980  15.042  15.264  0.0825 -0.1059  0.0307
23260W        W36674  14.843   6.390   6.427 -0.0326  0.1263 -0.0979
23261W        W36675   5.240   8.730  10.774 -0.0025 -0.0828  0.0662
23262W        W36676   8.872   4.865  11.008 -0.0770  0.0757  0.1074
23263W        W36677  10.192  16.012  12.960  0.1030  0.1094  0.1010
23264W        W36678   6.807   2.484  12.070  0.1925  0.0690 -0.0035
23265W        W36679  15.191   7.366   3.160  0.0201  0.2681  0.3115
23266W        W36680   5.637  13.482  16.566  0.0725 -0.0803  0.1669
23267W        W36681  12.917  10.970   1.514  0.3035 -0.0269  0.2382
23268W        W36682  13.472  16.291   2.920 -0.3100 -0.0895  0.0023
23269W        W36683   7.089   6.818  11.824  0.0638  0.0786  0.0999
23270W        W36684   3.954  11.658  10.609 -0.1289  0.3593  0.4009
23271W        W36685  15.033   1.526   3.978 -0.0596  0.0362  0.0632
23272W        W36686   1.052   0.866   4.751  0.0122  0.2023 -0.0347
23273W        W36687  12.013  13.344  12.499 -0.2704 -0.3657 -0.0900
23274W        W36688   9.732   2.365  13.472  0.2080 -0.0409 -0.0706
23275W        W36689   8.728  10.615  15.484  0.0384 -0.1398  0.1365
23276W        W36690  16.781  12.302  15.165  0.1845  0.2596 -0.1036
23277W        W36691  17.491   6.773   4.283  0.5286  0.0020  0.0073
23278W        W36692  11.181   2.859   5.299 -0.1493 -0.0797 -0.0240
23279W        W36693  11.700   8.356  10.330  0.0002 -0.2543  0.4390
23280W        W36694   6.280  10.140  14.998 -0.0002 -0.0865  0.0862
23281W        W36695   4.013  10.045  10.952  0.3143 -0.1527  0.0292
23282W        W36696   7.326   9.159   0.752  0.2080  0.0930  0.1260
23283W        W36697   7.214  17.239   2.022 -0.0079 -0.0909 -0.0762
23284W        W36698  17.226  10.561  13.923 -0.1183 -0.1716  0.0919
23285W        W36699   8.483   0.060  14.730  0.0379  0.1681  0.4321
23286W        W36700   1.115   7.532   3.650  0.0046 -0.3414  0.1311
23287W        W36701   0.578  10.608  12.962 -0.1895 -0.1833 -0.0154
23288W        W36702   6.980   9.010  15.133  0.2827  0.0190 -0.2484
23289W        W36703  16.948   3.893  10.988  0.0065 -0.0419  0.1543
23290W        W36704   2.294  10.702  11.167 -0.2034 -0.0183  0.0123
23291W        W36705   1.420   1.976   0.719  0.1082  0.2388 -0.2190
23292W        W36706  14.692  12.595  15.426  0.0688 -0.0785  0.2105
23293W        W36707   8.524   9.003  15.306 -0.1753  0.0591  0.2369
23294W        W36708   7.604  11.835  12.339  0.0941  0.1740 -0.0470
23295W        W36709  13.513  11.918  12.585  0.3848 -0.0881 -0.1072
23296W        W36710   2.482  16.524   5.760  0.0201 -0.1433 -0.0580
23297W        W36711   3.476   6.738   5.082 -0.0001  0.3677  0.3106
23298W        W36712  16.062  12.939   2.256 -0.2055  0.1931  0.0964
23299W        W36713  11.692  11.602  14.280 -0.0092  0.0887  0.3376
23300W        W36714  14.746   4.086   5.655  0.2586 -0.0679  0.0937
23301W        W36715   4.750   8.478   6.137 -0.1124  0.0603  0.1835
23302W        W36716   6.581   9.626   3.780  0.1057  0.0644  0.0554
23303W        W36717   5.147  14.222  12.862  0.2919 -0.0250  0.1224
23304W        W36718   7.783   1.741  13.965  0.1211  0.0668 -0.1752
23305W        W36719   7.146  13.175   5.403 -0.1941 -0.0232 -0.0081
23306W        W36720   5.238  11.295   5.039 -0.0073 -0.2574  0.3274
23307W        W36721  15.859   4.377  11.405  0.2285  0.0470  0.2314
23308W        W36722  16.684  16.252  16.436 -0.3208 -0.3098 -0.1505
23309W        W36723   7.664  12.446   0.876 -0.3287 -0.2788 -0.0321
23310W        W36724  18.006  12.899   2.617 -0.0277 -0.1463 -0.1225
23311W        W36725   9.746  16.133  13.770 -0.0378  0.0410  0.2057
23312W        W36726   4.451  13.278  16.240 -0.1482  0.2442 -0.1572
23313W        W36727   4.701   5.798  13.120 -0.3595 -0.1686 -0.0832
23314W        W36728   0.042   1.054  11.901 -0.1130 -0.2002  0.1841
23315W        W36729  12.073  13.732  10.138 -0.1057  0.1428 -0.2370
23316W        W36730  14.740  13.183  13.249  0.4046 -0.1891 -0.0868
23317W        W36731  16.042   9.228   4.578 -0.1122 -0.0237  0.1655
23318W        W36732  16.299   7.890  11.624  0.0629  0.2093  0.1468
23319W        W36733   5.770   3.534  11.080 -0.0758  0.0846  0.0184
23320W        W36734   1.447   7.563   2.227 -0.1747  0.0555  0.1475
23321W        W36735  16.645   6.451   5.071  0.1291 -0.0184 -0.1369
23322W        W36736   9.455  13.005  15.282 -0.0130 -0.0139  0.0226
23323W        W36737   9.327  16.731   1.724  0.2077 -0.0680  0.0329
23324W        W36738   3.778  12.268   3.109 -0.0401 -0.0926  0.3565
23325W        W36739   7.334  10.342  12.160  0.0992  0.2452  0.2998
23326W        W36740   5.638   0.890  15.553 -0.0688  0.1292 -0.2580
23327W        W36741  17.672  10.726   1.346  0.5540 -0.2076 -0.1972
23328W        W36742   4.713  17.323   5.049 -0.0092 -0.1296 -0.1494
23329W        W36743   4.715   2.925   1.898  0.1652  0.1897 -0.2532
23330W        W36744  10.705   7.620  11.515 -0.1128  0.2463  0.0329
23331W        W36745   6.386  17.538  15.618  0.1201  0.1600  0.1107
23332W        W36746  10.401  16.184  12.541 -0.2330  0.0388 -0.0765
23333W        W36747   8.896   9.524   3.776 -0.3495  0.1129  0.1833
23334W        W36748   1.430  16.905  11.171 -0.3435  0.0854  0.0740
23335W        W36749   3.710  12.428  11.150  0.0907  0.0005 -0.0038
23336W        W36750   7.145  13.361  15.321  0.2828  0.2332 -0.0115
23337W        W36751   0.327   9.508   0.627 -0.2543 -0.0498  0.0107
23338W        W36752  17.351  10.484   2.918  0.0291  0.2636 -0.1306
23339W        W36753   7.732   1.804   0.399  0.1253  0.2361  0.1950
23340W        W36754  14.896   1.509  12.780  0.2386 -0.0502 -0.0142
23341W        W36755   4.859   8.656   3.611  0.2633  0.0139  0.2019
23342W        W36756   3.023   5.228   4.081  0.1681  0.2316  0.0253
23343W        W36757  13.740   1.842  12.925  0.1615 -0.0723  0.2724
23344W        W36758  11.294   5.956  14.004  0.0733  0.2741 -0.0148
23345W        W36759  11.723   4.353   3.118 -0.0479  0.0806 -0.3084
23346W        W36760   7.732   9.788   0.218  0.3248  0.1326  0.0885
23347W        W36761   0.511   7.494  13.464  0.3579 -0.0887 -0.0725
23348W        W36762  14.214   2.078  12.680 -0.1040  0.0074  0.0651
23349W        W36763   8.137   9.086   2.786  0.2921 -0.2740  0.1680
23350W        W36764   8.569   4.800  12.129  0.1801 -0.0080  0.0437
23351W        W36765  12.877   1.247  14.035  0.1275 -0.3319 -0.0660
23352W        W36766   3.608   2.323   4.160  0.2023 -0.1118  0.0452
23353W        W36767  16.584   5.907   4.239 -0.0408  0.0858  0.0876
23354W        W36768   3.844  13.598   1.945 -0.2451 -0.1346  0.1536
23355W        W36769  16.062  10.020   0.152  0.0261  0.0652 -0.1784
23356W        W36770  11.806   9.853   0.007 -0.0502  0.5234  0.2873
23357W        W36771   6.711  15.588  16.427  0.0090 -0.0701 -0.3134
23358W        W36772   1.000  14.585   5.057  0.0109  0.1899 -0.2182
23359W        W36773   0.543   5.879  12.631 -0.4770 -0.0355 -0.1078
23360W        W36774   5.014   0.573  14.317  0.2586 -0.3207  0.2643
23361W        W36775   3.221   1.617  15.076  0.0465  0.1548  0.0246
23362W        W36776   1.189   4.937   4.167 -0.3325 -0.0139  0.0412
23363W        W36777   7.140  11.014  15.509  0.1023 -0.0683  0.0675
23364W        W36778   7.467   5.831   2.618 -0.0489  0.1049 -0.0597
23365W        W36779   8.311   3.835  15.811  0.1356  0.0186 -0.1101
23366W        W36780   7.916   5.094   4.606 -0.4031 -0.0840 -0.0314
23367W        W36781   8.197   6.657  13.036 -0.0772 -0.0765 -0.0560
23368W        W36782  13.831  17.376   1.466 -0.2829  0.0991 -0.0686
23369W        W36783   9.562  11.247   5.717 -0.0090 -0.0465  0.1108
23370W        W36784   7.304   3.430  14.184  0.2451 -0.0801 -0.1704
23371W        W36785   5.804   7.259   2.835  0.2477 -0.2721 -0.1189
23372W        W36786   9.114   2.445  12.751 -0.0916  0.0924 -0.0971
23373W        W36787   3.655  11.109   0.572 -0.2102  0.0022  0.0338
23374W        W36788   1.947  17.321  14.237 -0.1961 -0.2673 -0.2829
23375W        W36789  11.431   3.351   3.048  0.0078 -0.0423  0.1256
23376W        W36790   0.394   2.525  15.175  0.1403  0.2089 -0.0908
23377W        W36791  13.421   3.316   0.405  0.0432  0.0937  0.0632
23378W        W36792  12.567  13.114   2.154  0.0161 -0.0731 -0.1904
23379W        W36793  17.644  15.453   1.073  0.0394 -0.0050  0.0847
23380W        W36794  16.462   6.166   1.419  0.0865 -0.3933  0.0174
23381W        W36795  16.197  16.954  15.870 -0.2551 -0.1733 -0.0121
23382W        W36796  15.007  10.823  10.769  0.1548 -0.1247 -0.0472
23383W        W36797  12.863  15.861  11.293 -0.4542  0.1169  0.4697
23384W        W36798   3.218  17.245   1.772  0.0031 -0.0956  0.0814
23385W        W36799   8.432   9.903   4.257 -0.1838  0.0782  0.0208
23386W        W36800  10.393   6.028   0.313  0.0944 -0.2441  0.3133
23387W        W36801   2.324   0.551   2.035 -0.1937 -0.2963 -0.0474
23388W        W36802   7.252   8.441  11.946  0.2651  0.4157  0.0419
23389W        W36803   4.548  10.145   0.506 -0.1051 -0.0571  0.3980
23390W        W36804   1.696   8.693  11.472  0.2163 -0.2856  0.1163
23391W        W36805  13.498  13.615  14.227 -0.0323  0.0069 -0.2312
23392W        W36806  12.048  10.015   2.433 -0.0748  0.0337 -0.1408
23393W        W36807   4.939   7.720  10.741 -0.0087 -0.2272 -0.1907
23394W        W36808   3.646   8.859  14.977 -0.0210 -0.1437 -0.0412
23395W        W36809   1.733   9.439   4.823 -0.0131  0.1302 -0.1089
23396W        W36810  12.092   1.888   1.574 -0.0040  0.0708  0.5943
23397W        W36811  12.043  10.502   3.400 -0.0190 -0.1019  0.1013
23398W        W36812   6.525  14.305  15.147  0.0261  0.2233 -0.1824
23399W        W36813   2.796  15.039   2.138 -0.3034  0.0447  0.1966
23400W        W36814  13.553   7.853   5.648 -0.0897 -0.1285 -0.0217
23401W        W36815   3.148  15.355  10.949 -0.1371 -0.2013  0.2141
23402W        W36816  11.959  17.652  15.397  0.1460  0.2856 -0.3718
23403W        W36817   2.536   2.340   4.474 -0.0058 -0.4365  0.0728
23404W        W36818   1.306   3.414   3.036  0.2115  0.0826  0.1483
23405W        W36819  10.984  14.296  13.803  0.3757  0.3331 -0.1051
23406W        W36820   7.990   0.622   3.244 -0.1033 -0.0163  0.1818
23407W        W36821  10.544   5.435  13.745 -0.1070 -0.1548  0.1114
23408W        W36822  16.197   9.243  12.381  0.4262 -0.2894 -0.1396
23409W        W36823   4.464   2.131  12.982  0.1172 -0.0675 -0.0445
23410W        W36824   2.104   9.446   4.043  0.2568  0.1650 -0.2556
23411W        W36825  17.008  17.998   4.458 -0.2204  0.0950  0.0523
23412W        W36826   9.348   5.876  15.129  0.0296 -0.3374  0.1477
23413W        W36827   6.058   3.042   4.185 -0.3262  0.0924 -0.3597
23414W        W36828  11.409   7.825   0.633  0.0656  0.0651  0.2102
23415W        W36829   3.642   3.263  13.599  0.1815  0.1365 -0.0999
23416W        W36830   9.233   7.068  15.509  0.1602  0.1162 -0.0388
23417W        W36831  15.618   1.996   3.694  0.3556  0.0774 -0.0191
23418W        W36832  10.311  11.692  11.356  0.2671  0.2247  0.1333
23419W        W36833  16.614   2.759   0.137 -0.1268  0.1361 -0.0424
23420W        W36834   4.371   8.314  15.106  0.1346  0.0340 -0.2256
23421W        W36835   3.396   4.481  15.838  0.0277  0.0062  0.4834
23422W        W36836  15.605   7.404  13.217  0.0709  0.4635 -0.3860
23423W        W36837   8.489   2.889  16.427  0.1636 -0.1389 -0.0954
23424W        W36838   9.629  14.899   0.290  0.0034  0.0427  0.0436
23425W        W36839   2.463   9.571  13.354 -0.1119 -0.1374 -0.1596
23426W        W36840   4.697  11.823  11.924  0.1770 -0.1557 -0.1708
23427W        W36841  14.109  18.049   1.899  0.0260  0.0114  0.1706
23428W        W36842   0.756   5.219  11.946  0.1027  0.0925  0.1103
23429W        W36843   0.631   6.423   6.127 -0.2875 -0.1575  0.2783
23430W        W36844  14.803   3.512  14.224  0.1138 -0.4194  0.1175
23431W        W36845  16.832  14.701   1.690  0.0142 -0.1273 -0.0882
23432W        W36846   6.865   7.014   3.830 -0.2218 -0.0615 -0.1354
23433W        W36847  17.088   7.265  13.223  0.0328  0.2934 -0.0979
23434W        W36848  10.999   5.788  14.911 -0.1086 -0.0913  0.2804
23435W        W36849  15.676  17.119   5.865 -0.0479  0.1807 -0.1477
23436W        W36850   4.406  10.281   5.077  0.0685  0.1378 -0.1651
23437W        W36851  14.243  13.658  13.723 -0.1955  0.0542 -0.3310
23438W        W36852  16.536   6.726  13.819  0.0401 -0.0233 -0.1548
23439W        W36853  11.040  15.211  16.234  0.0762 -0.0826  0.0441
23440W        W36854   2.228  17.340  15.215  0.1176 -0.0374 -0.2359
23441W        W36855  13.354   5.129   4.407 -0.2519  0.2270 -0.1050
23442W        W36856  13.145   0.118   0.012  0.3613 -0.2537  0.1557
23443W        W36857   8.827  16.892   3.394 -0.1633 -0.0262 -0.0585
23444W        W36858  12.054  11.927  10.572  0.0765 -0.1359 -0.1638
23445W        W36859   4.136   3.570  11.671  0.1223 -0.1054 -0.2534
23446W        W36860  10.523   6.422  16.046  0.1428  0.0771  0.0159
23447W        W36861   3.248   3.287  13.294 -0.4996  0.1119  0.1384
23448W        W36862  17.080   1.585   0.693  0.1613  0.0437 -0.0407
23449W        W36863  14.613  16.045  11.094  0.1401  0.1213 -0.0615
23450W        W36864   6.188   3.287   0.257 -0.0693  0.1667 -0.0885
23451W        W36865  17.065   8.805   0.732 -0.1460 -0.3068 -0.2957
23452W        W36866  11.588  17.838  13.254 -0.0579 -0.1591 -0.0864
23453W        W36867  11.469  15.264  15.894  0.0162  0.0528 -0.1278
23454W        W36868  13.090  13.536  15.974  0.2341 -0.1226  0.0681
23455W        W36869   1.622  15.335  16.551 -0.2629 -0.4666  0.0365
23456W        W36870  13.002   7.056  15.920  0.1001  0.0051  0.0581
23457W        W36871  12.924  13.053  15.206  0.0984  0.1244  0.0725
23458W        W36872   1.301  12.760   4.229 -0.0641 -0.1766  0.0704
23459W        W36873  10.772  15.655   4.681  0.0043  0.1269  0.2300
23460W        W36874   3.395   9.395  11.930  0.3020 -0.2602 -0.1469
23461W        W36875  17.185   5.580   7.097  0.3108 -0.1739 -0.1583
23462W        W36876  17.233   8.439   0.423  0.0897  0.4209 -0.2298
23463W        W36877   2.302   8.554  14.677 -0.0022 -0.0258 -0.1228
23464W        W36878   0.212   7.478   0.518  0.0232 -0.0571  0.0247
23465W        W36879   3.392   1.041  14.315 -0.0311  0.0353  0.0226
23466W        W36880  11.676   3.041  13.733 -0.0558 -0.0068 -0.0425
23467W        W36881  16.787   9.315  12.366 -0.0372 -0.0122  0.0667
23468W        W36882   0.907  13.074   1.756  0.0507 -0.1204 -0.2469
23469W        W36883   0.938  14.985  11.868  0.1559  0.2213 -0.1255
23470W        W36884   2.747   0.039  11.529 -0.1581 -0.0786 -0.0304
23471W        W36885  16.568   6.582  14.364  0.0163  0.0468  0.0505
23472W        W36886   5.358   3.474  12.550  0.1117  0.0417  0.1420
23473W        W36887   5.353   0.450   1.812  0.1362  0.0324  0.0703
23474W        W36888  16.713   1.620  10.900 -0.2037  0.1380 -0.0737
23475W        W36889  13.825   1.418   3.303 -0.0408  0.1048  0.0530
23476W        W36890   6.993  14.405  10.935 -0.0989 -0.1542  0.1028
23477W        W36891  12.930  10.869  14.111  0.0470  0.0410 -0.1254
23478W        W36892   4.420   5.539   4.953 -0.1598  0.0961  0.0323
23479W        W36893   8.668  17.141   2.380 -0.1302 -0.0587 -0.1569
23480W        W36894   5.985   8.089   2.489  0.1870 -0.2361  0.2546
23481W        W36895   2.717   8.907  13.334  0.0250  0.1131 -0.0253
23482W        W36896  17.539   1.234  11.379 -0.1835 -0.2027  0.0976
23483W        W36897   0.368  12.355  13.220  0.5260 -0.2784 -0.2034
23484W        W36898  17.817   8.360   4.962 -0.1629 -0.1618  0.1246
23485W        W36899   8.439   0.758   5.991 -0.3055 -0.3105 -0.0129
23486W        W36900  10.004   9.053   0.955  0.2078  0.0814 -0.0313
23487W        W36901   9.516   9.646   3.131  0.0016  0.0960  0.0437
23488W        W36902   4.499  10.806  15.830 -0.2888  0.1402 -0.4053
23489W        W36903  16.692   5.252   2.853 -0.2615  0.0173 -0.0560
23490W        W36904  12.004   6.104  15.171  0.1759  0.4118  0.1293
23491W        W36905  10.396   2.518  12.376 -0.2175  0.1573  0.1755
23492W        W36906   0.538   9.675  10.542 -0.0628 -0.1999  0.3102
23493W        W36907   9.489  12.551   2.043  0.1205 -0.2048  0.0194
23494W        W36908   1.829   6.536  13.781 -0.0149 -0.1049  0.1340
23495W        W36909   5.530   2.010  10.928  0.1040 -0.0331 -0.0724
23496W        W36910   8.480  13.530  15.691 -0.1760 -0.1133 -0.1109
23497W        W36911   8.331  14.805   4.167  0.0058  0.0087  0.2695
23498W        W36912   0.980  14.429  12.307  0.0283 -0.1384  0.0531
23499W        W36913   7.598  13.273  16.222 -0.2061 -0.1270 -0.0575
23500W        W36914   5.657   2.967   3.075 -0.2627  0.2242 -0.3298
23501W        W36915  12.197  11.637   4.089  0.0148 -0.1809 -0.0283
23502W        W36916   4.680   2.051   5.310  0.0192  0.1370  0.0592
23503W        W36917  15.319  12.118   1.285 -0.1055 -0.1502  0.0448
23504W        W36918   9.364   0.760   5.120 -0.2364  0.1157  0.1712
23505W        W36919   2.232  15.006  10.734  0.0429 -0.2196  0.0574
23506W        W36920  11.598   8.902  12.573  0.0015 -0.0836 -0.2029
23507W        W36921  17.288   2.150  15.231  0.2225 -0.5119 -0.4990
23508W        W36922  12.142   2.317   2.916  0.4900  0.1599  0.0089
23509W        W36923   5.142   5.545   6.473  0.0707  0.1688 -0.0181
23510W        W36924  15.055   6.524   4.076  0.0873 -0.2217  0.0260
23511W        W36925   4.601  17.321   6.606  0.0389 -0.2994 -0.1013
23512W        W36926  12.874  10.015   4.712  0.1196  0.0796 -0.0280
23513W        W36927  12.710   7.534   2.592  0.0057  0.2584 -0.3355
23514W        W36928  12.854  16.383  15.772  0.1980 -0.0345  0.1965
23515W        W36929  14.536  10.979   0.447  0.2641  0.0100  0.0597
23516W        W36930   9.188  15.660  13.266 -0.0141 -0.0484 -0.1152
23517W        W36931   6.168   9.947  10.516  0.0351 -0.1699 -0.0129
23518W        W36932  13.851  12.524  13.753  0.1180  0.0944  0.1515
23519W        W36933   4.278  10.776   2.506  0.3029 -0.3523 -0.2874
23520W        W36934   2.118  13.250   2.922 -0.2254 -0.1670 -0.1035
23521W        W36935   3.890   6.871   4.313  0.2670  0.0671  0.1035
23522W        W36936   2.320   5.096   2.515  0.1808  0.0089 -0.1368
23523W        W36937   4.234  13.174   3.674  0.0483 -0.1371  0.0532
23524W        W36938  12.062  13.767  12.869  0.1730 -0.3707 -0.0512
23525W        W36939  17.333  14.028   1.602 -0.0432  0.1128 -0.0342
23526W        W36940   3.995   0.012  16.417  0.2066  0.3061  0.2100
23527W        W36941   1.364   7.879  11.389 -0.1504  0.0440 -0.1355
23528W        W36942  15.918   7.988   4.913 -0.2137  0.1706  0.1192
23529W        W36943   0.383   3.103   1.903  0.4129  0.3520 -0.0740
23530W        W36944  17.653  17.662  14.338 -0.2831 -0.1475  0.1348
23531W        W36945  16.170  12.009   4.052 -0.3482 -0.2000  0.0796
23532W        W36946  12.549   8.347   5.991 -0.1106  0.0536 -0.0763
23533W        W36947   0.664  17.866   1.514  0.0186 -0.0085 -0.0328
23534W        W36948  15.667   4.720   2.009  0.1008 -0.1131  0.3727
23535W        W36949  12.489  12.271   0.575 -0.0537 -0.3442 -0.2862
23536W        W36950   6.593  14.417   5.728  0.2295 -0.0698  0.0170
23537W        W36951  10.086  10.081   2.533  0.3266 -0.0024  0.0035
23538W        W36952   4.309   0.391  11.747  0.1767 -0.2854  0.3202
23539W        W36953  10.426   1.123  12.231  0.1520  0.1919 -0.2731
23540W        W36954   3.325  10.068   4.245  0.1733  0.0456  0.3552
23541W        W36955   7.566   9.728  14.283  0.0315 -0.0690 -0.2125
23542W        W36956   2.006  12.621   0.639 -0.2399  0.1255 -0.1586
23543W        W36957   2.128  11.621  13.232 -0.2118 -0.1458  0.0649
23544W        W36958  12.813  11.734  12.422  0.0974  0.0060  0.1001
23545W        W36959   1.617   0.495  14.254 -0.1010 -0.0722 -0.1628
23546W        W36960  16.030  14.067  14.884  0.0824 -0.1566  0.0606
23547W        W36961  16.092   2.088   1.890 -0.2496 -0.1721 -0.2699
23548W        W36962  10.832   3.419   1.826 -0.0332  0.1558 -0.2696
23549W        W36963   7.430  12.672  13.951  0.0727  0.1737  0.0117
23550W        W36964   6.484   8.485   5.190 -0.0644  0.1315  0.0230
23551W        W36965  16.927   1.562  16.277  0.0501  0.0818  0.0967
23552W        W36966  13.061  17.136   3.096 -0.1288 -0.2384  0.1103
23553W        W36967   4.941   2.873   3.793 -0.0495 -0.0542 -0.1259
23554W        W36968   3.042   8.532   5.126  0.1959 -0.0260  0.1033
23555W        W36969   9.209  15.579   5.753  0.1390 -0.1050 -0.3960
23556W        W36970   8.827  12.469   4.091 -0.2036  0.0039  0.0480
23557W        W36971  12.366   2.302  14.805  0.2411  0.0780 -0.1365
23558W        W36972   4.924  14.785  13.697  0.1917  0.0112 -0.0600
23559W        W36973  13.788   0.278  13.593 -0.1283  0.1764  0.1948
23560W        W36974   2.194  16.117   5.644  0.1784  0.2312  0.1052
23561W        W36975   3.784   7.632   5.335 -0.1185  0.3513  0.0778
23562W        W36976   6.903   6.908   2.881  0.2828 -0.0734 -0.0113
23563W        W36977   6.859   9.629   2.635 -0.0316  0.2979  0.1372
23564W        W36978   7.000   6.473   3.112  0.0879  0.1531  0.1127
23565W        W36979  15.091  14.568  13.316 -0.1352  0.1902  0.1472
23566W        W36980  16.854   6.516  12.647  0.1230  0.1154 -0.2496
23567W        W36981  14.864   6.943  13.634 -0.0707 -0.1699 -0.0585
23568W        W36982  15.150   5.224  12.250  0.1299 -0.0014  0.1645
23569W        W36983  11.809  12.100  15.097  0.3488  0.1048 -0.2492
23570W        W36984  15.482   2.545   2.196  0.2163 -0.1627 -0.2425
23571W        W36985   6.433  11.816  15.062 -0.1846  0.1949 -0.2691
23572W        W36986   7.458   6.428  10.968  0.0860 -0.1014  0.1036
23573W        W36987   6.469  17.402  16.173  0.1581  0.0157  0.0281
23574W        W36988  15.087   4.335   0.833 -0.0194 -0.3501  0.1678
23575W        W36989  10.895  14.658  15.073 -0.0452  0.0104 -0.0786
23576W        W36990   8.172  12.319   5.383 -0.4816  0.0849 -0.2845
23577W        W36991   0.098   4.807   5.005 -0.0058 -0.1411  0.0299
23578W        W36992  16.404  14.079   0.325 -0.0229  0.1371 -0.2250
23579W        W36993  12.939  12.074   1.292 -0.1103 -0.0806  0.1724
23580W        W36994  12.929  14.374  13.524  0.1780  0.2080  0.0331
23581W        W36995  15.661   2.237   1.643 -0.2586  0.0119  0.2306
23582W        W36996   6.518   2.472   2.071  0.2598  0.1498  0.0104
23583W        W36997  11.200  12.636  15.605 -0.1475 -0.0036 -0.0241
23584W        W36998   5.739   1.199  13.691  0.0959  0.1174 -0.0282
23585W        W36999   7.696  15.603   3.907 -0.0153 -0.0156  0.0985
23586W        W37000   7.842   8.032   5.291 -0.0102  0.0913  0.0011
23587W        W37001   2.692  14.361  13.842 -0.0033  0.0749 -0.0289
23588W        W37002  17.173   0.600  16.331 -0.3154  0.0859 -0.1634
23589W        W37003  17.452   7.002   3.024  0.2796 -0.0517 -0.2180
23590W        W37004  15.477  10.595  10.908  0.2383 -0.0468 -0.0372
23591W        W37005   7.440   1.113   6.248  0.1870 -0.2131 -0.2074
23592W        W37006   7.879  14.862   5.131 -0.1149 -0.1796  0.3129
23593W        W37007  11.281   8.223   5.020 -0.1625  0.0323  0.0853
23594W        W37008  15.137   7.399   1.011 -0.3843 -0.0408  0.1878
23595W        W37009   8.685   2.080   1.004 -0.0219 -0.0827  0.2375
23596W        W37010   7.102  11.224  15.017 -0.2855 -0.0206 -0.1362
23597W        W37011  12.275   0.747  12.261  0.1784  0.1157 -0.1900
23598W        W37012  14.989   7.219   2.705 -0.1284 -0.0757 -0.1234
23599W        W37013  16.309  11.096   1.250 -0.1490 -0.1005 -0.1060
23600W        W37014  14.736   1.319  12.346  0.1395  0.2663  0.1374
23601W        W37015   4.388  14.220   3.556  0.0578  0.0014 -0.1325
23602W        W37016   0.726  13.255  10.898  0.0611  0.0890 -0.1893
23603W        W37017  17.138   1.311   3.620  0.2010 -0.1172  0.2154
23604W        W37018   2.979  16.220  11.957 -0.0487 -0.0214  0.2573
23605W        W37019   8.366   9.347  11.804 -0.0598 -0.1084  0.3378
23606W        W37020  13.975   1.330   2.818 -0.0230 -0.2006 -0.0755
23607W        W37021   4.950   9.469  13.226 -0.2822 -0.1227  0.0908
23608W        W37022  15.824  14.178   0.777  0.2405  0.1280 -0.1796
23609W        W37023  17.925   6.815   0.952 -0.1902 -0.0869  0.0071
23610W        W37024  11.145   5.928   5.335 -0.0176  0.2540  0.3056
23611W        W37025   6.595   4.761   4.241  0.0134 -0.1573 -0.0435
23612W        W37026   2.665  13.652   1.135  0.3002  0.0914  0.0067
23613W        W37027   0.868  11.478  12.312 -0.1324  0.5059 -0.0989
23614W        W37028   1.054  16.106   4.589 -0.2384  0.1770  0.2727
23615W        W37029   6.824   9.408  15.436  0.0925  0.0820 -0.2586
23616W        W37030  14.949   5.741   1.022  0.0328 -0.1107  0.0915
23617W        W37031   6.923  16.330   2.368 -0.1232  0.0320  0.1656
23618W        W37032   5.989   4.860  11.215  0.0878  0.3606  0.1236
23619W        W37033  11.913   9.645   0.948 -0.3909  0.0659 -0.1241
23620W        W37034  16.314   0.283  12.135 -0.0828  0.1120 -0.2202
23621W        W37035  15.485  12.589  12.430  0.1472  0.2194 -0.0555
23622W        W37036   5.900   4.967   0.539  0.0032  0.0367 -0.1580
23623W        W37037  14.399  12.197  12.805 -0.0438 -0.0696 -0.0093
23624W        W37038   4.152   2.704  16.404 -0.1650  0.0628  0.2472
23625W        W37039  14.650   3.224  14.863 -0.1108 -0.0004  0.2067
23626W        W37040  13.406   5.382  12.252 -0.0550  0.1805  0.0265
23627W        W37041   4.899   9.240   3.293 -0.1605  0.1641  0.1861
23628W        W37042  10.218  17.487  15.433  0.0964 -0.2191 -0.1261
23629W        W37043  13.541   3.158   3.293  0.0405  0.1542  0.0193
23630W        W37044  10.456  16.899  10.271  0.1604  0.1024 -0.0051
23631W        W37045   1.513  17.988   1.582 -0.3779  0.2440  0.0064
23632W        W37046   4.763   8.940  13.311 -0.0996 -0.0083  0.1297
23633W        W37047  13.066   4.018   0.147  0.1286 -0.1258  0.0712
23634W        W37048   8.127   1.877  13.603 -0.2697  0.0329 -0.1949
23635W        W37049   0.166  10.700   1.374 -0.0603  0.1754 -0.3130
23636W        W37050  11.321   5.366  14.109 -0.4000  0.1006 -0.0004
23637W        W37051   4.805  10.888  11.042  0.0445  0.2184  0.0063
23638W        W37052  12.449   5.092  14.763 -0.2191 -0.0867 -0.0600
23639W        W37053   9.962   7.464   2.279  0.1934  0.0494  0.1619
23640W        W37054  12.084   3.941  11.634  0.1970 -0.0248  0.0442
23641W        W37055  10.767  17.186   0.385 -0.0845 -0.0854 -0.0549
23642W        W37056   4.974   2.948   0.937  0.0487  0.0033 -0.0046
23643W        W37057  13.775  14.872   0.391  0.3721  0.1302 -0.1203
23644W        W37058   7.620   4.515  11.867  0.0436 -0.0772  0.0872
23645W        W37059   4.622   2.261  11.215  0.0727  0.1260  0.0463
23646W        W37060  17.124  12.145   1.485  0.0608 -0.2626 -0.3464
23647W        W37061  13.665   3.695  16.266  0.0648  0.1547 -0.2837
23648W        W37062   6.219   9.463   4.241 -0.2591 -0.0246 -0.1310
23649W        W37063   8.592  15.092   4.925  0.2130  0.1388 -0.0768
23650W        W37064   3.495  11.943   3.714 -0.3018  0.0581 -0.1412
23651W        W37065  15.313  15.808   3.094 -0.0259  0.1529 -0.0450
23652W        W37066   4.630   3.123   1.263  0.1538  0.1524 -0.2044
23653W        W37067   3.951   7.607  16.485 -0.3063  0.2423  0.1180
23654W        W37068   9.264   0.083   0.341  0.1451 -0.1246  0.0668
23655W        W37069  15.965  13.145   1.834  0.0558 -0.0358  0.1478
23656W        W37070  15.279  10.232   4.722  0.1524  0.2180  0.1940
23657W        W37071   1.496   7.781   2.693  0.0519  0.0120 -0.0111
23658W        W37072  12.374   4.540   1.902 -0.2421 -0.0233 -0.3931
23659W        W37073   2.599  13.529   4.173  0.1374  0.1080 -0.2489
23660W        W37074  13.707  11.696   2.202 -0.1258 -0.1064  0.2378
23661W        W37075   0.134   6.333   2.312  0.0536  0.1404  0.0906
23662W        W37076   7.584   6.076  13.466 -0.0863  0.0489 -0.3980
23663W        W37077   7.828  15.049  10.091  0.0543  0.1266  0.1194
23664W        W37078   9.874   6.027  14.958  0.4039 -0.0578 -0.1466
23665W        W37079   6.939   1.824   4.932  0.0692  0.2686 -0.1127
23666W        W37080  17.588   6.482   3.139  0.2094 -0.1276 -0.0967
23667W        W37081   9.610  16.362  11.856 -0.1376  0.3210  0.0670
23668W        W37082  10.831   0.044   1.305  0.0027 -0.1466 -0.2704
23669W        W37083  12.532   8.138  12.031 -0.0602 -0.3274  0.0551
23670W        W37084   8.488   1.268   1.358  0.1679  0.0689 -0.3078
23671W        W37085   3.898  10.116  15.575  0.3030 -0.2643  0.2122
23672W        W37086  17.773  16.255   1.872  0.0152  0.0726  0.0406
23673W        W37087   2.304   3.628  14.995  0.2877 -0.0877 -0.3126
23674W        W37088   7.641   6.255  15.225 -0.0836 -0.1948 -0.0565
23675W        W37089   1.281   4.009   0.268 -0.2158  0.0341 -0.0392
23676W        W37090  17.719  15.765  11.072  0.0427  0.0647  0.0942
23677W        W37091  17.389  11.909   0.631  0.0511 -0.3611 -0.0294
23678W        W37092   6.521   6.985   5.448 -0.0918  0.2743  0.0829
23679W        W37093  16.036  16.030  15.680  0.0777  0.0240  0.0965
23680W        W37094   2.744   7.986   6.197 -0.0554 -0.1090  0.2168
23681W        W37095  16.516   4.628   5.738  0.1186  0.0771 -0.0259
23682W        W37096   7.593  17.106  14.112 -0.1612 -0.1044  0.0401
23683W        W37097   6.792  16.158   1.924 -0.0402  0.0601  0.1472
23684W        W37098   6.250  14.982   0.196 -0.2099  0.0167  0.2123
23685W        W37099   4.213   5.433  11.368 -0.0462  0.0961  0.1444
23686W        W37100  15.954   8.583  11.372 -0.2250 -0.0791  0.0458
23687W        W37101  15.679   6.327  15.076 -0.1394  0.1412 -0.0698
23688W        W37102  14.452  16.754   0.993 -0.0081 -0.2847 -0.1092
23689W        W37103   4.685  14.495  12.345  0.0413 -0.0131 -0.0252
23690W        W37104  15.690  17.633   0.723  0.0887 -0.2207  0.2693
23691W        W37105   9.664   0.053  16.018  0.1261  0.0394 -0.2803
23692W        W37106   6.309  14.573   0.893 -0.0305  0.0771 -0.0156
23693W        W37107   5.546   9.259  14.715  0.0024 -0.0970  0.3098
23694W        W37108  16.703   3.710  15.021  0.1267  0.2528 -0.0417
23695W        W37109  13.604   7.098  15.139 -0.2668  0.4566  0.0456
23696W        W37110   4.572   0.052   5.914 -0.0941 -0.0697  0.0561
23697W        W37111   2.109  16.965   3.692  0.3088  0.0795  0.3767
23698W        W37112  16.139   0.264  14.070 -0.0979  0.1448 -0.1254
23699W        W37113  11.351  15.000   1.276 -0.1588 -0.0029 -0.1332
23700W        W37114   7.555   0.369   4.768  0.1385 -0.2271  0.0469
23701W        W37115   5.213   4.834  12.353  0.3742 -0.0926  0.3468
23702W        W37116  15.614  17.163  14.654  0.0998 -0.0037  0.0446
23703W        W37117  17.569   9.399   6.759 -0.1189  0.0810 -0.1061
23704W        W37118   2.958   0.549   2.814  0.0701 -0.3667  0.0518
23705W        W37119  17.635  10.957   0.004  0.0336  0.1891  0.1813
23706W        W37120   0.428  16.161   3.267 -0.0456 -0.0769  0.2227
23707W        W37121   1.225   2.896  11.708  0.1024  0.2175 -0.0977
23708W        W37122   5.372   1.142   0.346 -0.0395  0.1337 -0.2768
23709W        W37123  10.059  15.857   5.615  0.1348 -0.0248 -0.1660
23710W        W37124  11.052   2.574   5.977  0.0539 -0.1739 -0.0826
23711W        W37125   3.743   3.309   6.662  0.4183  0.2579 -0.0181
23712W        W37126   7.465  16.781  15.339 -0.0652 -0.1507  0.0186
23713W        W37127   0.594  16.561  15.099  0.1439  0.0201  0.1318
23714W        W37128   0.296  15.944  15.457  0.0041  0.1639  0.2033
23715W        W37129   7.523   4.467   3.800  0.0024  0.0546  0.0151
23716W        W37130  17.447  16.375   0.902  0.2936 -0.1551 -0.2381
23717W        W37131  12.271   9.796   4.794  0.3887 -0.1076  0.2235
23718W        W37132   3.305   4.920  16.031  0.0596 -0.0990 -0.0054
23719W        W37133  14.255   0.034   4.145  0.0227 -0.0390 -0.0787
23720W        W37134   3.295   6.461   5.533 -0.0718 -0.0623  0.0356
23721W        W37135  15.639  16.497  13.825 -0.0539  0.0563  0.2691
23722W        W37136  11.390  15.312  10.636 -0.0060  0.1526  0.3758
23723W        W37137  12.021  14.570  15.851 -0.1800 -0.0803  0.0332
23724W        W37138  10.983   2.012   4.837 -0.3329  0.0381  0.3985
23725W        W37139  14.763   4.107   4.646  0.1403 -0.0621 -0.1225
23726W        W37140   4.430   8.770   4.078 -0.0880 -0.2041  0.2923
23727W        W37141  15.851  14.054   0.279 -0.1917  0.1413  0.1327
23728W        W37142   6.126  13.257   3.134 -0.1008  0.0534 -0.2436
23729W        W37143  13.189   1.369   3.450  0.0502  0.0014  0.1292
23730W        W37144   0.639   5.191  12.564 -0.1283  0.4515 -0.0377
23731W        W37145   0.617   7.605   4.197  0.0002 -0.1175  0.0420
23732W        W37146   9.312  15.828   9.857  0.1585  0.0843 -0.0775
23733W        W37147  15.369   1.762  11.081  0.1995 -0.0104  0.1206
23734W        W37148  10.439  11.132  12.088  0.2518  0.1423 -0.0394
23735W        W37149  15.009  17.392  15.291 -0.0499  0.1872  0.1789
23736W        W37150   7.163   7.137   4.828  0.1261 -0.0729  0.1034
23737W        W37151  11.561   7.695   4.031  0.1589 -0.3197  0.2649
23738W        W37152  15.064  15.406   0.460  0.2713 -0.2679  0.1173
23739W        W37153   8.785  17.743  11.610  0.2123  0.4141 -0.0275
23740W        W37154   7.455  17.956  10.749 -0.3683 -0.4490 -0.1375
23741W        W37155   6.661  12.746  11.313  0.1004 -0.2663  0.1867
23742W        W37156  12.106  10.281  15.761  0.1644 -0.1062  0.4121
23743W        W37157   2.552  11.147   4.173  0.0539  0.0276 -0.0646
23744W        W37158   3.422   2.804   2.582 -0.0768  0.0112 -0.0466
23745W        W37159   2.589  10.806   3.593 -0.0533  0.1538 -0.1566
23746W        W37160  17.649   2.597   3.306  0.0469  0.1596  0.1886
23747W        W37161   9.031  16.943  12.667 -0.1520  0.0340  0.2506
23748W        W37162  12.906   2.202  14.990 -0.0406  0.1523 -0.1668
23749W        W37163   5.963   0.738  16.540 -0.1201  0.1678  0.4460
23750W        W37164   2.436  15.496  13.312 -0.2712 -0.2316  0.0421
23751W        W37165   1.178  10.872  10.766  0.0224 -0.1044  0.1344
23752W        W37166   9.762   7.677  14.319  0.0804 -0.2403  0.0299
23753W        W37167   8.951   9.139  13.200 -0.2442  0.3586 -0.1257
23754W        W37168  13.747   3.259   4.214 -0.2011  0.0621 -0.1674
23755W        W37169  13.768   8.736  14.638  0.0711 -0.0145 -0.2706
23756W        W37170   5.150  17.424  16.652  0.1795  0.1850  0.0619
23757W        W37171   7.100   7.554   1.456 -0.1297 -0.0668  0.0922
23758W        W37172  16.587  15.748  11.806 -0.1398 -0.1554  0.1346
23759W        W37173  13.797   4.317   3.426 -0.0063 -0.2012  0.0697
23760W        W37174   8.768   6.529  15.161 -0.2198 -0.0677  0.0817
23761W        W37175   8.877   8.368  16.674 -0.2204 -0.0857  0.1878
23762W        W37176   3.823   4.229   4.501  0.1143 -0.1012  0.2777
23763W        W37177  11.091   9.302  15.341  0.1003 -0.1435  0.2402
23764W        W37178   1.080  14.206  10.830  0.1461 -0.0213  0.2482
23765W        W37179   6.824  16.987  10.305 -0.1505  0.0285  0.1226
23766W        W37180   9.223   3.991   5.892  0.2277 -0.1251 -0.0469
23767W        W37181   4.816   0.356   4.802 -0.4851 -0.1941 -0.0117
23768W        W37182  13.863   6.103  16.084  0.4101 -0.2312  0.0774
23769W        W37183  14.016  16.860   1.279 -0.1348  0.1002 -0.3278
23770W        W37184   8.411  10.904   5.018  0.1494 -0.0049 -0.0667
23771W        W37185   7.156   1.216   3.220 -0.2744  0.1941  0.0676
23772W        W37186   0.734   4.818  11.452  0.0715 -0.1446 -0.1520
23773W        W37187   7.539   0.617   1.035  0.0352 -0.2566  0.1272
23774W        W37188  10.244  14.765  13.064  0.0792  0.1216  0.2309
23775W        W37189  15.926  15.807   1.719 -0.1739 -0.1152  0.0555
23776W        W37190   7.165  10.404   1.310  0.3919 -0.1469 -0.0648
23777W        W37191  15.691   5.390   0.993 -0.0035  0.0642  0.2692
23778W        W37192   2.458   5.153   3.380  0.0489 -0.0422 -0.2953
23779W        W37193   7.424  14.284  16.317 -0.2925  0.3432 -0.0427
23780W        W37194  14.582   1.690   4.988  0.2291 -0.0556  0.1908
23781W        W37195  16.852  11.749   1.604 -0.1104 -0.0169 -0.0327
23782W        W37196   7.462  16.304  11.775 -0.1400  0.0573  0.2475
23783W        W37197  14.374  13.418  14.203 -0.2458  0.1074 -0.2541
23784W        W37198   2.974  11.364  11.048 -0.2816 -0.1848  0.1916
23785W        W37199   0.019   1.943   5.824 -0.0596  0.2305 -0.2435
23786W        W37200  11.634  17.830  15.042 -0.0568  0.1890  0.2292
23787W        W37201  13.852   1.371  14.387  0.0678  0.1151 -0.4081
23788W        W37202   6.639  17.822   1.102  0.1435  0.0439  0.0072
23789W        W37203  17.397  13.992  14.127 -0.0702 -0.1665 -0.0113
23790W        W37204   7.645  11.318   5.179  0.1295 -0.2204  0.1660
23791W        W37205   9.507  14.326  15.199 -0.2895  0.0783  0.2744
23792W        W37206  11.943   6.875  12.167  0.0921 -0.2410 -0.2404
23793W        W37207   7.684   8.391   5.962  0.2140  0.1578  0.0187
23794W        W37208   9.163   3.324   0.422 -0.0370  0.0053 -0.1209
23795W        W37209   3.999  16.569  16.564 -0.2970 -0.1381  0.4872
23796W        W37210   5.805  15.771   1.973 -0.0380  0.0811 -0.3636
23797W        W37211  15.071  12.977  15.600 -0.0558  0.0401  0.0166
23798W        W37212  14.469   9.952  16.148  0.1024  0.0172  0.0785
23799W        W37213  17.049   7.764  13.772 -0.2259 -0.3180  0.0212
23800W        W37214   2.869   5.808   6.249  0.2154 -0.0731  0.1144
23801W        W37215  14.765   1.282  15.844 -0.1263 -0.0520  0.2560
23802W        W37216  17.002  12.958  12.546  0.1605 -0.0477 -0.4414
23803W        W37217   5.284  17.186  11.452  0.0516 -0.0879 -0.1609
23804W        W37218  16.072  11.480  11.907 -0.1850  0.0113  0.0842
23805W        W37219   0.596   9.164   5.817 -0.2048 -0.2236  0.2660
23806W        W37220   5.639   3.290   1.380 -0.1689 -0.0685 -0.0644
23807W        W37221   3.375   6.713  10.785 -0.0053 -0.3403  0.2376
23808W        W37222  16.407  14.551   2.612 -0.1593 -0.1286  0.0200
23809W        W37223   4.151  12.781   1.474 -0.1114  0.3434 -0.0662
23810W        W37224  11.830  10.287   1.198 -0.1857 -0.2127  0.2270
23811W        W37225  12.395   0.928  13.501  0.1640 -0.0152  0.0843
23812W        W37226  11.545   9.358   0.451 -0.1640  0.0110  0.1709
23813W        W37227  12.519   1.703   1.537 -0.2566  0.1914  0.1005
23814W        W37228   5.132   4.602  15.682 -0.2056 -0.0999 -0.0079
23815W        W37229   6.341  13.347  15.778  0.0953 -0.2667  0.0542
23816W        W37230  17.182   5.082   3.756 -0.2195 -0.0219  0.1287
23817W        W37231   3.293  15.621   4.305 -0.0642 -0.3904 -0.2127
23818W        W37232   8.189  12.368  10.323 -0.1785 -0.0606 -0.0063
23819W        W37233   0.944   7.805   1.744  0.1574  0.1272  0.3104
23820W        W37234   9.413  17.406   5.107  0.1124  0.0749 -0.0427
23821W        W37235  16.996  13.085   4.246 -0.1481 -0.3055  0.2134
23822W        W37236   4.873   3.238   3.171 -0.1511  0.0492  0.1099
23823W        W37237   8.496  15.810   5.685 -0.3429 -0.2176  0.2533
23824W        W37238   2.881   9.416   0.743 -0.1029 -0.0885  0.1738
23825W        W37239   1.998   9.927  15.700  0.0074 -0.0884 -0.0876
23826W        W37240  16.313   1.343  11.758  0.0272  0.1856 -0.0927
23827W        W37241  10.935   8.797  11.381 -0.0943  0.0355  0.2281
23828W        W37242   2.326   9.185   4.956 -0.0965  0.1570 -0.0847
23829W        W37243   5.907   7.077  16.502 -0.3255  0.2657  0.1936
23830W        W37244   6.363   5.599   0.967 -0.2300  0.3363  0.1367
23831W        W37245  16.650  13.254  12.348  0.1355  0.0248  0.0797
23832W        W37246   2.850  15.814  13.221 -0.0195 -0.1515 -0.1509
23833W        W37247   8.966  13.082  13.802 -0.0923 -0.2253 -0.0510
23834W        W37248   1.532  16.848   2.164 -0.0368 -0.1122 -0.0208
23835W        W37249   6.647   2.855   4.790 -0.4047 -0.2854 -0.1530
23836W        W37250   7.679   1.284   5.843  0.2427 -0.0858 -0.0923
23837W        W37251   6.394   1.465   1.068  0.0358  0.0456 -0.3733
23838W        W37252  15.668  13.152   1.320 -0.1005 -0.0392  0.0530
23839W        W37253   7.099  12.830   0.885 -0.3996  0.1796  0.2021
23840W        W37254   5.718   4.880   3.499 -0.0475  0.1848  0.1134
23841W        W37255   9.644  11.599  14.925 -0.0318  0.0036 -0.0542
23842W        W37256  12.763   4.246  16.465  0.4085  0.3586 -0.5532
23843W        W37257   2.649   9.776   2.499 -0.0652 -0.0834 -0.1307
23844W        W37258  10.153   0.516  15.457 -0.3383 -0.2194 -0.1931
23845W        W37259  11.813   1.757  13.215 -0.2532  0.1745 -0.1067
23846W        W37260   7.921  10.699   1.782  0.0141  0.0866  0.0561
23847W        W37261  10.665  11.708  13.054 -0.2608 -0.3411 -0.0695
23848W        W37262   0.146  10.797  13.219 -0.0528 -0.2145  0.1110
23849W        W37263  12.632  13.975   4.306  0.0963 -0.0660 -0.1232
23850W        W37264  13.169  11.904  12.144 -0.1528 -0.1514  0.1471
23851W        W37265   0.602   5.564  16.306 -0.0002 -0.0031  0.1584
23852W        W37266   3.133   8.773  14.883 -0.0048  0.0781  0.1588
23853W        W37267   3.326  11.553  14.483  0.1328 -0.0735  0.1219
23854W        W37268  15.151   4.026  16.452 -0.0529  0.3918 -0.2873
23855W        W37269  17.536   0.821  11.101  0.3074 -0.0535  0.0560
23856W        W37270   4.334   5.189   0.567 -0.2247  0.0493 -0.2991
23857W        W37271  12.234   5.102   2.806  0.0579 -0.0352  0.1735
23858W        W37272   0.754   8.961  11.467 -0.1753  0.1659  0.1838
23859W        W37273   0.637  11.474   1.098  0.0122 -0.1730  0.1625
23860W        W37274   2.499   3.312   5.983  0.0466 -0.2347  0.0154
23861W        W37275  12.450  17.656   0.662  0.0565 -0.2759 -0.1182
23862W        W37276   2.119   5.115   3.002 -0.0799 -0.0670 -0.0568
23863W        W37277  11.751  16.370  12.447 -0.2923  0.4140 -0.0165
23864W        W37278   5.001  17.983   0.008  0.1134 -0.1946 -0.2363
23865W        W37279  17.129  13.624  16.526 -0.1658 -0.5085 -0.1538
23866W        W37280  13.937  16.483   0.908  0.0075 -0.0662 -0.1844
23867W        W37281  13.782  13.194  12.218 -0.1564  0.3536 -0.1062
23868W        W37282  13.514   1.040   1.933  0.1200 -0.0887 -0.0159
23869W        W37283  17.528   1.751  15.042  0.1944 -0.1939 -0.1248
23870W        W37284   1.317  12.293   0.799  0.0035  0.2560  0.1740
23871W        W37285   8.808   3.463  10.882 -0.0889  0.1492  0.1196
23872W        W37286   4.650  15.440  11.620  0.0474  0.1845  0.1756
23873W        W37287  15.986  14.528  13.434  0.0476 -0.0755  0.0361
23874W        W37288   2.723   6.849  12.639  0.0800  0.0927  0.0567
23875W        W37289  12.334   3.635   2.404  0.0606  0.2757  0.1710
23876W        W37290   5.586  14.837   3.941 -0.1973 -0.0913  0.2609
23877W        W37291   1.736  10.799  16.507  0.4116  0.2263  0.0187
23878W        W37292   4.849   8.392  10.737 -0.0571  0.1316 -0.1729
23879W        W37293   4.024   4.235  11.148 -0.0500  0.2873 -0.2778
23880W        W37294  13.149  12.678  11.027  0.2172  0.1942 -0.3231
23881W        W37295  10.390   0.829   2.285 -0.0185 -0.1126 -0.0632
23882W        W37296  16.338   3.856  14.197 -0.1462  0.1778  0.1742
23883W        W37297  16.804   3.325   1.843 -0.1777  0.0580 -0.1614
23884W        W37298  15.182  15.672  15.958 -0.2019 -0.0702  0.1952
23885W        W37299  15.724   8.962  11.224 -0.0603 -0.2344  0.2789
23886W        W37300   4.613   9.122   3.697  0.1744 -0.3170 -0.1651
23887W        W37301   8.796   6.883   1.762 -0.0119  0.1519  0.1985
23888W        W37302   5.357   0.825   5.020 -0.1275 -0.1191  0.0568
23889W        W37303   6.038  13.970   5.527  0.0947 -0.0943 -0.0136
23890W        W37304   3.234   2.183   7.093  0.0627 -0.2603  0.0755
23891W        W37305   5.552  15.777  11.654 -0.2199  0.1662 -0.1141
23892W        W37306  17.083   8.864   5.562  0.0036  0.0896 -0.2062
23893W        W37307  10.319  14.246   4.965  0.2251 -0.0408  0.1842
23894W        W37308   1.861   6.380  11.824 -0.0364  0.1593  0.1370
23895W        W37309   0.320  10.344   1.757  0.2981 -0.0887  0.2194
23896W        W37310  17.482   8.377   2.427  0.0234  0.3247 -0.2301
23897W        W37311   5.516  13.354  10.481  0.3378 -0.3065  0.2616
23898W        W37312   5.756  15.362  11.297  0.0772 -0.1603 -0.1810
23899W        W37313  15.755  11.186   2.202 -0.0943 -0.1933  0.1183
23900W        W37314   6.702   9.772  13.171 -0.0099  0.3014 -0.1420
23901W        W37315   7.532  11.345   5.693  0.3340 -0.1638  0.3558
23902W        W37316   7.555   3.114  16.584 -0.4367  0.1388  0.2446
23903W        W37317   7.364  17.119   3.500  0.1396 -0.0240  0.2633
23904W        W37318  16.172  14.161  11.621 -0.0245 -0.0421 -0.2569
23905W        W37319  11.191  16.149   0.451 -0.1575 -0.2829  0.2318
23906W        W37320   5.474   8.129   3.903  0.0513 -0.3332 -0.2766
23907W        W37321   2.289  16.812  14.541 -0.3022  0.0049 -0.2094
23908W        W37322  16.655   2.957   5.816 -0.0421 -0.0510  0.1137
23909W        W37323   3.158  14.572   3.432 -0.2496  0.2256  0.1082
23910W        W37324  15.395  11.507   5.740  0.2920  0.2068  0.0651
23911W        W37325  16.946  17.430  12.523  0.3654  0.1271  0.0040
23912W        W37326   4.984  15.860   1.915  0.1735  0.1447  0.2455
23913W        W37327  11.684  14.447   0.390  0.0377 -0.0852  0.4287
23914W        W37328   1.771   4.642   1.236  0.0334 -0.1127 -0.0494
23915W        W37329   7.302  12.081   2.069  0.1904  0.1378  0.1316
23916W        W37330   2.729   2.381   6.349  0.1408  0.2739 -0.4159
23917W        W37331  15.448   2.048   2.431  0.1936  0.1304 -0.0896
23918W        W37332  17.905  14.020  15.437  0.2072 -0.1901  0.0464
23919W        W37333   7.586  12.154   1.657  0.1530  0.0729 -0.2720
23920W        W37334  10.438  16.479   5.723  0.0379  0.0721  0.0528
23921W        W37335   7.391  16.694  14.311 -0.0320 -0.0311  0.1310
23922W        W37336   4.394   4.737  16.411  0.0214 -0.1457  0.2094
23923W        W37337  12.100  14.314   2.322  0.1675 -0.1528  0.0317
23924W        W37338  14.479   6.467   1.595 -0.0482  0.3720 -0.0532
23925W        W37339  12.293  15.257   1.429  0.1892 -0.2197  0.2681
23926W        W37340  13.518  10.662   0.264 -0.3567 -0.1740 -0.1049
23927W        W37341   6.261   6.258  15.328  0.4579 -0.0186  0.2248
23928W        W37342   6.557  13.824  10.269 -0.2835 -0.1322  0.1797
23929W        W37343  13.857  16.753  16.236  0.2989 -0.0809  0.0311
23930W        W37344  15.002   2.648  15.263  0.1524  0.0712 -0.1828
23931W        W37345   7.450   6.041  14.132  0.1383  0.1302 -0.1571
23932W        W37346  10.841  15.676   0.506 -0.2409 -0.0023 -0.2141
23933W        W37347  13.922   8.161  11.050 -0.1982 -0.1207  0.0735
23934W        W37348  15.216   0.414   4.576  0.0071 -0.2501  0.0353
23935W        W37349   2.012   9.868  11.274  0.0793 -0.0288  0.0939
23936W        W37350  13.367   6.162   2.129  0.0351  0.0740 -0.1301
23937W        W37351   8.473   7.751  13.271 -0.3868  0.0788  0.0648
23938W        W37352  15.176   1.985   0.035  0.1820 -0.0253 -0.2906
23939W        W37353  14.283  11.844  12.479  0.2192 -0.0750 -0.0590
23940W        W37354   0.003   2.826  15.323 -0.1303  0.2128 -0.1073
23941W        W37355   3.684  13.364  11.808  0.0918 -0.0861  0.2981
23942W        W37356   6.132  14.479   5.552 -0.1331 -0.1732 -0.1243
23943W        W37357   9.211   6.812   4.766  0.1322  0.4344  0.2086
23944W        W37358  15.459  13.234   3.595  0.0024 -0.1067 -0.3296
23945W        W37359   1.012   5.698   0.979 -0.0093 -0.0981  0.0818
23946W        W37360  15.259   5.009   1.197 -0.0183  0.4291  0.1600
23947W        W37361  13.155   0.915   3.164  0.0480 -0.1671 -0.0025
23948W        W37362  14.934  16.525   4.754 -0.1152 -0.2536 -0.2314
23949W        W37363   8.606  13.378  14.378  0.2133 -0.0256  0.0632
23950W        W37364  10.169   6.928   3.933 -0.1898 -0.0970 -0.1394
23951W        W37365   1.153   3.568   1.920 -0.1005 -0.1717 -0.1936
23952W        W37366   4.074  11.250  13.885 -0.1903  0.0180 -0.3121
23953W        W37367  11.012  10.814   2.070 -0.2771  0.3272  0.0732
23954W        W37368  14.399  14.659   1.923 -0.2394  0.1937 -0.1442
23955W        W37369  12.569  15.596   2.405 -0.2168 -0.1014  0.2426
23956W        W37370   4.961   5.616  15.965 -0.1095 -0.1288  0.0426
23957W        W37371  15.373  16.437  10.988 -0.3538 -0.1266 -0.0637
23958W        W37372   1.138  15.627  16.158  0.0970 -0.2354  0.0866
23959W        W37373   4.959  16.964  14.687 -0.1433 -0.1965  0.1138
23960W        W37374   5.304   1.126  12.162  0.0443 -0.0197  0.1441
23961W        W37375   5.697  15.635   3.656 -0.1334 -0.2537  0.0650
23962W        W37376   3.459  10.187  14.630 -0.2393  0.0295  0.0747
23963W        W37377   0.355   5.752   5.628  0.1768 -0.1727  0.1558
23964W        W37378   7.823   8.968  14.748  0.1342 -0.1701 -0.1537
23965W        W37379  10.020   2.753   1.326  0.1623 -0.1374 -0.1948
23966W        W37380  17.282  17.639   6.013 -0.0210 -0.0271 -0.2159
23967W        W37381   6.986  10.403   6.758 -0.0701  0.0406 -0.2911
23968W        W37382  16.879   6.153  14.190 -0.0046  0.0973  0.1943
23969W        W37383  13.083  14.139  10.050  0.2695 -0.1336 -0.3003
23970W        W37384   8.331   1.476  10.533  0.1524 -0.1487  0.0797
23971W        W37385  14.837   7.911   2.433  0.0002  0.1231 -0.1805
23972W        W37386  16.660  11.452  12.040  0.0952 -0.1644  0.1696
23973W        W37387   8.354  15.079   1.809  0.0559 -0.0698  0.1042
23974W        W37388   8.830  11.837   2.392  0.1797  0.0527  0.1692
23975W        W37389   4.787   3.883   4.507  0.2264 -0.1952 -0.0646
23976W        W37390   1.078  11.883   4.836 -0.0652  0.0151  0.0686
23977W        W37391   1.436   5.449   2.010  0.0368 -0.1846  0.0264
23978W        W37392   6.581  10.456   4.062 -0.3235 -0.0428  0.2804
23979W        W37393   0.135  15.171  13.797  0.6392  0.0905 -0.2300
23980W        W37394  14.173  13.205   4.490 -0.2660  0.0431  0.2134
23981W        W37395   9.741  10.550  12.474 -0.3909  0.0116 -0.0291
23982W        W37396  14.340   6.942   6.070 -0.1491  0.4019 -0.1766
23983W        W37397   5.429   4.619   5.284  0.2267  0.1207 -0.2937
23984W        W37398  16.918   3.395   5.761  0.2814  0.2184 -0.3509
23985W        W37399   8.794  15.897  11.728 -0.1521  0.0822  0.1213
23986W        W37400  15.362  14.497   3.240 -0.1509 -0.1965  0.0435
23987W        W37401  14.158   2.930  15.861 -0.2777  0.1059  0.1607
23988W        W37402   7.769   2.205  11.032 -0.0723 -0.0911  0.1637
23989W        W37403   4.867  14.055   4.889 -0.0491  0.0197 -0.0352
23990W        W37404  16.513   9.360   2.220 -0.5076  0.1351 -0.2250
23991W        W37405   2.176  14.331   2.120  0.0775 -0.0317 -0.1396
23992W        W37406   0.970   2.258   1.618  0.0219 -0.2023  0.0089
23993W        W37407   3.255   4.902   2.865 -0.0553 -0.0486  0.0955
23994W        W37408   6.722  14.032  15.542  0.2425  0.2191  0.1222
23995W        W37409   1.893  14.464   2.985  0.0501  0.1282  0.1631
23996W        W37410   9.212   4.237   0.627 -0.0014  0.0559 -0.0388
23997W        W37411  10.262   7.512   1.322 -0.0313 -0.3278  0.0842
23998W        W37412  16.203  14.179   3.921  0.0582 -0.4456 -0.0429
23999W        W37413   2.214  14.261   3.369  0.2152  0.1903  0.1868
24000W        W37414  17.734   7.605  15.717  0.1368 -0.0395 -0.2267
24001W        W37415  12.498  16.999  10.216 -0.3134 -0.2757 -0.0491
24002W        W37416  11.965   2.355   0.855  0.3128  0.2896  0.1030
24003W        W37417  16.224   5.710   4.538  0.0816  0.0005 -0.0950
24004W        W37418   8.760  10.175   1.399 -0.0132 -0.2255 -0.2098
24005W        W37419   6.157   3.755  13.701  0.2450  0.1217  0.1878
24006W        W37420   0.404   5.438  12.859  0.1552  0.0511 -0.0668
24007W        W37421   3.900  14.956   3.711 -0.1411  0.1306  0.1359
24008W        W37422  10.510  13.959   0.718  0.0632  0.0130  0.1045
24009W        W37423   9.499  15.316   0.089 -0.2087  0.5483 -0.0122
24010W        W37424  14.887  12.174  15.120  0.1891 -0.3562 -0.1782
24011W        W37425   4.358   8.864  14.257 -0.0889  0.2088  0.1891
24012W        W37426   2.597   2.850   2.882 -0.1639  0.0522 -0.1466
24013W        W37427  14.952  12.366   2.920  0.0076  0.2639 -0.1640
24014W        W37428   5.838  15.350   5.880 -0.0626 -0.1697 -0.2868
24015W        W37429  13.929   0.952  11.915  0.0640  0.0056 -0.2358
24016W        W37430   7.371   6.963  13.961  0.0779 -0.0256  0.2446
24017W        W37431  12.132   3.538  14.577  0.1858 -0.3203 -0.0313
24018W        W37432  15.298   3.236   0.143 -0.3429 -0.0657  0.0997
24019W        W37433   2.208  16.611   1.132  0.0680 -0.4383  0.2777
24020W        W37434  10.041  15.027   0.025 -0.2997  0.0910 -0.0163
24021W        W37435  17.741   7.251   4.309 -0.2339 -0.1016  0.0361
24022W        W37436   6.109  12.541   5.794 -0.1967 -0.2695  0.0495
24023W        W37437  14.691  10.242  16.488  0.2697 -0.1178  0.0378
24024W        W37438   9.900   6.192  13.866 -0.1745  0.1539 -0.2500
24025W        W37439   8.742   5.910   2.834 -0.0089 -0.2381  0.1523
24026W        W37440  17.740   3.707  11.958 -0.0649  0.0347 -0.0403
24027W        W37441   5.906  10.728   6.092 -0.3142 -0.0604  0.0108
24028W        W37442  10.739  10.072  10.087  0.2915  0.0938 -0.1235
24029W        W37443   9.922  17.065  12.577  0.2543 -0.1972 -0.2855
24030W        W37444   4.712  13.958   0.002 -0.1461  0.3706 -0.0538
24031W        W37445   5.502   2.986  14.155 -0.0073 -0.2802  0.0099
24032W        W37446  13.777  17.497  14.934  0.1032 -0.0990 -0.1237
24033W        W37447  15.545  12.392   0.456  0.0521  0.3398 -0.0901
24034W        W37448  12.895  10.398   3.575 -0.2719 -0.1649 -0.1964
24035W        W37449  11.455   4.828  15.696 -0.1156 -0.2435 -0.0098
24036W        W37450  14.370  12.424   4.953 -0.0262  0.0319  0.0374
24037W        W37451   3.135  13.419  12.566  0.3107  0.0938  0.2585
24038W        W37452   7.488  15.091  15.380  0.3073  0.1496 -0.2093
24039W        W37453   5.784   7.559   1.385 -0.2107  0.3610  0.1675
24040W        W37454   2.766   6.471  11.478 -0.1526  0.0398 -0.2966
24041W        W37455   4.860   9.609   3.865  0.4020  0.2858 -0.2358
24042W        W37456   2.870  17.268  12.697  0.1118 -0.1506  0.0775
24043W        W37457   8.201  11.120  14.480  0.2387  0.1239  0.1719
24044W        W37458   4.903   2.047   5.802  0.1777  0.0446 -0.0412
24045W        W37459   3.020  11.438  12.372  0.0693  0.0712  0.1192
24046W        W37460   8.595   4.143  14.310 -0.0356 -0.1738 -0.0341
24047W        W37461  12.481  14.853  13.962  0.2008  0.2648  0.1357
24048W        W37462   3.616   9.230   5.154 -0.1517  0.1251  0.1547
24049W        W37463  16.032  11.366   0.584  0.1419  0.0888 -0.0357
24050W        W37464   6.259   2.600   1.663  0.1010 -0.1936 -0.0355
24051W        W37465  16.788   1.861   2.583 -0.2519 -0.0532  0.0639
24052W        W37466   7.015   7.082  11.042 -0.1976 -0.1052  0.0738
24053W        W37467  13.300  16.123   1.023  0.0788 -0.0468 -0.1308
24054W        W37468  10.972   4.401   1.950  0.1548 -0.2159 -0.1012
24055W        W37469   1.714  17.414   5.410  0.2830 -0.0018 -0.1265
24056W        W37470  16.243   8.333  13.871 -0.0190 -0.1483 -0.3108
24057W        W37471   2.827  13.725   0.612  0.0037  0.1071  0.0646
24058W        W37472   5.479  10.940   2.113  0.0782 -0.2520 -0.1620
24059W        W37473  12.289  17.152   5.125 -0.1301  0.2540 -0.0737
24060W        W37474  14.199   1.089  13.211  0.2753  0.2627 -0.0975
24061W        W37475   3.763  17.874   0.085  0.1283 -0.1052  0.0140
24062W        W37476   9.772  17.429  13.615 -0.0794 -0.2183  0.0982
24063W        W37477   9.267   3.741   5.454  0.0350  0.1696 -0.0826
24064W        W37478  10.018   1.318  10.588  0.0471 -0.0341 -0.1981
24065W        W37479  13.368  10.516  16.218 -0.1306  0.1756 -0.0533
24066W        W37480   1.203  13.986  14.134 -0.1481 -0.0934  0.0438
24067W        W37481   8.281  13.366  16.176 -0.0680  0.3574 -0.1870
24068W        W37482  14.341  14.337   3.565 -0.0251 -0.0705 -0.1195
24069W        W37483   8.885  14.859  12.033  0.1860  0.0533  0.1412
24070W        W37484   8.803  17.016  14.028 -0.0379 -0.4301  0.1409
24071W        W37485   3.309   6.720  13.552 -0.2658 -0.1075  0.1617
24072W        W37486  11.289   3.664   3.993  0.0819 -0.0619 -0.0308
24073W        W37487  11.986  14.222  11.538 -0.1568 -0.0159  0.0611
24074W        W37488  11.404  16.250   4.416  0.2474  0.0804  0.0063
24075W        W37489   8.260   7.803  12.243 -0.0039 -0.0690  0.1436
24076W        W37490   9.251  17.173   5.616  0.3917 -0.0651 -0.0375
24077W        W37491   9.333  16.432   2.576  0.3680 -0.1364  0.2218
24078W        W37492  15.379   5.730   6.074 -0.0422 -0.1646  0.0932
24079W        W37493   7.336   9.268   3.453  0.1840  0.0303 -0.0688
24080W        W37494  14.715  15.039  12.457  0.0656  0.5257 -0.2942
24081W        W37495   9.793   6.132  11.956  0.2607  0.0327 -0.0921
24082W        W37496   0.122   0.037   5.902 -0.0938  0.0594 -0.1105
24083W        W37497   9.086   7.941   0.134 -0.1161  0.0795 -0.1265
24084W        W37498  15.868   7.164  15.248 -0.2548 -0.1007  0.2202
24085W        W37499   4.953  15.600   3.039  0.0526  0.0997  0.2340
24086W        W37500   9.819   1.244   5.707 -0.3100 -0.0981  0.1446
24087W        W37501  17.791  13.969  13.663 -0.3328 -0.1229  0.1482
24088W        W37502   9.248  16.156  11.618  0.2491 -0.0128  0.0172
24089W        W37503   3.347  13.096  11.467  0.1023  0.0717 -0.3751
24090W        W37504   4.958  10.790   0.973  0.0694 -0.0351  0.3205
24091W        W37505  14.145  15.765   2.648 -0.2666 -0.1802  0.2810
24092W        W37506  16.781   3.175   3.224  0.0648  0.0309  0.1241
24093W        W37507   5.814   6.791   2.939 -0.0472  0.0150  0.3188
24094W        W37508   1.969   5.195   5.056 -0.0213 -0.2110  0.1505
24095W        W37509  10.745   2.280  13.907  0.2709  0.1669 -0.0627
24096W        W37510   0.646   1.399  14.354  0.1359  0.0433 -0.0260
24097W        W37511  10.064   1.725  14.992  0.2659  0.2152  0.0187
24098W        W37512  12.223  14.625  11.373  0.2652 -0.1399 -0.2462
24099W        W37513   8.767   3.768   5.627  0.0886  0.0050  0.1417
24100W        W37514   4.993   6.509   4.446  0.3164 -0.0157 -0.0905
24101W        W37515  16.600  10.058   0.147  0.0264 -0.1734 -0.1216
24102W        W37516  15.076   1.715  15.826 -0.0080  0.0627  0.0455
24103W        W37517  10.753  12.487   6.082  0.2656 -0.0133  0.0069
24104W        W37518   0.393   9.711  15.537  0.0209 -0.0826  0.2070
24105W        W37519   3.869  16.123   4.009  0.0598  0.0381 -0.1057
24106W        W37520  12.943  17.519  12.309  0.0685 -0.0394  0.0771
24107W        W37521  13.132  14.163   5.641 -0.1602  0.0346  0.2245
24108W        W37522  15.149  14.118   3.647 -0.2309  0.1423 -0.1090
24109W        W37523  15.392  12.619   1.344 -0.0382  0.3380 -0.2829
24110W        W37524  10.753   6.029  16.561  0.0374 -0.0641  0.0451
24111W        W37525  10.954  14.453   4.223 -0.0038  0.2583  0.4634
24112W        W37526  12.012   5.789   0.852 -0.0367 -0.3278 -0.2478
24113W        W37527   6.909  10.758  16.333 -0.2599  0.0602  0.2230
24114W        W37528  14.198  11.116   0.087  0.0808 -0.1561 -0.1897
24115W        W37529   8.891  13.350   0.378 -0.1157 -0.0888  0.2702
24116W        W37530   4.563   4.315   6.918 -0.0013 -0.0546 -0.1503
24117W        W37531   4.606  15.323   0.787 -0.0577  0.2382  0.0667
24118W        W37532   0.327  17.406   2.703 -0.2717  0.1101  0.1717
24119W        W37533  14.016  13.476   4.877 -0.0234  0.0632 -0.1901
24120W        W37534   2.669   9.401  12.659  0.2655  0.0815  0.0333
24121W        W37535   4.420   3.229  12.692 -0.1187 -0.1087 -0.1102
24122W        W37536   2.573   9.660  14.719  0.0721 -0.0507  0.1810
24123W        W37537  17.447   2.853  12.892  0.0755  0.2466  0.1702
24124W        W37538  12.362   9.929   0.220 -0.3053 -0.1170  0.0415
24125W        W37539   7.941  13.499   2.156  0.1859 -0.0940 -0.0643
24126W        W37540   0.638   3.592   1.944  0.3143  0.2702  0.2704
24127W        W37541  16.451   8.041   4.760 -0.1431 -0.0699  0.1571
24128W        W37542  12.236  15.268  13.107 -0.1557 -0.1249 -0.0558
24129W        W37543  12.755  15.529   0.063 -0.1028  0.1030 -0.2409
24130W        W37544   6.282   6.012  12.667  0.0451  0.2696 -0.2229
24131W        W37545  17.925  14.095   4.595  0.1398 -0.0396 -0.0230
24132W        W37546   4.167   0.650  15.487 -0.0593  0.2273  0.0715
24133W        W37547   7.710   6.293  16.691  0.1871 -0.0651 -0.0161
24134W        W37548   4.970  12.360  12.896 -0.0442  0.1841 -0.0388
24135W        W37549   9.711  16.146  12.942 -0.2726  0.4092  0.0972
24136W        W37550  17.272  10.348  16.037 -0.0249 -0.0844  0.0698
24137W        W37551  14.571  14.950   2.311  0.0328 -0.4365  0.0681
24138W        W37552   2.670   4.557  14.517  0.2267  0.0014  0.1537
24139W        W37553  10.925  11.780   1.270  0.3252 -0.1186 -0.3073
24140W        W37554   8.714  14.741  10.177  0.0525 -0.2020  0.1136
24141W        W37555  13.650  10.027   5.989 -0.1503  0.2588  0.1336
24142W        W37556   8.697   8.330   0.459  0.2045  0.2029 -0.0532
24143W        W37557   0.721   5.027   4.404  0.0272 -0.0497  0.0239
24144W        W37558  17.769   1.627  11.162  0.0319 -0.0711 -0.0456
24145W        W37559   3.514   1.232  14.952  0.1231 -0.2057  0.0592
24146W        W37560  17.382   4.836  13.693  0.1705 -0.1562 -0.1465
24147W        W37561  16.643   0.843  14.522 -0.1360  0.0663  0.0524
24148W        W37562   9.817   7.457  15.610 -0.0664  0.2871  0.1020
24149W        W37563  17.763  14.757   0.041 -0.0801 -0.1485 -0.1474
24150W        W37564   4.802   5.165  15.811  0.0700  0.2111 -0.1790
24151W        W37565   6.822   4.660   1.171 -0.1197  0.0271  0.0214
24152W        W37566   2.775   2.431  14.591 -0.0039  0.1502 -0.1593
24153W        W37567   0.086   2.878   4.934 -0.0290 -0.0056 -0.0133
24154W        W37568  17.450  16.906  13.588 -0.2609 -0.1382 -0.0924
24155W        W37569  16.348   8.162   0.490  0.1734  0.0320  0.4054
24156W        W37570   2.644   9.645  15.661 -0.0253  0.2048  0.1143
24157W        W37571   0.295  14.455  10.845 -0.1048  0.0661  0.0732
24158W        W37572  11.106   3.849   1.866  0.1205 -0.1436  0.0223
24159W        W37573   2.756  10.904  11.119  0.3278 -0.0535 -0.3203
24160W        W37574   0.014  16.611  11.127  0.2091  0.0761  0.0914
24161W        W37575   6.102   3.521   4.175  0.3099  0.0619  0.2274
24162W        W37576   6.648  16.386  15.275 -0.0742  0.0607 -0.2530
24163W        W37577   4.610   8.375  15.922 -0.0618 -0.2195 -0.1663
24164W        W37578   7.892   0.055  16.520  0.2725  0.1391  0.0029
24165W        W37579  14.242  10.547  11.732  0.2019 -0.1742  0.0766
24166W        W37580   6.771   7.916  11.253  0.2578 -0.3112  0.2017
24167W        W37581  10.200   1.949  16.554 -0.3532  0.1191 -0.4994
24168W        W37582  10.550   9.379   3.536  0.0695  0.2693  0.2305
24169W        W37583  12.181  11.028  12.263  0.0580  0.0773 -0.1766
24170W        W37584  13.841  12.996  11.714  0.3998 -0.0256  0.0162
24171W        W37585   4.783  15.475  15.682 -0.1430 -0.0250 -0.0893
24172W        W37586   6.672   4.526   2.519  0.2200  0.0633  0.2355
24173W        W37587   7.767   2.690  14.739  0.0481 -0.4161  0.3028
24174W        W37588  10.561  10.133  11.489 -0.0585  0.0694  0.1878
24175W        W37589  16.181  14.998  15.267  0.1221  0.0760  0.0963
24176W        W37590  16.701   9.175   6.592  0.1694 -0.1989  0.0426
24177W        W37591  15.346  10.863   1.479 -0.2248 -0.1426 -0.1951
24178W        W37592   3.186   5.735   0.658  0.2435  0.1262 -0.1699
24179W        W37593   5.515   7.102  16.070 -0.1611  0.1179  0.0473
24180W        W37594   5.937   3.524  11.774 -0.0145 -0.0068  0.0761
24181W        W37595   9.534  14.658   5.489  0.3744  0.1655 -0.0540
24182W        W37596   7.479  15.800   3.176 -0.3111  0.0894 -0.0628
24183W        W37597   4.611   0.934   4.213  0.0465  0.1748  0.0143
24184W        W37598  17.366  11.905   3.782 -0.1679 -0.3590 -0.0285
24185W        W37599  13.105   9.248  11.138 -0.0934  0.1324  0.3424
24186W        W37600   7.160   8.918  11.912  0.0049  0.1653  0.0660
24187W        W37601  13.968   4.309  15.115 -0.0765 -0.1726  0.0739
24188W        W37602  12.008   1.770  12.295  0.0745 -0.1423  0.1185
24189W        W37603   9.975  14.419  15.250 -0.0890 -0.0634 -0.0130
24190W        W37604   5.184  14.447  14.174 -0.1468 -0.1283 -0.2421
24191W        W37605   9.760   3.274   0.544 -0.1082 -0.1078 -0.0063
24192W        W37606  10.740   4.756   2.893 -0.2831 -0.0018  0.1458
24193W        W37607   3.648   8.992   0.874  0.1822 -0.0814 -0.2499
24194W        W37608   8.165   7.397  14.391 -0.3936  0.1537 -0.0110
24195W        W37609  10.941   9.941   0.905 -0.3993  0.1989 -0.0607
24196W        W37610  14.338   8.018  13.662  0.1668  0.2072 -0.3145
24197W        W37611  15.479  14.808  11.329  0.0485  0.0973 -0.0010
24198W        W37612  11.096   3.721  14.751  0.2363 -0.1937  0.3879
24199W        W37613   9.611  17.080  11.255  0.1255  0.0034  0.0279
24200W        W37614   5.650   0.695   4.098 -0.1303  0.0024  0.0177
24201W        W37615   1.311   0.895  14.660 -0.0616  0.1277  0.0676
24202W        W37616  14.955  16.278   1.712 -0.1703  0.0241 -0.2042
24203W        W37617  11.652   1.103  12.939  0.1286 -0.1099  0.1097
24204W        W37618   2.913   5.320   0.734  0.3119 -0.3313 -0.2222
24205W        W37619  15.039   4.624   6.052 -0.1547 -0.2267 -0.2291
24206W        W37620  13.757  13.920  14.668  0.0048  0.0553 -0.0383
24207W        W37621  17.450  14.708  16.271  0.1888  0.0259  0.0966
24208W        W37622   8.748   9.085  10.655  0.2774  0.0123  0.1363
24209W        W37623   0.697   7.907  15.135  0.1867  0.2502 -0.0479
24210W        W37624  11.707   4.652  13.527  0.1160  0.0426 -0.1431
24211W        W37625  14.106  10.460  15.340  0.0065  0.0235  0.0637
24212W        W37626  13.161   2.515  13.578 -0.1536 -0.2965 -0.0122
24213W        W37627   2.174  11.446   0.307  0.1369  0.1841 -0.3339
24214W        W37628   4.605   3.772  15.661 -0.0221 -0.0334 -0.1118
24215W        W37629   1.401   5.456  12.664  0.0167 -0.1538  0.0453
24216W        W37630  14.034   0.454  11.758  0.0027  0.1876 -0.2797
24217W        W37631   3.400  10.590  11.890  0.2520 -0.0811 -0.2900
24218W        W37632  15.610  12.059  13.658  0.1473  0.1414  0.0502
24219W        W37633   1.271  14.885   2.443 -0.2998  0.0583  0.0351
24220W        W37634  16.854   5.707   2.404  0.1191  0.4820  0.1167
24221W        W37635   7.337   4.089   0.207 -0.2342 -0.0042  0.1588
24222W        W37636   6.116  17.323   2.765 -0.0980 -0.0609  0.0948
24223W        W37637  15.903   1.066  14.939  0.2170  0.0021  0.1542
24224W        W37638   8.860  14.277  11.159 -0.0358  0.0313  0.1550
24225W        W37639   7.786   2.150   2.568 -0.0647 -0.0846 -0.0982
24226W        W37640   4.302   4.731   1.970 -0.1226  0.1634 -0.0767
24227W        W37641   5.066  14.226  16.370  0.1207 -0.3017 -0.1754
24228W        W37642   8.309   7.757  12.813 -0.0261 -0.1424  0.3396
24229W        W37643  15.682  17.133  12.137  0.1693 -0.0911  0.0203
24230W        W37644   6.222   0.972   3.449  0.2836  0.0133 -0.1168
24231W        W37645   5.343   3.680   1.447 -0.0517 -0.2046 -0.0750
24232W        W37646  14.326  12.775   3.679  0.0728 -0.1172 -0.1865
24233W        W37647  14.923   1.684   1.216  0.2217  0.1695  0.1603
24234W        W37648  10.470  16.899   0.102 -0.4222 -0.2022 -0.0577
24235W        W37649  16.854  16.534  11.493 -0.0108 -0.3473  0.1982
24236W        W37650   7.606   9.636   5.672 -0.0529  0.0099  0.2195
24237W        W37651  13.839   8.702   2.590  0.0737 -0.1103  0.2173
24238W        W37652   6.169  11.408   4.604 -0.1314  0.0722  0.0427
24239W        W37653  15.098   4.433  14.138  0.1150  0.1685 -0.2384
24240W        W37654   7.192   5.826   5.271 -0.1823  0.3122  0.0290
24241W        W37655   5.518  13.925  12.670 -0.1576 -0.1129  0.1887
24242W        W37656  10.140  15.860   1.288 -0.1485 -0.1310 -0.0730
24243W        W37657   9.802   1.981   2.572 -0.0669  0.2253  0.2260
24244W        W37658   6.355   0.372  15.415  0.1177 -0.0484  0.2416
24245W        W37659  16.819   8.404   6.817  0.0586  0.0263  0.0302
24246W        W37660   7.365  16.890   1.641 -0.3388 -0.0421  0.2972
24247W        W37661   0.049  12.416  15.496 -0.2429  0.0973 -0.0510
24248W        W37662  12.542  15.902  12.290 -0.0264 -0.3931 -0.0851
24249W        W37663   9.184  14.623   0.379 -0.2105 -0.1261 -0.2546
24250W        W37664  10.510   1.793   0.226 -0.0977 -0.0628 -0.0653
24251W        W37665   0.726  12.727   1.467 -0.0786 -0.2434 -0.1645
24252W        W37666   0.520   4.912  13.019 -0.3555  0.0779  0.0460
24253W        W37667   3.022   2.674   3.155 -0.2118  0.0141  0.3295
24254W        W37668  15.553  16.060  11.894 -0.3514  0.1720  0.0263
24255W        W37669  10.277   8.603  12.252  0.0226  0.0717  0.0038
24256W        W37670   5.347   7.736   1.165 -0.4360  0.4466  0.1005
24257W        W37671   9.429  15.955   4.348  0.2643 -0.0973  0.0446
24258W        W37672   6.404  13.893   5.071  0.2576  0.1467 -0.0078
24259W        W37673  12.331   3.261  13.280 -0.1126 -0.0612 -0.1483
24260W        W37674   7.137  11.680   5.549 -0.3196  0.0030  0.2039
24261W        W37675   3.059   1.141  15.118 -0.1851 -0.0782 -0.1849
24262W        W37676  10.170   3.512  15.167  0.0423  0.1339  0.1766
24263W        W37677   1.578   3.366   0.835  0.0917 -0.2346  0.0063
24264W        W37678  11.967  16.391   0.795 -0.1031 -0.1120 -0.2693
24265W        W37679  13.675   7.019  14.134  0.0071  0.0543 -0.0288
24266W        W37680   2.425   0.703  12.950 -0.0443  0.0852 -0.0634
24267W        W37681  16.515   1.908   1.387 -0.0423  0.0770 -0.3927
24268W        W37682   4.624  12.170   2.763 -0.1201  0.1827  0.2873
24269W        W37683  13.073   4.558  14.621 -0.0333  0.2991  0.0261
24270W        W37684  14.002   2.141  11.432 -0.0519  0.0077  0.2142
24271W        W37685   1.226  14.169  15.737 -0.2586 -0.0350  0.2718
24272W        W37686   4.801   8.786   5.137  0.1309 -0.5348 -0.1214
24273W        W37687   9.618  14.984   3.480 -0.0052 -0.1266 -0.0849
24274W        W37688  13.726   7.476  11.931  0.1920  0.1016  0.1010
24275W        W37689  16.136   1.991   3.688  0.2178 -0.0492  0.3537
24276W        W37690   2.176   0.081   3.987 -0.2657 -0.2134  0.0800
24277W        W37691   2.903  17.785  16.101  0.2692 -0.2155 -0.1478
24278W        W37692  13.957   3.192   3.647  0.1369 -0.2528  0.4004
24279W        W37693   9.899  10.808  15.051 -0.1141 -0.1582  0.0696
24280W        W37694  11.785   1.834   3.832 -0.1723  0.2212 -0.0087
24281W        W37695   4.751   7.728   3.039 -0.0728 -0.0457 -0.0432
24282W        W37696  12.261   7.835   0.666 -0.0043  0.1551  0.1177
24283W        W37697  11.834   7.263   2.325 -0.0978  0.0564  0.1474
24284W        W37698   4.537  17.169  10.894 -0.2482 -0.1637  0.1111
24285W        W37699  14.278  11.437   0.524 -0.0847 -0.0411  0.0652
24286W        W37700   1.491   7.254   3.866  0.0927 -0.0876  0.0908
24287W        W37701  17.324   1.866   2.103  0.1842 -0.2240 -0.0581
24288W        W37702   7.143  14.968  15.768  0.0566  0.2200  0.1524
24289W        W37703   6.916  16.673  11.877  0.0281  0.2130  0.0009
24290W        W37704   3.982  15.857   5.896 -0.2784 -0.0326  0.0111
24291W        W37705  16.968   9.902  11.299 -0.0631 -0.1272 -0.0168
24292W        W37706   2.754   9.812  15.162  0.4134 -0.2791  0.1239
24293W        W37707  10.166   4.798  14.951  0.2393  0.2531 -0.2093
24294W        W37708   2.640  15.940  12.701 -0.3655 -0.1381  0.0076
24295W        W37709  16.181  17.013   2.756 -0.1727 -0.2188 -0.2676
24296W        W37710   0.368   1.255   0.036 -0.0630 -0.3110 -0.0981
24297W        W37711  14.890   2.553   3.921 -0.1502  0.3031 -0.1294
24298W        W37712  10.763   0.352  15.119 -0.2218  0.3114  0.1641
24299W        W37713   7.757  13.045  14.232 -0.0465 -0.0348  0.0704
24300W        W37714  12.096  10.972  11.497 -0.0417 -0.1238  0.1677
24301W        W37715  17.619  17.152  16.654 -0.2179  0.0065 -0.0380
24302W        W37716  10.611   2.347   3.876  0.0472 -0.0117  0.1323
24303W        W37717   7.465  17.255   5.773  0.0616 -0.1421  0.1308
24304W        W37718   5.919   3.666  10.533 -0.1343 -0.2940 -0.0672
24305W        W37719   7.934   2.007  13.035  0.0049 -0.1266  0.1543
24306W        W37720   5.819  14.598  15.599  0.2162  0.1734 -0.2735
24307W        W37721   6.814   4.470  13.201 -0.0707  0.3039  0.2284
24308W        W37722  15.765   6.571   4.187 -0.2280 -0.0248  0.0478
24309W        W37723   2.791   0.609  15.731  0.0293  0.2236  0.0379
24310W        W37724   2.444  10.156  15.873 -0.1398  0.1456 -0.2137
24311W        W37725  10.059   7.587  10.789 -0.0468  0.0961 -0.1031
24312W        W37726   0.534   6.906  14.593  0.1855 -0.0547  0.0707
24313W        W37727   9.886   8.546  14.233 -0.1129 -0.0109  0.0833
24314W        W37728   6.156   7.671   3.617 -0.3249  0.1146 -0.0808
24315W        W37729  11.133   8.643  14.546  0.1299  0.0464  0.2821
24316W        W37730   5.336   2.801   6.144 -0.0912  0.0178 -0.1300
24317W        W37731  10.097  10.710  14.532 -0.1503  0.1068  0.0856
24318W        W37732   2.938  16.366   2.774 -0.0856  0.1184  0.0373
24319W        W37733   0.858  14.437  16.072 -0.1992  0.0314 -0.2120
24320W        W37734  18.023   1.925  12.785  0.1565 -0.2677 -0.0273
24321W        W37735   9.682   5.717   6.265 -0.0665 -0.0377  0.0916
24322W        W37736   0.640  13.421   0.193  0.0600  0.3965 -0.1651
24323W        W37737   5.134   5.532  15.472 -0.0154  0.1988 -0.0914
24324W        W37738  17.068  12.286  16.668  0.2058 -0.0238  0.0339
24325W        W37739   6.771   1.997  11.147  0.2395  0.2451 -0.2610
24326W        W37740  17.584   8.686   1.980  0.2057 -0.0253  0.2222
24327W        W37741   5.748  10.077  12.661  0.2647 -0.0102  0.1602
24328W        W37742   3.887  15.016  16.389 -0.0280  0.2518  0.2556
24329W        W37743   1.196  17.022  14.580 -0.0987  0.0191 -0.2759
24330W        W37744  14.076   4.835   6.105 -0.1199 -0.0560 -0.2119
24331W        W37745   8.083   7.928  15.970  0.2759  0.2587  0.1972
24332W        W37746   3.873   4.141   0.273  0.1695  0.1985 -0.2126
24333W        W37747  17.346   1.193   1.401  0.0794 -0.1354  0.2727
24334W        W37748   7.191   0.246  12.158 -0.4726 -0.2704 -0.1876
24335W        W37749   6.461  16.855   2.499 -0.2618 -0.0069 -0.1457
24336W        W37750  12.711   1.653   2.698  0.2468  0.0664 -0.0099
24337W        W37751  10.167  15.160  13.421 -0.1001  0.0578 -0.1073
24338W        W37752  17.567  12.571   0.067  0.0453 -0.1139  0.1457
24339W        W37753  10.758   0.712   1.945 -0.1998 -0.0980  0.2249
24340W        W37754   3.711   8.427  15.188  0.0509 -0.6118  0.0980
24341W        W37755  12.767  14.571   4.115  0.0265  0.0495 -0.0722
24342W        W37756   4.578  13.783  13.859  0.1940 -0.0058 -0.0812
24343W        W37757  12.297  15.140   3.254 -0.3633 -0.1417 -0.1460
24344W        W37758   7.730  14.449   5.394  0.3134  0.0254 -0.0489
24345W        W37759   6.830   9.505   3.383  0.1119  0.0199  0.0227
24346W        W37760  16.932   1.667  12.984 -0.1851 -0.1006 -0.1628
24347W        W37761   7.674  14.623  13.279 -0.0885  0.0578 -0.2595
24348W        W37762   5.398   4.453  14.738  0.0001 -0.0917 -0.0094
24349W        W37763   7.734  10.011   5.346  0.2408  0.3941  0.0428
24350W        W37764   6.241   7.443  13.048 -0.1497 -0.0798  0.0804
24351W        W37765   6.251  16.077   3.971 -0.1151  0.1019 -0.2496
24352W        W37766   6.523  13.862   5.559  0.0801 -0.0439  0.2689
24353W        W37767  16.111   2.346   1.428 -0.0726 -0.0745 -0.1271
24354W        W37768   4.790   5.648  13.609 -0.1353  0.0288  0.1759
24355W        W37769  14.152   5.805  15.161 -0.0378 -0.1335  0.0625
24356W        W37770   0.313  12.581  13.701 -0.0004 -0.2448  0.0949
24357W        W37771   4.738   5.970   1.572 -0.1419  0.0313 -0.2098
24358W        W37772   9.895   4.869  13.250  0.2090 -0.0989 -0.1816
24359W        W37773  13.329   8.202  15.224 -0.3108  0.1235  0.1825
24360W        W37774  11.743   4.408   3.978 -0.0631  0.1581 -0.2501
24361W        W37775   0.760  11.693  12.750 -0.2387 -0.0189 -0.1444
24362W        W37776  14.144   7.596   1.173 -0.1881 -0.0701  0.1702
24363W        W37777   1.278  10.472  13.336  0.2472  0.0928 -0.0188
24364W        W37778   7.503   0.555  10.111  0.3806 -0.0617  0.3639
24365W        W37779  10.340  15.121  16.294  0.0342 -0.2842  0.1083
24366W        W37780   5.270   1.954  16.171 -0.2073  0.1668 -0.0222
24367W        W37781  17.922  15.396  15.927  0.0391  0.4323  0.5190
24368W        W37782  12.326   9.417  12.775  0.1866 -0.3327  0.2729
24369W        W37783   1.984  14.457  16.082  0.0139 -0.2549 -0.0088
24370W        W37784  12.678   6.876  14.531 -0.1319  0.4080  0.0162
24371W        W37785  17.295   9.617  13.116  0.0959  0.2594  0.0026
24372W        W37786  15.066   3.441  11.697 -0.0178 -0.1235  0.0341
24373W        W37787   8.281   5.860  14.065  0.1278  0.2067  0.1239
24374W        W37788  11.923  16.554  11.626  0.0904  0.3014 -0.2702
24375W        W37789  10.139   1.844  10.396  0.1000  0.2509 -0.1292
24376W        W37790  11.710   0.473  10.789 -0.4412  0.0486 -0.1075
24377W        W37791  11.286  14.165  11.095  0.0866 -0.0408  0.6427
24378W        W37792   7.842   2.876   2.029 -0.2604 -0.1783 -0.1520
24379W        W37793  11.002   5.322  11.500  0.0083 -0.1340  0.0802
24380W        W37794   7.381  17.115  12.367  0.1292  0.2188  0.1798
24381W        W37795  15.628   1.802   6.451  0.0279  0.3547 -0.1339
24382W        W37796   2.515  16.874   3.320  0.1526  0.2580 -0.0364
24383W        W37797   8.137  11.323  12.994 -0.0625 -0.1012 -0.2591
24384W        W37798   2.174  16.091   3.464 -0.1189  0.0321 -0.0921
24385W        W37799   8.727   9.462   1.120  0.1457 -0.0272  0.0126
24386W        W37800   4.362  14.934   2.936  0.1276  0.2201  0.1975
24387W        W37801  12.907   6.524   1.488 -0.1167  0.0152 -0.0247
24388W        W37802   6.013   8.481  10.281 -0.0764 -0.1747  0.0739
24389W        W37803   0.980  16.112  16.229  0.0052 -0.0586  0.1428
24390W        W37804   7.573  12.758   2.776 -0.1907  0.1123 -0.2085
24391W        W37805   6.696  13.655  13.406  0.0857 -0.0466  0.1008
24392W        W37806   5.721  13.726   5.839 -0.4250  0.0214  0.2929
24393W        W37807   7.846   2.844  13.408  0.4934 -0.1028  0.1022
24394W        W37808   4.671   8.240  11.360  0.0496  0.1348 -0.1303
24395W        W37809   9.840   9.631   2.517  0.1175  0.0381  0.2943
24396W        W37810  16.708   5.631  14.066  0.2808 -0.2617  0.2607
24397W        W37811  11.307   8.288  11.427 -0.0903 -0.0174  0.0542
24398W        W37812  11.482  17.430  12.518  0.2364 -0.3316  0.3806
24399W        W37813  11.592   1.656  14.481 -0.1795  0.0705 -0.1566
24400W        W37814  11.780   2.077   3.300 -0.4069  0.0944  0.0781
24401W        W37815  13.444   5.526   2.570 -0.1676 -0.1902  0.2809
24402W        W37816   7.187   0.120   3.458 -0.3587  0.1906 -0.3238
24403W        W37817   5.303   9.609  10.949  0.0739  0.0547  0.0476
24404W        W37818   0.709   7.697   2.811  0.0026  0.1474  0.0687
24405W        W37819   2.157  13.598  10.657 -0.0023  0.0137  0.2250
24406W        W37820   9.950  11.961   0.515  0.1419  0.0223 -0.1684
24407W        W37821  12.119   8.436   4.789  0.2787  0.2139  0.0536
24408W        W37822  13.198   4.737   1.967 -0.1866  0.0843  0.1961
24409W        W37823   0.845   8.211   3.092  0.0562  0.0744  0.0136
24410W        W37824  15.829   5.351   3.366 -0.0556 -0.2948 -0.1984
24411W        W37825   2.714   1.861  16.309  0.2886  0.2155  0.2607
24412W        W37826   0.547   5.273   5.664 -0.2099  0.0733  0.3187
24413W        W37827   6.189  16.290  15.200  0.1504  0.1859  0.1703
24414W        W37828   9.335   1.101  14.136  0.1507  0.3807 -0.0185
24415W        W37829  14.334   0.501   4.431 -0.0521 -0.1235  0.0617
24416W        W37830  11.249   5.704   4.163 -0.0465 -0.3721  0.0317
24417W        W37831  17.704  11.489   0.103 -0.0540  0.0498  0.0622
24418W        W37832  11.326  17.495   2.529  0.0381 -0.0507 -0.0358
24419W        W37833   2.572  15.620   1.425 -0.3125  0.0495 -0.0113
24420W        W37834  17.811   8.056   1.136 -0.0952  0.0485  0.4048
24421W        W37835   7.525  10.134  15.376  0.1934  0.0432 -0.3518
24422W        W37836  17.179   7.250  11.550 -0.3130 -0.1787  0.0851
24423W        W37837   2.825  10.952  15.360  0.0438  0.3999  0.4273
24424W        W37838   1.223   6.586   1.145 -0.2517 -0.0753 -0.3680
24425W        W37839  17.809   1.253   2.267  0.4455  0.1854  0.0098
24426W        W37840   7.667  16.460   6.151 -0.0778 -0.3754 -0.3350
24427W        W37841  11.824  16.894  14.784  0.1001 -0.0769 -0.1624
24428W        W37842   2.504   0.240  12.060 -0.0773  0.1872  0.1844
24429W        W37843   7.989   2.390   2.152  0.2136  0.1901  0.1758
24430W        W37844  15.649   0.377  14.245  0.2526  0.1372  0.0482
24431W        W37845  17.124   0.051   0.819  0.1268  0.0740 -0.0055
24432W        W37846  13.066  16.903  13.066  0.0647 -0.2778  0.0020
24433W        W37847   0.373   1.219  16.191  0.0307  0.0640 -0.0144
24434W        W37848  14.599   6.518   5.993 -0.0646 -0.1269 -0.0278
24435W        W37849  17.437  16.303   3.546 -0.0821 -0.1240  0.0938
24436W        W37850   5.037   1.819  13.792  0.2768  0.1215 -0.2359
24437W        W37851  16.003  10.011   2.516  0.1828  0.0052 -0.0505
24438W        W37852   1.784  13.227   0.922  0.0380 -0.2374 -0.1874
24439W        W37853   1.081   0.644  16.424 -0.0570 -0.1713  0.0036
24440W        W37854  16.311  14.086   0.885  0.0175 -0.1739  0.0891
24441W        W37855   5.187  16.903   4.866 -0.1627 -0.2138  0.0697
24442W        W37856   5.763  16.485   0.797 -0.1939  0.1599  0.1500
24443W        W37857   2.295  14.356   1.091 -0.1131  0.2544 -0.2760
24444W        W37858   7.738   6.213   0.610 -0.0411 -0.2508  0.1969
24445W        W37859   4.957  17.504  12.131 -0.0512 -0.1091 -0.0106
24446W        W37860  14.926  10.143  14.064 -0.0060  0.1487 -0.0084
24447W        W37861   6.927   7.329   5.514 -0.1049  0.0401 -0.0550
24448W        W37862   7.282   0.670  16.024 -0.0173 -0.0397  0.1083
24449W        W37863  12.844  12.199  16.332  0.3074  0.0052 -0.0157
24450W        W37864   2.323   9.060   6.233  0.0619 -0.1596 -0.0700
24451W        W37865   0.881   2.606   3.682 -0.2627 -0.0821 -0.3651
24452W        W37866   9.762  16.234  16.624  0.2131 -0.4248 -0.0327
24453W        W37867  17.485  14.449   2.317 -0.0523 -0.0253  0.0120
24454W        W37868   7.921   7.998  12.567  0.0248 -0.3539 -0.0367
24455W        W37869  14.155  17.569  15.950 -0.3891 -0.1211  0.1735
24456W        W37870   6.269   7.691  13.629  0.2294 -0.0518 -0.2948
24457W        W37871  16.248   7.490  12.578  0.4013  0.1946  0.0834
24458W        W37872   7.623   0.687  14.751  0.0243  0.0649 -0.2729
24459W        W37873  13.494   1.337   5.743  0.1933  0.0575 -0.1026
24460W        W37874   0.622   4.140   4.758  0.1476 -0.5099 -0.1598
24461W        W37875   5.829  14.932   1.675  0.1218  0.1791 -0.2096
24462W        W37876  17.689   3.664  11.443  0.1777 -0.0929  0.0675
24463W        W37877   3.269   9.085   1.969 -0.1247 -0.1357  0.0992
24464W        W37878   0.503   1.335   2.015  0.1171 -0.0111  0.4549
24465W        W37879   1.231   9.581   3.127 -0.1156  0.2539  0.0217
24466W        W37880   8.840   3.123   1.444 -0.0759  0.0331  0.1862
24467W        W37881  18.006  16.799   0.778 -0.0557  0.1087  0.0724
24468W        W37882   6.456  12.439  16.282 -0.2981 -0.2170  0.0483
24469W        W37883  10.182   7.015   1.149 -0.2351 -0.0162 -0.0502
24470W        W37884  16.024   0.138  14.609 -0.1222 -0.0352 -0.0441
24471W        W37885  11.359  15.325   0.653  0.1376  0.3021  0.3151
24472W        W37886   1.084  15.167  12.899 -0.0373  0.1449  0.3599
24473W        W37887   2.726   1.992   6.108 -0.1463  0.2959 -0.2939
24474W        W37888   7.364  13.196   6.250  0.1642 -0.1728  0.1216
24475W        W37889  16.334   1.478   0.562  0.3294  0.0037  0.0448
24476W        W37890   5.459   9.808   2.852  0.1657 -0.0574  0.1467
24477W        W37891  12.360   0.179  12.684 -0.0230  0.3693  0.3087
24478W        W37892   5.345   7.953  11.751 -0.0578 -0.2192 -0.0533
24479W        W37893   0.134   8.234   5.406 -0.1950 -0.1669 -0.3428
24480W        W37894  14.605  18.045   1.688 -0.1225 -0.2491 -0.3853
24481W        W37895   8.127  11.353   2.745 -0.1761  0.2790  0.0275
24482W        W37896  15.746  11.264   1.240 -0.1777  0.0408 -0.2503
24483W        W37897   0.239  17.177   3.522 -0.2450 -0.2527 -0.2215
24484W        W37898  11.529   6.932   5.102  0.0883 -0.0748  0.0421
24485W        W37899   0.499   9.899  11.198  0.0522  0.0096 -0.4149
24486W        W37900  16.830   5.300   4.993 -0.1576  0.0458  0.2575
24487W        W37901  15.224  13.253  13.035 -0.0549  0.1359  0.0623
24488W        W37902   0.281   9.769  14.937  0.0883  0.0698 -0.2748
24489W        W37903   8.226  12.839  16.669  0.2284 -0.0216  0.0618
24490W        W37904  14.075  13.777  10.939  0.2277 -0.0660 -0.2114
24491W        W37905   9.273   2.453  14.372 -0.0675 -0.2341  0.1554
24492W        W37906  16.696   8.468  13.955 -0.0126 -0.3840 -0.0364
24493W        W37907   9.410  11.652   1.894 -0.0415 -0.0424 -0.0603
24494W        W37908   0.122  15.771   0.940  0.2211  0.3457 -0.1599
24495W        W37909   6.845  13.028  15.717 -0.0935 -0.1087  0.0442
24496W        W37910   7.054   6.673   4.201  0.3442 -0.0031 -0.1904
24497W        W37911  16.873   0.748  13.606  0.0882  0.3165  0.2672
24498W        W37912   5.141   0.671   0.149 -0.0183 -0.1079 -0.1381
24499W        W37913   1.536  11.296   3.860  0.2230 -0.4796  0.1329
24500W        W37914   4.152   1.720  12.875  0.1860  0.0467 -0.0594
24501W        W37915  12.859   7.314   1.215 -0.1333  0.1007  0.0043
24502W        W37916   5.349   1.149  15.035  0.1662 -0.1026  0.0348
24503W        W37917   3.967  14.461  15.531  0.1664  0.0616 -0.1881
24504W        W37918   7.511   0.438  10.744  0.0209  0.1937  0.4241
24505W        W37919   9.273   6.274   4.994  0.0097  0.3027  0.2341
24506W        W37920  14.400   5.811  15.585 -0.1351 -0.0293 -0.1148
24507W        W37921  17.484  11.155  12.688 -0.0740  0.0656  0.3239
24508W        W37922   4.318   0.606   0.480 -0.2084  0.1403  0.0171
24509W        W37923  17.132   9.693   5.330 -0.2274  0.2484  0.1673
24510W        W37924   8.585  13.089  10.940  0.0921  0.4635  0.2029
24511W        W37925  10.432  12.355  16.087 -0.0656  0.0963 -0.1396
24512W        W37926   2.311   0.028  13.707 -0.1951  0.3434  0.0343
24513W        W37927   7.968   3.910  10.492  0.0591  0.0210  0.1837
24514W        W37928  15.635  14.396   5.728  0.1355 -0.0772  0.4028
24515W        W37929   6.983  12.609  13.685  0.1427  0.1206 -0.2782
24516W        W37930  11.160   1.036  11.633  0.0825 -0.0359 -0.2141
24517W        W37931  13.950   8.751   4.903  0.1126  0.0478  0.0473
24518W        W37932   2.489  14.686  12.049 -0.1524  0.0297  0.0918
24519W        W37933   1.033   1.780   1.733  0.1296  0.1322 -0.2636
24520W        W37934   5.794   4.016  10.872  0.0169 -0.1445  0.1091
24521W        W37935  16.643   5.608   0.444 -0.1594 -0.0358 -0.2082
24522W        W37936  16.868  14.273   5.476 -0.0776  0.1059  0.2988
24523W        W37937  17.114  12.807   0.170 -0.4383 -0.0478  0.0618
24524W        W37938  13.764  16.352  15.554  0.1475 -0.1745 -0.1882
24525W        W37939  11.919   2.372   5.917 -0.1186 -0.0653  0.0203
24526W        W37940  17.377  16.742  14.403 -0.3122  0.4189 -0.0857
24527W        W37941  15.859  15.705  11.000  0.4549  0.1163  0.0919
24528W        W37942   4.127   3.490  16.566 -0.1220 -0.0778 -0.0127
24529W        W37943  11.812  10.289   0.237 -0.2316  0.2275 -0.4991
24530W        W37944   9.821  17.874  11.834  0.0850  0.0092 -0.1070
24531W        W37945  17.265  16.620  14.868 -0.4311  0.0414  0.1795
24532W        W37946  17.720   1.355  15.247  0.2518  0.1433  0.0104
24533W        W37947  17.459  11.236   1.230  0.2736 -0.2098 -0.0133
24534W        W37948  11.098  12.568   5.752 -0.2439 -0.1352 -0.0054
24535W        W37949   2.742  17.074  13.191  0.0504 -0.1295 -0.0346
24536W        W37950   4.670   9.178   1.420 -0.0780 -0.0087 -0.0333
24537W        W37951  14.262   9.485  16.059  0.2692  0.0959  0.5354
24538W        W37952  16.808   4.625   2.555  0.0881 -0.0870  0.0594
24539W        W37953   5.577   4.922  16.440  0.1173 -0.1523  0.1516
24540W        W37954   8.074  11.766   3.939  0.3421 -0.0089 -0.1640
24541W        W37955   1.812  12.717   5.115  0.1065  0.3258 -0.0177
24542W        W37956  12.914   1.697   3.720 -0.0053 -0.1420  0.1209
24543W        W37957   6.702   4.630  11.654 -0.3778  0.0884  0.0043
24544W        W37958   2.556  13.581  15.480  0.0050 -0.1502  0.1064
24545W        W37959   5.672  13.286   2.360 -0.0829  0.0121 -0.2236
24546W        W37960   8.674   4.367   0.726  0.0469  0.1755 -0.0836
24547W        W37961  11.051  13.985   0.877  0.2035  0.1379  0.1519
24548W        W37962  10.552   8.222  15.999  0.1533  0.0853 -0.2814
24549W        W37963  16.901  17.231  15.359 -0.0031  0.0702 -0.0194
24550W        W37964  12.780   2.695   6.194 -0.0243 -0.2532 -0.1013
24551W        W37965  10.645   7.046  15.058  0.0038 -0.1360 -0.0064
24552W        W37966   7.186   5.961  14.980  0.2021 -0.1727 -0.1278
24553W        W37967  14.978   1.285   3.546 -0.0909  0.1301  0.2291
24554W        W37968   8.020  14.438  11.133  0.3855 -0.0955 -0.2277
24555W        W37969   0.772  12.050   5.722  0.0721 -0.3775 -0.2824
24556W        W37970   8.053   8.544  14.812 -0.1589  0.0238  0.0866
24557W        W37971  14.102  13.236  13.510  0.0993  0.1844 -0.1113
24558W        W37972   7.775  16.826   3.442 -0.2074 -0.0489 -0.0076
24559W        W37973   3.639   6.234  16.480 -0.1634 -0.3796  0.2468
24560W        W37974   6.477  12.161  11.949 -0.1556 -0.1572  0.1199
24561W        W37975  11.603   0.792  13.731  0.1852  0.2739 -0.0136
24562W        W37976   9.789  10.286   1.182 -0.1398 -0.1114 -0.1858
24563W        W37977   2.784  16.272  16.212 -0.1028 -0.3003  0.0861
24564W        W37978  15.957   4.275   3.278 -0.0045 -0.0615  0.2012
24565W        W37979   8.106  10.501   3.759  0.0579 -0.4606 -0.0186
24566W        W37980   4.995  15.900  10.801 -0.0936 -0.0600 -0.0944
24567W        W37981  13.568  15.380   0.313 -0.1227 -0.3798 -0.1484
24568W        W37982  17.334   6.288  11.881  0.1889 -0.0061  0.2055
24569W        W37983   5.585  14.547   4.812 -0.0760  0.2259  0.1375
24570W        W37984   7.738   1.504  12.967 -0.1332  0.0058  0.0210
24571W        W37985   4.485  15.793  12.046  0.0734  0.1145  0.1148
24572W        W37986  16.549   9.837  10.586 -0.0755  0.1163 -0.0312
24573W        W37987  12.062   4.855  16.609  0.1625 -0.0957 -0.0337
24574W        W37988   1.423   0.432   4.369  0.1436 -0.0492 -0.0296
24575W        W37989  13.372  12.861  12.310  0.1510 -0.1506 -0.0041
24576W        W37990   5.263  14.950   2.503  0.1713 -0.1681  0.2275
24577W        W37991  16.210   3.054   2.025 -0.0994 -0.3073 -0.3077
24578W        W37992   9.419   6.828  14.939 -0.4650  0.2451 -0.1865
24579W        W37993   5.475  10.381  14.848  0.0858 -0.4136 -0.0196
24580W        W37994  15.696  12.701   3.564  0.1770 -0.3567  0.1108
24581W        W37995   0.625   0.880  12.411 -0.1470 -0.0846  0.0616
24582W        W37996   2.984  17.208  15.858 -0.1968  0.0583  0.2137
24583W        W37997   4.218  17.400  14.347  0.1850  0.2118 -0.0451
24584W        W37998  12.503  15.919  15.468 -0.0884  0.0710  0.1694
24585W        W37999  18.020  17.686  12.545  0.1120  0.1392  0.0446
24586W        W38000   2.894   0.964  16.618  0.0940  0.1961  0.0055
24587W        W38001   1.909  10.160   2.787 -0.1032 -0.0331 -0.0350
24588W        W38002  13.354   8.523   4.727  0.1385 -0.0564 -0.1011
24589W        W38003   6.652   3.171  12.671  0.1816 -0.0937 -0.1414
24590W        W38004  12.219   9.478   1.272  0.0636 -0.0221 -0.0226
24591W        W38005  11.587   6.390  11.804  0.1647  0.0703 -0.0984
24592W        W38006   8.579  12.485  12.942 -0.3352  0.0870 -0.0734
24593W        W38007   4.558  13.203  13.462 -0.1685 -0.0572 -0.0934
24594W        W38008   6.236  14.883  13.041 -0.1235  0.1119  0.0490
24595W        W38009   8.336  13.164   3.774  0.1536  0.1857  0.0251
24596W        W38010  10.135   9.800  13.371 -0.1760  0.2083 -0.0295
24597W        W38011   6.398   9.501   2.100  0.0221  0.2394 -0.0165
24598W        W38012  16.424   8.576   2.680 -0.2174  0.0115  0.0498
24599W        W38013  16.895   9.181  14.826  0.0698  0.2785 -0.0683
24600W        W38014   4.035  13.818  11.839  0.0473 -0.1240  0.3276
24601W        W38015   3.332  15.575  13.099  0.1467  0.0654 -0.2629
24602W        W38016   0.736   0.911  14.109 -0.1737 -0.1874  0.0330
24603W        W38017  16.358   1.920   4.958  0.2376 -0.1106 -0.1907
24604W        W38018   4.035   6.658  12.103  0.2877  0.0291 -0.1897
24605W        W38019  16.886   0.337   2.666 -0.0061  0.2035 -0.1558
24606W        W38020  13.288  10.902   1.185  0.0069  0.2865 -0.1610
24607W        W38021  10.733   3.959   6.029 -0.0513  0.1333 -0.0873
24608W        W38022  11.943   8.121  12.845  0.0276  0.4876  0.0221
24609W        W38023  15.495   7.227   3.599  0.1844 -0.1050 -0.0999
24610W        W38024   5.826   6.658   0.072 -0.0913  0.3511  0.0990
24611W        W38025  14.815  11.212  15.346  0.6893 -0.3755  0.0795
24612W        W38026   7.966  12.776  13.791  0.0170 -0.1076 -0.2312
24613W        W38027   9.419  13.262  16.370  0.0231 -0.2151 -0.5013
24614W        W38028  16.810   4.578  12.102 -0.0246 -0.1057  0.0780
24615W        W38029  14.700   0.538  16.557  0.2178  0.0464  0.0558
24616W        W38030  13.225   0.127   1.498  0.3165  0.1795 -0.2893
24617W        W38031  16.830   4.208  14.127 -0.0077 -0.0398 -0.2197
24618W        W38032   2.835  13.160   5.695  0.0503 -0.1922 -0.0882
24619W        W38033   1.130  13.147  15.748  0.4387 -0.0272  0.0983
24620W        W38034  10.636  17.081   3.996  0.2237  0.1844 -0.0284
24621W        W38035  10.067   5.040   0.984  0.0933  0.1117 -0.0084
24622W        W38036  11.208   8.308   0.502 -0.2425  0.1524  0.1052
24623W        W38037   3.773   4.234  16.041 -0.3913 -0.0080 -0.0823
24624W        W38038  13.629   4.703  15.583  0.1210 -0.1657  0.3245
24625W        W38039  10.793   7.125  11.074 -0.0303 -0.1034 -0.4290
24626W        W38040  11.673   8.929  13.121 -0.0146 -0.1946  0.0697
24627W        W38041  11.948  17.515  13.384 -0.0059 -0.3200  0.0377
24628W        W38042  14.126   7.446   6.019 -0.2691  0.0734  0.2468
24629W        W38043  10.404   4.470  15.321 -0.0927 -0.1752 -0.0567
24630W        W38044   1.329   0.234  14.600  0.3290 -0.0529 -0.3269
24631W        W38045   5.559   5.641   5.510  0.1005 -0.2540  0.1018
24632W        W38046   7.121  14.772   3.587  0.1627 -0.2171  0.1384
24633W        W38047  11.935   7.994  11.159  0.2619  0.0963 -0.1042
24634W        W38048   6.375  10.848   4.386 -0.1735 -0.1117  0.3430
24635W        W38049  17.231  13.191   2.371  0.2435 -0.1994  0.1262
24636W        W38050   5.215   5.612  13.381  0.0273  0.0502 -0.0877
24637W        W38051  12.847  12.602  12.461 -0.1412 -0.1019 -0.0750
24638W        W38052  11.097   2.253   2.166  0.1033 -0.0483 -0.2330
24639W        W38053   4.737  11.553   4.570 -0.1665  0.1006  0.1136
24640W        W38054   7.944  13.892  14.026  0.0871 -0.0190  0.1980
24641W        W38055   6.090   6.444   5.842  0.0824 -0.0710 -0.2276
24642W        W38056  15.705   5.323   0.438 -0.2386  0.0160  0.0924
24643W        W38057   2.768   3.851   1.383 -0.2659  0.0039  0.1542
24644W        W38058  11.289   6.382   4.619 -0.4219  0.2296 -0.2081
24645W        W38059   0.005   3.703   1.404  0.2197  0.0819  0.0274
24646W        W38060  10.355  10.163  15.553  0.1050 -0.3470 -0.3385
24647W        W38061   9.367  16.857  11.701  0.1653  0.0247  0.1891
24648W        W38062   3.389   7.077   0.274 -0.2863  0.1404  0.2427
24649W        W38063   1.519  12.631  14.218  0.2250 -0.1506 -0.0580
24650W        W38064   4.761  11.146   4.837  0.1137  0.0902  0.0724
24651W        W38065  10.670  10.784  15.819 -0.0855 -0.2641  0.0883
24652W        W38066  12.066  13.745   1.053  0.1016 -0.1345  0.0363
24653W        W38067  13.589   2.097  15.862  0.0252  0.0063 -0.0003
24654W        W38068   0.209   9.211  15.623  0.1686  0.0783 -0.1658
24655W        W38069  14.010   6.958  12.443  0.2753  0.2206  0.0080
24656W        W38070   9.291   6.132  13.848 -0.1638 -0.2019 -0.0428
24657W        W38071  12.972   8.180   2.541  0.0038 -0.2746 -0.3353
24658W        W38072   6.220   8.016  14.986  0.1128  0.1117  0.0778
24659W        W38073  14.678  15.083   0.296  0.0605 -0.1476  0.1129
24660W        W38074   5.100   1.639   5.185  0.2528  0.1938  0.0055
24661W        W38075  10.547  15.056  15.009  0.2636 -0.0919  0.3269
24662W        W38076  15.640  10.135  11.866  0.1220 -0.2580  0.2750
24663W        W38077  10.683   1.090   3.322 -0.1692  0.3240 -0.3322
24664W        W38078  12.217   8.829  10.151  0.0825  0.0870 -0.0814
24665W        W38079   3.209  17.447  13.703 -0.1366  0.1555  0.1448
24666W        W38080  16.470   9.994   3.923 -0.0028  0.3343  0.1439
24667W        W38081   6.658   5.034  14.883 -0.3885  0.1691  0.3025
24668W        W38082   4.807   6.806   4.081  0.1302 -0.3643 -0.1443
24669W        W38083   6.341   6.977   3.711  0.0184  0.3013  0.0103
24670W        W38084   5.182  14.421  10.959 -0.1797  0.4542 -0.1071
24671W        W38085  11.684  10.343  14.425  0.1071  0.1256 -0.0915
24672W        W38086   8.669   8.026   0.921  0.0605 -0.0166 -0.1515
24673W        W38087   2.327  17.447   6.235 -0.1090 -0.2684 -0.2514
24674W        W38088   8.781  14.762   3.307  0.0231  0.1555 -0.0539
24675W        W38089   9.050   6.989  13.559  0.0862  0.0952 -0.0243
24676W        W38090   0.074  10.061   3.596  0.1761  0.1637  0.0014
24677W        W38091  14.114  10.360   0.692 -0.1439  0.1913 -0.0461
24678W        W38092  10.953   2.874  14.471 -0.2799  0.0582 -0.0822
24679W        W38093  13.809   3.743  11.846  0.1775 -0.2026 -0.1033
24680W        W38094  13.127  15.370  11.997 -0.1507 -0.1222  0.0802
24681W        W38095  17.295   7.745  15.430 -0.0490  0.0676  0.1742
24682W        W38096   4.223  15.491  16.415 -0.1438 -0.0084  0.1459
24683W        W38097   4.904  10.422  11.872  0.1020  0.0375 -0.1745
24684W        W38098   5.861   3.422   4.575 -0.0432  0.0838 -0.0487
24685W        W38099   5.013   7.671   0.770  0.0718 -0.0071 -0.4053
24686W        W38100   6.104   1.568   2.151  0.0269  0.4038  0.0945
24687W        W38101   8.698   2.897  10.411  0.5297  0.0959 -0.2002
24688W        W38102   3.253   6.419   1.142 -0.1388  0.2004  0.0066
24689W        W38103   3.264   4.082   3.444 -0.1960 -0.5037 -0.4274
24690W        W38104   8.323   3.180   4.170  0.0126 -0.1894 -0.2080
24691W        W38105   0.959  10.772   4.170 -0.3159  0.2642  0.1981
24692W        W38106   8.086  15.982   5.914  0.0219 -0.2868 -0.0437
24693W        W38107  14.728  13.735  16.211 -0.0743 -0.0508 -0.2839
24694W        W38108  11.358  15.038  12.553 -0.0391 -0.2653 -0.3156
24695W        W38109   0.265   3.507   2.973 -0.1177 -0.1105  0.0608
24696W        W38110  14.961  14.604   2.240  0.2551 -0.0696 -0.0428
24697W        W38111  16.868  14.986   6.182  0.1026 -0.1283  0.2546
24698W        W38112  12.996   4.287   5.152  0.0790 -0.0739  0.1304
24699W        W38113   4.671  15.572   2.235  0.1183 -0.3065  0.0186
24700W        W38114  10.596   6.624  13.343 -0.0995  0.0685  0.3116
24701W        W38115  17.542  16.782   4.884  0.0251 -0.0330 -0.1388
24702W        W38116  15.787  11.268   5.403  0.1156  0.1186  0.0314
24703W        W38117  15.029   0.551   2.380  0.2876 -0.0053 -0.1009
24704W        W38118  14.390  12.784   2.690  0.0906 -0.0274 -0.2250
24705W        W38119  17.145   8.254  13.800  0.0611 -0.0180 -0.0432
24706W        W38120   6.090  17.909  14.528 -0.2391 -0.2981  0.1327
24707W        W38121   3.672   0.307  16.153  0.1013  0.2336  0.1692
24708W        W38122   6.551   6.636   4.099  0.3003 -0.0611  0.0789
24709W        W38123   6.010  11.160   0.429 -0.4171  0.3022 -0.0333
24710W        W38124   8.130  15.790  15.594 -0.3411 -0.0088 -0.1085
24711W        W38125  15.187  11.226  14.189  0.1449 -0.2041  0.1373
24712W        W38126  15.557   7.973   4.044 -0.1030 -0.1641  0.0197
24713W        W38127   6.264   6.194   3.837 -0.0368 -0.0361 -0.0069
24714W        W38128  12.545   1.305   5.855 -0.0947  0.2045 -0.0779
24715W        W38129  16.782   0.737   6.403  0.0670 -0.1089 -0.1802
24716W        W38130  14.781   9.415   2.335  0.2660  0.0073 -0.1202
24717W        W38131   2.516   1.384  16.344 -0.2726 -0.1841  0.0320
24718W        W38132   4.996   0.584   4.203 -0.0928  0.1822  0.2662
24719W        W38133  17.970   7.690  11.761 -0.0613  0.0477 -0.1127
24720W        W38134  13.565   8.601   0.195 -0.0390  0.0182  0.1660
24721W        W38135   2.776   8.832  13.828  0.2993  0.1003 -0.0802
24722W        W38136   7.155   9.665   3.079 -0.1895 -0.0704 -0.0214
24723W        W38137  16.660   4.679  15.346 -0.2237  0.0953  0.1310
24724W        W38138   9.423  13.000  11.371  0.0619  0.1207 -0.0890
24725W        W38139  14.447   7.012  14.752 -0.0379  0.1273 -0.1318
24726W        W38140  10.572   9.760   0.387 -0.0660 -0.1800  0.1560
24727W        W38141  11.815   7.765   1.865 -0.1440  0.0611 -0.1113
24728W        W38142   6.673   3.031  13.135  0.4088 -0.0144 -0.2840
24729W        W38143  10.812   4.796   4.002  0.0553  0.2602  0.0717
24730W        W38144  13.307  10.321  12.594 -0.1842 -0.0560 -0.0227
24731W        W38145   3.046  16.709   3.450  0.0247 -0.0703 -0.0494
24732W        W38146  12.937   1.372   0.390  0.2077 -0.2378  0.1155
24733W        W38147   3.516   3.954  16.374 -0.0766 -0.3184 -0.1555
24734W        W38148  17.063  12.012  11.125 -0.1035  0.0269 -0.2204
24735W        W38149  13.114   8.046  12.724 -0.1149  0.1499  0.1487
24736W        W38150  13.056   1.625  15.135  0.0697 -0.1254 -0.3238
24737W        W38151   2.759   6.820  15.291 -0.1709 -0.1159 -0.0039
24738W        W38152   9.853  17.873   1.391  0.0312  0.0696 -0.1711
24739W        W38153   2.263   3.557  12.412 -0.1272  0.5101 -0.1933
24740W        W38154   1.932   4.550   0.228 -0.2572  0.0750 -0.0666
24741W        W38155  10.873   6.223   1.149  0.0663 -0.2908 -0.0488
24742W        W38156  15.647   9.331  12.536 -0.1493 -0.0122 -0.3696
24743W        W38157   4.765   9.425  11.077 -0.2885 -0.2075 -0.1317
24744W        W38158  10.699  13.270   2.897  0.1632 -0.1504 -0.1120
24745W        W38159  13.460   2.851  15.411  0.2064 -0.0270 -0.3616
24746W        W38160  17.007   7.508  16.428 -0.3627 -0.2572 -0.1246
24747W        W38161   4.813   2.620   5.432  0.0695 -0.1187 -0.0325
24748W        W38162   8.354   8.345  16.552 -0.0271  0.1031  0.0073
24749W        W38163   3.663  15.489  11.129  0.2653 -0.3778 -0.1768
24750W        W38164  13.557   2.465  14.483  0.1237 -0.1236 -0.1700
24751W        W38165  12.510   6.853   0.364  0.1245  0.0064 -0.0104
24752W        W38166  13.747   2.739   3.511 -0.1089 -0.1400 -0.1889
24753W        W38167  15.663  10.501   1.671  0.0189  0.1950 -0.0089
24754W        W38168  15.584  14.562  13.021  0.2198  0.1886 -0.3170
24755W        W38169   3.746   0.915   2.153 -0.0526  0.1681  0.0220
24756W        W38170  17.512  15.378  12.800  0.0457 -0.0165 -0.2738
24757W        W38171  17.842   6.945  15.112 -0.1599 -0.0055 -0.0947
24758W        W38172  11.408   5.226   0.457  0.1171  0.0610 -0.0897
24759W        W38173   2.234   3.922  15.863 -0.0123  0.1280  0.0810
24760W        W38174  11.454   6.394   5.068 -0.3282  0.0482 -0.3848
24761W        W38175  17.777   6.571   1.923  0.1474  0.0210 -0.0747
24762W        W38176   6.576   5.449   0.153  0.2186  0.2948  0.1031
24763W        W38177  12.332   3.295  10.288  0.0745 -0.0774  0.1324
24764W        W38178   5.145   8.131   2.057 -0.2440  0.0579 -0.0097
24765W        W38179  12.022   7.527  11.424  0.1970 -0.1801 -0.0916
24766W        W38180  12.389   1.127  15.718 -0.0837 -0.0159 -0.2554
24767W        W38181   7.200   1.925   0.174  0.4314  0.0350 -0.0799
24768W        W38182   9.800   9.476   1.445 -0.1788  0.0349  0.0285
24769W        W38183   6.046  11.428   6.634  0.1220  0.3092  0.0137
24770W        W38184  14.489   0.389   1.146  0.0764  0.2600 -0.0587
24771W        W38185   3.183  12.917  14.355 -0.0985 -0.0122  0.1471
24772W        W38186  17.187   4.572   4.991 -0.1986  0.0554 -0.1855
24773W        W38187   0.766  10.380  16.230  0.3927  0.2998 -0.0079
24774W        W38188  10.579   6.274   4.232  0.0929 -0.2256 -0.0750
24775W        W38189  14.715  11.109  14.318 -0.1518 -0.0797 -0.0810
24776W        W38190   0.848  17.062   2.832  0.3824 -0.2059  0.1806
24777W        W38191   0.411   4.732  14.741  0.0078  0.1683 -0.0311
24778W        W38192  12.819   4.520  11.960 -0.0983 -0.2217 -0.2154
24779W        W38193  14.056   2.737   2.128 -0.3004 -0.0921  0.0020
24780W        W38194   2.562  10.099   5.279 -0.1738  0.1169  0.2349
24781W        W38195   3.599  16.638   5.636 -0.0592  0.0325  0.1463
24782W        W38196   2.966  10.010  11.108  0.3938  0.2106  0.1140
24783W        W38197  12.746   4.058   1.294 -0.1051  0.0373  0.0400
24784W        W38198  11.921   0.180   1.966 -0.1718 -0.1765 -0.2325
24785W        W38199  15.567   6.998  16.178 -0.0598 -0.1035 -0.0238
24786W        W38200  13.332  12.871   3.966 -0.3577  0.4241 -0.1795
24787W        W38201   4.428   6.490   4.205  0.0358  0.0639 -0.0390
24788W        W38202   5.815   9.360  13.086 -0.0194  0.0055  0.1549
24789W        W38203   2.356  16.201   6.146  0.1270  0.1364 -0.2484
24790W        W38204   5.048  12.242  15.750 -0.1381 -0.2180 -0.0324
24791W        W38205  12.354   3.273  15.941  0.0629 -0.2433 -0.0211
24792W        W38206   0.843  13.324   1.322  0.0678  0.0863 -0.1804
24793W        W38207   4.621   6.494   5.232  0.2706 -0.1439  0.0294
24794W        W38208   5.501   4.038  14.364 -0.0518  0.0701 -0.1291
24795W        W38209   4.103  15.104  15.097 -0.1682  0.1007  0.0492
24796W        W38210   6.514   9.773  15.303 -0.0769 -0.1696 -0.2922
24797W        W38211   5.502   0.545  16.416 -0.1848 -0.1371  0.4848
24798W        W38212   5.556  11.356   0.545  0.0888  0.0154 -0.1943
24799W        W38213   8.612   6.135   3.300 -0.0900 -0.0115 -0.2586
24800W        W38214  11.313   9.578   2.256  0.0718  0.0152  0.0852
24801W        W38215  15.064   1.391  11.881  0.0743 -0.1922 -0.1947
24802W        W38216  16.890  12.838  10.653 -0.0467 -0.0378  0.2002
24803W        W38217   2.434   8.659   4.909 -0.0616  0.1794 -0.0612
24804W        W38218   7.153  11.635   2.230 -0.0695  0.1911  0.4549
24805W        W38219   8.397  14.300  11.909  0.0546 -0.1131  0.4578
24806W        W38220   0.901  12.272  15.232  0.3988  0.1329 -0.3518
24807W        W38221  14.565   0.658  13.171 -0.0304 -0.1257  0.0946
24808W        W38222   3.610   5.791  10.875  0.1387  0.3142 -0.2333
24809W        W38223   3.597  15.111  10.758 -0.1041  0.1612  0.0938
24810W        W38224  11.271   9.820   3.212 -0.3665  0.1310  0.1441
24811W        W38225   8.316   3.381  14.741  0.1763 -0.2351 -0.0306
24812W        W38226   7.417   4.087  15.888 -0.0792 -0.2270 -0.1155
24813W        W38227  13.663  16.887  15.718 -0.2014  0.1696  0.2375
24814W        W38228   9.885   6.737  13.756  0.1070 -0.2353  0.1642
24815W        W38229  15.579  14.605   0.883 -0.0016 -0.0207 -0.0737
24816W        W38230   4.423   9.389   0.201 -0.0767  0.1849 -0.0884
24817W        W38231   0.210  12.734   1.345 -0.1691 -0.0469 -0.2848
24818W        W38232   9.249  17.898  16.244  0.1207  0.0667  0.1526
24819W        W38233   1.417  14.059  11.681  0.0919 -0.0358  0.1904
24820W        W38234   6.030  12.083  13.185 -0.2138  0.2947 -0.0621
24821W        W38235   8.552   4.345  12.305  0.3529 -0.1581  0.0563
24822W        W38236   6.415  16.465  14.824  0.3769  0.1699 -0.2039
24823W        W38237  16.227   8.792   1.821 -0.1349 -0.1166  0.3054
24824W        W38238   6.393   5.274  11.171  0.1638  0.1061  0.0141
24825W        W38239   4.155  15.354   2.843 -0.2110  0.2201  0.0907
24826W        W38240  16.509  17.875  12.323 -0.0244 -0.1020  0.1263
24827W        W38241  15.646  15.512  12.697 -0.0871  0.0573 -0.1399
24828W        W38242   1.363   6.009  12.629 -0.2884 -0.4048  0.0863
24829W        W38243  12.696  18.013   1.505  0.1381 -0.1350 -0.0761
24830W        W38244   6.784  15.084  16.549 -0.0160 -0.1967  0.0808
24831W        W38245   0.882  13.437  14.719 -0.0642 -0.2954  0.1593
24832W        W38246  16.529  17.529   1.502  0.4656  0.0609 -0.0437
24833W        W38247   1.231  15.853  12.081  0.2331  0.1811  0.0453
24834W        W38248   8.882   0.180  11.486  0.1513  0.2123 -0.0326
24835W        W38249   5.412  10.299  15.361 -0.0530  0.0563 -0.2490
24836W        W38250   6.738   2.464  13.098 -0.2224  0.2395  0.0670
24837W        W38251   5.024   7.706  13.126 -0.1508  0.2701  0.1758
24838W        W38252  14.260   0.783  11.121 -0.1232  0.1590 -0.0572
24839W        W38253   5.482   9.219   0.323  0.2897 -0.0518  0.0470
24840W        W38254  15.990   4.051   0.918 -0.1196 -0.0607  0.1587
24841W        W38255  12.130   3.831  13.437 -0.0952  0.2664 -0.2072
24842W        W38256   9.989  16.150  12.257 -0.1614  0.1434  0.4015
24843W        W38257  13.817  16.174  12.225  0.0952  0.0015 -0.0848
24844W        W38258  13.567   5.113   5.229 -0.0282  0.0252  0.3521
24845W        W38259   4.167   8.247  11.389  0.1885 -0.0709  0.1715
24846W        W38260   7.145   0.412   4.426  0.0501 -0.0089  0.2613
24847W        W38261  14.491  15.394   3.021 -0.0151 -0.1393 -0.3475
24848W        W38262  11.424   2.283  12.150  0.1991 -0.0533 -0.1132
24849W        W38263   2.690   0.259   0.875  0.1190 -0.0465 -0.1229
24850W        W38264   3.805   0.507   6.379 -0.0115  0.0870  0.2279
24851W        W38265   0.142   7.377   5.101 -0.1737 -0.3091 -0.2312
24852W        W38266  11.483  13.073   2.399  0.1739  0.1474 -0.1326
24853W        W38267  17.357   6.692   1.640  0.0082 -0.1013 -0.4658
24854W        W38268   8.332   6.026   0.471 -0.0047 -0.1301  0.1254
24855W        W38269   9.807   6.522  15.163  0.0353  0.0784 -0.1157
24856W        W38270  15.548  14.883   4.079  0.0923  0.1824  0.2269
24857W        W38271  15.934  11.848  15.840 -0.0229 -0.1755  0.1981
24858W        W38272  15.859  11.945  12.475 -0.0128 -0.0684  0.0706
24859W        W38273  11.730   5.465   5.777 -0.2775 -0.0161 -0.1330
24860W        W38274   1.093   0.355   3.987 -0.2210  0.1542  0.1935
24861W        W38275  10.747  14.229  15.286 -0.0267 -0.1610 -0.0791
24862W        W38276  15.310   1.036   3.870 -0.1242 -0.0595  0.1315
24863W        W38277  13.163   4.467   1.082  0.2255 -0.3768 -0.0545
24864W        W38278  11.198   9.883  10.994 -0.1277 -0.0691 -0.1259
24865W        W38279   1.055   2.144  15.702 -0.1079 -0.0996  0.0672
24866W        W38280   8.629   0.491   0.063  0.2329 -0.3463 -0.0416
24867W        W38281   2.933   2.834   6.225 -0.1491  0.5319  0.1143
24868W        W38282   3.833   1.698  11.312  0.0426 -0.0119 -0.1817
24869W        W38283   5.018   6.136   1.014 -0.0906  0.2434 -0.2362
24870W        W38284  17.409   9.307  15.491 -0.1403  0.0210 -0.0143
24871W        W38285  17.615   2.321   5.480 -0.0379  0.2560  0.3023
24872W        W38286  16.564   6.295   5.521 -0.1739  0.1988 -0.3200
24873W        W38287   3.899  13.848  16.057 -0.0670 -0.2054  0.1336
24874W        W38288   0.314   7.527   3.744  0.2062 -0.0333 -0.0021
24875W        W38289   8.711   4.982  16.481  0.0558 -0.0678 -0.1264
24876W        W38290   8.196   0.199   2.151 -0.2729  0.0827 -0.1214
24877W        W38291   1.941   8.594   5.130 -0.1709 -0.1674  0.1655
24878W        W38292   7.016  12.428  13.180  0.0334  0.2403 -0.1900
24879W        W38293   5.277  13.555   0.740  0.4881  0.3287 -0.0059
24880W        W38294   8.409   3.661  14.261  0.4002 -0.1035 -0.4193
24881W        W38295   9.885  12.676   2.344 -0.0707  0.1036  0.2547
24882W        W38296  10.410  13.146   1.569 -0.0221  0.0469 -0.1249
24883W        W38297  16.890   5.505  12.362  0.0374 -0.0557  0.1500
24884W        W38298   1.899   2.466   0.075 -0.2626  0.0434  0.4208
24885W        W38299  10.133   3.360  16.368 -0.4198 -0.1222 -0.2024
24886W        W38300  12.748  11.345  15.052 -0.3394  0.1394  0.1210
24887W        W38301   0.607   2.905   2.318 -0.1094  0.0924  0.0658
24888W        W38302  10.101  16.695  16.532 -0.2624  0.3147  0.0322
24889W        W38303  13.186  11.355  15.399 -0.2375  0.0830  0.1552
24890W        W38304   2.954  10.601  13.858 -0.1819 -0.0686  0.2394
24891W        W38305   5.337  14.754   5.862 -0.0017 -0.1537 -0.1954
24892W        W38306   1.122  17.171   3.331 -0.2202 -0.0609 -0.0060
24893W        W38307  13.828   6.039  14.153 -0.0895  0.1192 -0.2526
24894W        W38308   8.395   2.287   1.835  0.0600 -0.0203  0.0515
24895W        W38309   9.579   4.540  14.561  0.2946 -0.0317  0.0570
24896W        W38310   9.707   9.269   4.713 -0.0350 -0.1401  0.0652
24897W        W38311   2.618  18.015  13.328  0.0974  0.2101  0.2549
24898W        W38312   6.889  14.620   4.524 -0.1414  0.0638 -0.0352
24899W        W38313   4.429  11.698   1.579 -0.0233 -0.1460 -0.0670
24900W        W38314   5.729   0.033   0.494  0.0525 -0.1795  0.3181
24901W        W38315   8.221  11.326   3.259  0.0599 -0.1171  0.1102
24902W        W38316   7.323  15.980  14.933  0.4112  0.1617 -0.1696
24903W        W38317   4.304   4.147  12.837  0.1788 -0.0576 -0.1516
24904W        W38318  12.976   5.713   5.688 -0.0215  0.0389 -0.0472
24905W        W38319   8.179   6.474   1.308 -0.2914  0.1996  0.0736
24906W        W38320   0.397  16.446   4.425 -0.1929 -0.0078  0.3251
24907W        W38321  18.022  15.214   4.017  0.0192 -0.2186 -0.1396
24908W        W38322   7.969   1.411  14.259 -0.2241 -0.2293  0.1228
24909W        W38323   5.125  14.462  11.980 -0.1280  0.0561  0.1898
24910W        W38324   2.167   1.043   5.451 -0.2605  0.1609 -0.1183
24911W        W38325  17.751   0.608   0.179 -0.1915  0.0948  0.0815
24912W        W38326  11.808  17.356   2.572  0.0150 -0.1182 -0.4344
24913W        W38327  14.762  16.061  11.586 -0.0195 -0.2702 -0.0896
24914W        W38328   9.554   9.927  16.467 -0.0086  0.0121  0.0368
24915W        W38329   2.386  11.331  11.214  0.0787  0.0848 -0.0609
24916W        W38330   6.846  11.626  12.834 -0.0295 -0.0561  0.0426
24917W        W38331  14.556  10.194   2.500 -0.1689  0.3041 -0.0709
24918W        W38332  12.976   8.088   0.348 -0.0550  0.0411  0.0942
24919W        W38333   6.049  11.244   5.102 -0.1291  0.0928 -0.1063
24920W        W38334  15.691   2.781   3.264  0.2219 -0.2746  0.1133
24921W        W38335   0.567   3.947   3.105  0.2837 -0.3508 -0.1277
24922W        W38336  17.679  14.307  12.946 -0.1427 -0.1646 -0.0255
24923W        W38337   4.447  17.956   4.065 -0.0371  0.1794 -0.3031
24924W        W38338  10.561   1.736  10.974 -0.2034  0.0042  0.0542
24925W        W38339   7.596  12.555  15.009  0.0261 -0.4578  0.0448
24926W        W38340  13.507  11.848  16.629 -0.0243 -0.2781  0.1070
24927W        W38341   9.820   5.733  13.562 -0.1888 -0.0691  0.0976
24928W        W38342   1.511  16.571  14.782  0.2430  0.0903  0.0127
24929W        W38343   8.468  11.609   3.647 -0.0707  0.2759 -0.2792
24930W        W38344   6.196  14.044   0.710 -0.1624 -0.0956  0.0271
24931W        W38345   2.835   5.228   5.474  0.0550  0.3494  0.3440
24932W        W38346   5.584  12.313  11.711  0.2163 -0.1250 -0.4808
24933W        W38347  10.918   5.585  11.078  0.0646 -0.0744 -0.0511
24934W        W38348   1.088  17.315  12.736  0.0532 -0.0298 -0.0389
24935W        W38349   6.618  11.443   3.111  0.2035 -0.3312 -0.0174
24936W        W38350   6.177  11.344  11.083 -0.1796 -0.1078 -0.0533
24937W        W38351   1.984   1.663  11.958  0.0282 -0.0333 -0.1354
24938W        W38352   6.189   1.509  13.053  0.0917  0.1285 -0.3155
24939W        W38353  10.964   1.663   3.370  0.2500  0.1673 -0.0321
24940W        W38354   4.999  11.601  13.882 -0.2839 -0.0377  0.3637
24941W        W38355   0.265   9.028  11.315  0.3807 -0.1678 -0.2471
24942W        W38356  11.303   7.975   4.369  0.0509 -0.1433  0.0288
24943W        W38357   2.906   9.265   3.311 -0.0517  0.1357 -0.1842
24944W        W38358  17.042  16.970  12.309 -0.2850  0.1844 -0.0553
24945W        W38359  10.815  11.097   2.993 -0.3399 -0.1312  0.0707
24946W        W38360  15.139   8.582  16.493 -0.0999 -0.0223 -0.1950
24947W        W38361   1.071   8.082   2.668  0.1744 -0.0480 -0.1239
24948W        W38362   5.327   7.592  16.165  0.0432  0.1657  0.1110
24949W        W38363  12.303   7.444   3.134 -0.1263  0.3661 -0.0943
24950W        W38364   6.450  11.980   3.851 -0.0410 -0.0191  0.0646
24951W        W38365   2.062   1.223  13.888  0.0294  0.1739  0.0670
24952W        W38366   2.926   2.821   4.963  0.1017 -0.3747  0.1017
24953W        W38367  16.137  14.391  16.207 -0.1754  0.2814  0.0751
24954W        W38368   9.794  11.945  13.103 -0.0960 -0.1209 -0.0737
24955W        W38369   0.130  16.351  15.782 -0.0076 -0.0044  0.3757
24956W        W38370  11.600  17.450   4.838 -0.0977  0.0173  0.1672
24957W        W38371   9.083  13.734  12.046  0.0862 -0.0220  0.0230
24958W        W38372  13.997   3.300   5.009 -0.0758 -0.2502  0.0726
24959W        W38373   6.133   8.042  12.818 -0.0760 -0.1848 -0.0813
24960W        W38374  11.870   9.416  14.096 -0.3853 -0.2311 -0.1177
24961W        W38375  16.305   3.662   2.616  0.0502  0.1641 -0.1622
24962W        W38376   9.649   3.933   0.359  0.2018  0.1059  0.0680
24963W        W38377  10.838  14.444  13.355 -0.0565 -0.1837 -0.0502
24964W        W38378   5.169   8.517   3.173 -0.0320  0.1777  0.3238
24965W        W38379   9.620   8.587   1.701  0.3546 -0.2008  0.0912
24966W        W38380  12.247   0.265  16.695 -0.1602 -0.0200 -0.4813
24967W        W38381  12.318   2.408  16.191  0.2309  0.0423  0.0201
24968W        W38382   7.868   6.243   3.913 -0.0994 -0.0465 -0.1182
24969W        W38383   7.301  11.409   0.875  0.3894  0.0228 -0.1517
24970W        W38384  13.647  16.409   3.477 -0.0303  0.3173  0.2806
24971W        W38385   5.992   0.694  11.745  0.1607 -0.2047  0.2609
24972W        W38386  13.506  11.293  11.495 -0.0983  0.2719  0.1803
24973W        W38387  13.074   1.450  10.803 -0.0351 -0.2132  0.2525
24974W        W38388  14.608   8.316  12.036 -0.4007  0.3494 -0.1769
24975W        W38389  15.091   7.333   5.020  0.2418  0.0422 -0.1493
24976W        W38390  12.184  14.485  12.316  0.0732  0.1220 -0.0298
24977W        W38391  12.673  15.351   4.155  0.0259 -0.0791 -0.0129
24978W        W38392  13.292  12.248  15.585 -0.2073 -0.0808 -0.0871
24979W        W38393   9.855   5.219   3.311 -0.0318 -0.4406  0.0060
24980W        W38394   6.101  17.084  16.287  0.0520 -0.0010  0.1599
24981W        W38395   9.256  11.552   4.844  0.0200  0.1337  0.0751
24982W        W38396   7.639   2.583  16.422 -0.1045  0.1136  0.0307
24983W        W38397  12.536   4.452  13.073  0.2852 -0.2100 -0.1103
24984W        W38398   8.485   9.488  16.007 -0.1186 -0.1251  0.1599
24985W        W38399   4.403  15.816   0.773 -0.1205  0.2051 -0.1382
24986W        W38400  10.283  17.501   2.672  0.2911 -0.1664 -0.0861
24987W        W38401   0.030  10.487  12.803 -0.2837 -0.2507  0.0973
24988W        W38402  10.713   4.441  12.359 -0.0740 -0.0481  0.1341
24989W        W38403  10.585  15.363   0.018 -0.0578 -0.0788 -0.3950
24990W        W38404   8.016   4.941  10.368  0.4463 -0.3394  0.1848
24991W        W38405   7.833   3.619   0.723  0.2363  0.1251 -0.1338
24992W        W38406  13.524   5.156  14.722  0.2899 -0.0373 -0.0651
24993W        W38407   2.828   5.515  13.210 -0.4296  0.0379 -0.1610
24994W        W38408  15.464   0.279  15.958  0.0020 -0.2584 -0.3093
24995W        W38409  11.023   0.405  14.085 -0.0665  0.2462  0.2859
24996W        W38410  17.934   1.813   1.710 -0.0487  0.1132  0.1277
24997W        W38411  13.707   9.605   4.983  0.3407  0.0140  0.0179
24998W        W38412   1.078   5.653  13.523 -0.0971 -0.1566 -0.0292
24999W        W38413   9.319   2.572  14.927  0.1622 -0.0504 -0.0869
25000W        W38414  16.639   6.464   2.778  0.3447  0.2057 -0.1451
25001W        W38415   5.039  15.438  14.909 -0.0987 -0.0988  0.0512
25002W        W38416  11.685  11.251  15.428  0.0482  0.0615 -0.0808
25003W        W38417   1.929  15.425  14.162 -0.0568 -0.0359  0.1568
25004W        W38418   6.945   1.884   6.199 -0.2105 -0.2213  0.1813
25005W        W38419   8.973   4.051  16.482 -0.1726  0.1015  0.0149
25006W        W38420   0.015   5.163  15.496  0.0174  0.0554 -0.2192
25007W        W38421   4.559  10.532   2.972  0.1327  0.0894 -0.0787
25008W        W38422  13.413  12.559   2.178  0.1974 -0.0157 -0.0920
25009W        W38423   7.432  11.587  16.588 -0.0522  0.0546 -0.0172
25010W        W38424  16.325  12.699  13.720  0.2757  0.0043  0.1726
25011W        W38425   1.778   2.250  11.564  0.1188 -0.2722 -0.0639
25012W        W38426   0.071  13.034  13.562 -0.2393 -0.1132 -0.0244
25013W        W38427   9.464  17.805  13.823  0.2227  0.0045 -0.0950
25014W        W38428   4.188   4.516   5.727  0.0649 -0.1194 -0.0145
25015W        W38429   9.230  13.618  15.150 -0.0525 -0.1608 -0.4277
25016W        W38430   9.378   0.865  10.903 -0.3325 -0.2137 -0.0468
25017W        W38431   2.017  10.823   2.894  0.1133  0.0864 -0.0624
25018W        W38432  17.287   1.567  15.456 -0.1721  0.0978  0.1647
25019W        W38433   7.971  10.830  12.897  0.2960 -0.1980  0.3797
25020W        W38434  17.451   7.208  12.865 -0.1454 -0.2146 -0.0299
25021W        W38435   5.415  12.590  16.543  0.0941  0.2112  0.1656
25022W        W38436   1.476   1.930  13.599  0.0194 -0.1338  0.0949
25023W        W38437   2.845   6.838  11.122  0.1189  0.0359  0.0374
25024W        W38438  17.273  12.524  12.539 -0.2094 -0.0732  0.0084
25025W        W38439  12.391   5.154   1.941  0.0874  0.0146 -0.1085
25026W        W38440   4.973   4.721  10.554 -0.1720  0.3344 -0.1342
25027W        W38441   8.258   4.893  11.688 -0.1599  0.0953  0.0633
25028W        W38442  12.064   7.067   3.406  0.1815 -0.3341 -0.3181
25029W        W38443  14.545   3.836   3.411 -0.1729  0.0069 -0.0614
25030W        W38444  10.083  11.478   0.623  0.0342 -0.2654  0.1185
25031W        W38445   4.698   5.193  14.657  0.2668  0.1133  0.0877
25032W        W38446   6.300   7.038   2.717 -0.3148  0.1616 -0.0392
25033W        W38447   7.783   6.106  16.231 -0.2076  0.3583 -0.1328
25034W        W38448   8.404  14.270  16.425  0.0305  0.1412  0.3724
25035W        W38449   0.225   0.233  15.978 -0.0374  0.0352  0.0341
25036W        W38450   8.778  10.939   5.349  0.0865 -0.1642  0.0965
25037W        W38451  14.491   1.213   3.493  0.0863 -0.0146 -0.0147
25038W        W38452   7.454  18.035   2.717  0.1549  0.0957  0.0966
25039W        W38453  17.287   1.934  11.979 -0.1048  0.1464 -0.0346
25040W        W38454  11.609  11.434   4.000 -0.1189 -0.1796 -0.2339
25041W        W38455  11.880  14.707   2.494 -0.0491 -0.2335  0.1126
25042W        W38456   3.823   0.426   5.034  0.0266  0.0933  0.0085
25043W        W38457   7.079  10.966  13.367  0.0189  0.2658 -0.7302
25044W        W38458  15.467  13.517  10.832  0.1718 -0.1947 -0.0023
25045W        W38459   3.934  16.123   0.179 -0.1070 -0.0076 -0.3562
25046W        W38460  18.007   4.187  14.258  0.1936  0.2079  0.1975
25047W        W38461   4.219  14.289  12.055  0.1258 -0.0945 -0.0694
25048W        W38462  12.571   5.460   5.551 -0.3976 -0.1843  0.1862
25049W        W38463  12.904  17.721  13.811 -0.2219  0.3378 -0.1795
25050W        W38464   3.335   2.962   0.576 -0.0397  0.1116  0.2673
25051W        W38465   4.006  13.223  10.948  0.0342  0.2448 -0.1585
25052W        W38466  10.043  15.124   3.189 -0.3007 -0.3091 -0.0030
25053W        W38467  12.642   7.905   2.955 -0.0269  0.1195 -0.1409
25054W        W38468  10.079   8.788  11.248 -0.3464 -0.1034 -0.2219
25055W        W38469   8.167  12.089   1.611  0.1968 -0.2804 -0.3203
25056W        W38470   5.944   5.397   1.797 -0.1838  0.1282 -0.2050
25057W        W38471   8.100  17.809  14.713  0.0309 -0.1028 -0.1025
25058W        W38472  16.221   7.840   2.712  0.2288  0.2124 -0.5100
25059W        W38473   7.485   2.655   0.276 -0.0505 -0.2524  0.1465
25060W        W38474  14.290  15.014   1.082  0.0097  0.1304 -0.1436
25061W        W38475   7.092   2.477   5.592 -0.1288 -0.0089  0.0664
25062W        W38476  13.102  15.354  11.175  0.0953 -0.0829 -0.4345
25063W        W38477  11.672   5.300  11.139  0.2159 -0.2694  0.1140
25064W        W38478  12.681  12.318   1.734  0.1220 -0.0084  0.1392
25065W        W38479   2.248  10.645   1.570  0.2800  0.1536 -0.1555
25066W        W38480   7.298   2.063   5.836  0.2597  0.2703  0.0076
25067W        W38481  10.049  15.679  11.982 -0.2811 -0.1485  0.1110
25068W        W38482   2.828  13.138  11.551 -0.2178  0.2527  0.0717
25069W        W38483   5.367   8.998   6.298 -0.0603 -0.2039  0.0592
25070W        W38484   0.695   4.398   3.220 -0.1993 -0.1642  0.0282
25071W        W38485  14.343   0.850   3.113  0.0305 -0.2012 -0.0910
25072W        W38486  10.308  12.798   1.899  0.1975 -0.1610 -0.1425
25073W        W38487   5.311   9.011   4.985 -0.2468  0.2129 -0.1488
25074W        W38488   9.115   8.712  14.045  0.1917 -0.0108  0.0453
25075W        W38489   2.344  12.615  14.517  0.2160  0.3601  0.0878
25076W        W38490   0.983   5.726  11.893 -0.0226  0.1515 -0.2868
25077W        W38491  10.232  12.551  15.296  0.1174 -0.2380  0.1295
25078W        W38492  17.533  12.423  11.060 -0.1516 -0.0526  0.2796
25079W        W38493   0.581  17.611   4.886 -0.0685  0.5235  0.1156
25080W        W38494  11.336   7.657  13.376 -0.0553  0.0749  0.0179
25081W        W38495  14.607  12.174  12.066  0.0153  0.0994  0.1700
25082W        W38496   0.581   4.714  11.901  0.1161 -0.0661 -0.2598
25083W        W38497   9.753  15.868  13.339  0.0655 -0.0207 -0.0891
25084W        W38498   7.209  15.354  12.770 -0.1791  0.3554  0.0563
25085W        W38499   8.655  16.982  10.825  0.2125  0.1607  0.3781
25086W        W38500   3.685  11.008  15.120  0.3674 -0.1093 -0.0899
25087W        W38501   8.252  17.533   1.481  0.1434 -0.1733 -0.1267
25088W        W38502  13.463   5.429   5.831  0.0308  0.3823  0.0051
25089W        W38503  17.183   2.598   3.820  0.1420 -0.5360  0.0299
25090W        W38504   0.446   4.065   6.041 -0.2006 -0.1811  0.1844
25091W        W38505   3.204   5.706   1.599  0.0200 -0.1424 -0.2951
25092W        W38506  17.688   3.085  12.117  0.1251  0.1410  0.0471
25093W        W38507  17.495   6.884   1.161  0.3634  0.1757 -0.2749
25094W        W38508  11.523  14.433   3.097  0.1278 -0.2939 -0.2235
25095W        W38509  17.757   5.893  14.059 -0.2380  0.2253 -0.0390
25096W        W38510   1.354  12.348   3.856  0.0665 -0.0561 -0.0422
25097W        W38511   1.031  16.502  11.373 -0.0357 -0.0311  0.0161
25098W        W38512  12.379  15.181  10.081 -0.1908  0.0364  0.2927
25099W        W38513  17.607   2.930  15.744 -0.0614  0.0938 -0.1331
25100W        W38514   5.150  16.167  11.387  0.0915  0.0399  0.0014
25101W        W38515   1.094  15.315   3.359 -0.0741 -0.1190 -0.0402
25102W        W38516  10.126   1.394  14.615 -0.1987  0.1587  0.1466
25103W        W38517  17.201  11.036  11.867 -0.2686 -0.0292 -0.1909
25104W        W38518   0.010   4.620  11.720 -0.0270 -0.1470  0.0730
25105W        W38519  16.109   6.379  11.459 -0.0304 -0.0271  0.0648
25106W        W38520   3.538   3.652  10.111 -0.2657 -0.1458 -0.0004
25107W        W38521   7.028  10.569   5.417  0.0323 -0.0347 -0.0922
25108W        W38522   1.151  16.814  13.175  0.0221 -0.2740  0.1849
25109W        W38523  16.223   4.011  15.746 -0.0065  0.0514  0.0292
25110W        W38524   9.227  17.896   5.111 -0.0485  0.3201 -0.2554
25111W        W38525   4.910   8.453   1.732  0.4561  0.1308  0.2342
25112W        W38526   6.627  10.984  11.210  0.1327  0.2213  0.0346
25113W        W38527  17.293   1.487   5.283  0.0514  0.1747 -0.0791
25114W        W38528   2.131   9.243  14.943 -0.4137  0.1714  0.1022
25115W        W38529  14.215  14.622   6.370  0.0129 -0.1254  0.1343
25116W        W38530   2.600  12.463   5.369 -0.1850  0.1241 -0.2241
25117W        W38531  11.226  12.680   4.971 -0.0879 -0.0306  0.0933
25118W        W38532  13.205   8.689   2.423 -0.1725  0.2195  0.2050
25119W        W38533  13.694   2.597  15.937  0.0845  0.3497 -0.1625
25120W        W38534  16.153  14.486   0.541  0.3422  0.1757  0.1182
25121W        W38535  13.511  12.399   3.925 -0.1131 -0.1463 -0.0487
25122W        W38536   8.733  16.685   4.181 -0.0768 -0.1451 -0.1350
25123W        W38537   1.376   9.735   1.969  0.0856 -0.0182 -0.1328
25124W        W38538   0.151   7.687  13.811 -0.2347  0.0911 -0.1731
25125W        W38539   3.680   6.182  11.859  0.0199 -0.2508 -0.3264
25126W        W38540  14.577  14.579  13.486 -0.0345  0.0344  0.0055
25127W        W38541  14.661  10.015  12.372 -0.2375  0.1286  0.1325
25128W        W38542   8.475   5.760   1.949 -0.1984 -0.1062  0.1661
25129W        W38543   4.423  17.447   3.724 -0.0930 -0.0868  0.0297
25130W        W38544  15.247  14.981   0.865  0.0172  0.0783  0.0027
25131W        W38545  12.190  14.290  16.280  0.3636  0.0092 -0.0192
25132W        W38546   5.452   1.264  14.568  0.1163 -0.1624  0.0152
25133W        W38547  17.616   9.026   5.743  0.0700 -0.3072 -0.3407
25134W        W38548   4.806  17.961  12.230 -0.0372 -0.1428 -0.0546
25135W        W38549   7.641   9.414  13.076  0.0213 -0.0723 -0.0083
25136W        W38550  16.808   4.331   6.002  0.0610  0.0530 -0.0235
25137W        W38551  15.798   2.960   5.689 -0.1793  0.0526 -0.2718
25138W        W38552   8.072  15.538  16.015 -0.0024 -0.2983 -0.2729
25139W        W38553   8.321   2.224   0.171 -0.0524 -0.2470  0.3801
25140W        W38554   9.303   2.002  15.506 -0.2696  0.0367  0.0719
25141W        W38555  14.426  14.070  12.661 -0.1148 -0.1009 -0.1228
25142W        W38556   0.418  11.356   4.699  0.2860  0.0749 -0.2852
25143W        W38557  14.089  11.855  15.809 -0.0053  0.1295  0.1043
25144W        W38558  17.075   7.325  10.671  0.2308 -0.0826  0.2519
25145W        W38559   0.061   2.094  15.917 -0.0504 -0.2245  0.0781
25146W        W38560  14.243  10.659   4.177  0.1718  0.3048  0.0144
25147W        W38561   8.726   8.099  12.990  0.2322 -0.1434  0.1245
25148W        W38562   7.679  11.906  15.487  0.1809 -0.5532 -0.2228
25149W        W38563   3.849   4.481   1.943  0.1299  0.0484 -0.0803
25150W        W38564   8.025   5.209  10.840  0.3707  0.0290  0.1962
25151W        W38565   2.393  17.518  13.181 -0.0943  0.1645 -0.1656
25152W        W38566   3.484  15.087  12.318 -0.2097 -0.1563 -0.0533
25153W        W38567  12.452   6.950   5.304  0.1367 -0.1235  0.1337
25154W        W38568  15.748  15.234  11.194 -0.0441  0.0182  0.1039
25155W        W38569  10.950   0.033  15.488 -0.2694 -0.1091 -0.0151
25156W        W38570  16.725  17.069  14.177  0.1050  0.0383  0.4401
25157W        W38571   7.293  13.895  13.078 -0.1106  0.1029 -0.3041
25158W        W38572  12.390   2.216   5.602 -0.0834 -0.1647  0.0056
25159W        W38573   7.465   6.660  15.634 -0.0122  0.1542 -0.0876
25160W        W38574  10.601  15.770  10.558  0.0373  0.0332  0.2703
25161W        W38575  16.505  16.026  15.470 -0.1890 -0.0992 -0.1432
25162W        W38576   7.042  17.150  15.250  0.1499  0.0059 -0.0964
25163W        W38577   5.047   8.186   3.555  0.0419  0.0104 -0.1912
25164W        W38578   0.107  15.426  14.242 -0.1394 -0.0225 -0.0160
25165W        W38579  12.598   7.248  11.746  0.0846 -0.1198  0.0563
25166W        W38580  10.313  16.243  16.394 -0.1794  0.0958  0.0145
25167W        W38581  13.030  14.790   0.831  0.0718  0.2694  0.1253
25168W        W38582   7.620  12.905   0.645  0.1985 -0.3736  0.2386
25169W        W38583   6.897  15.581   4.398 -0.1407  0.1984 -0.1820
25170W        W38584  12.001   6.657  13.008  0.0994 -0.3727 -0.0678
25171W        W38585  10.164  11.283   1.756  0.0753  0.2719 -0.0245
25172W        W38586  10.471   8.295   4.463  0.1363  0.1131  0.0181
25173W        W38587  10.461  15.362   4.216  0.0606 -0.0509 -0.1538
25174W        W38588  13.526  13.911   0.102  0.3624  0.0827  0.1790
25175W        W38589  11.785   7.789  14.977 -0.0819  0.2502  0.0529
25176W        W38590  13.138  14.378  11.925  0.1422  0.0750 -0.1066
25177W        W38591  14.192   4.389  13.815 -0.1630 -0.5087  0.1636
25178W        W38592   7.424   2.777  12.712 -0.0106  0.4229  0.0077
25179W        W38593  10.760  14.489   1.709  0.1184  0.2451  0.1146
25180W        W38594   1.626   5.601   3.565  0.1254  0.0049  0.3283
25181W        W38595  12.541   1.685   0.467  0.1132 -0.0522  0.0706
25182W        W38596   7.033   6.862  13.613 -0.0080  0.0809 -0.0339
25183W        W38597  15.292  12.815   1.809  0.1067 -0.0713  0.2207
25184W        W38598   0.798   6.113  13.565  0.2055 -0.0322 -0.0564
25185W        W38599  12.527   5.771   1.118  0.1814 -0.0723  0.0162
25186W        W38600  16.427   5.624  14.496 -0.0748  0.0562  0.1116
25187W        W38601   1.741  17.622  13.055  0.1598 -0.0393  0.0305
25188W        W38602   0.866  13.616   5.072  0.2387  0.1893  0.0087
25189W        W38603   4.449  15.357   5.157 -0.0765  0.2470 -0.3081
25190W        W38604   0.778   6.201   7.414  0.1928 -0.0182 -0.0069
25191W        W38605   4.466  15.931   1.970  0.1814  0.1378 -0.2225
25192W        W38606  16.345  10.592  12.337 -0.3059 -0.0626  0.0058
25193W        W38607   5.062   9.179   6.742  0.1026  0.0182  0.0367
25194W        W38608   6.564   7.916   3.337  0.3764  0.1481 -0.1062
25195W        W38609   8.130   8.763   1.390  0.1050 -0.0817  0.0261
25196W        W38610   0.771  14.928  16.115 -0.0451 -0.0130  0.2421
25197W        W38611  13.834   7.689  13.080 -0.1796  0.1160 -0.1027
25198W        W38612  13.239  11.443  14.747  0.0652 -0.1626 -0.0013
25199W        W38613   1.704  15.716  16.226 -0.0977  0.1105 -0.1462
25200W        W38614  17.712  15.262  11.008  0.0536  0.0149 -0.0728
25201W        W38615  17.198  17.347  12.012  0.2991  0.2762  0.0178
25202W        W38616   3.495   3.711   3.737 -0.0436 -0.2256 -0.1542
25203W        W38617   8.516   6.995  15.861  0.4067  0.3281 -0.0336
25204W        W38618   0.912   2.552  15.440  0.0841 -0.2810  0.1032
25205W        W38619  17.260   8.170   2.897  0.3029 -0.1006 -0.0645
25206W        W38620   6.342   6.104   4.833 -0.1467  0.3373 -0.0726
25207W        W38621   7.880  15.323  15.195 -0.1814  0.1090  0.1522
25208W        W38622  10.414  11.177  16.193 -0.0950 -0.0722 -0.1068
25209W        W38623   2.758   6.885  12.118 -0.1385 -0.0069  0.2743
25210W        W38624   9.028   6.361  11.490 -0.1117 -0.0458 -0.1654
25211W        W38625   8.326   9.234  13.875  0.1808 -0.0323  0.2323
25212W        W38626   9.526   3.890   4.481 -0.1327 -0.0257  0.0872
25213W        W38627   8.314  15.524   1.644 -0.1086 -0.1694 -0.0634
25214W        W38628   7.650   2.679  12.186  0.0420 -0.2036  0.1422
25215W        W38629   6.164  15.520  15.652  0.2568 -0.0940 -0.0730
25216W        W38630   0.596  13.168   2.912  0.1293 -0.0399  0.0558
25217W        W38631   4.439   0.161   1.295 -0.0591  0.2199  0.1111
25218W        W38632  11.370  15.446  11.180  0.1451  0.2825  0.1106
25219W        W38633  17.386  13.970  15.670  0.1641  0.0011 -0.0426
25220W        W38634  14.695   5.826   4.348 -0.1122 -0.0416 -0.0129
25221W        W38635   0.185  13.621  11.948 -0.1474  0.0423 -0.2025
25222W        W38636   7.795  11.498   0.959 -0.0205  0.2884 -0.1637
25223W        W38637  11.241   5.971  13.009 -0.2755 -0.0165 -0.1118
25224W        W38638   9.213   3.064  13.013 -0.0755 -0.5110  0.1871
25225W        W38639  17.186   2.320  15.735  0.1622  0.0345 -0.1686
25226W        W38640   5.670   4.115   0.200  0.0765  0.1626 -0.0832
25227W        W38641   4.139   8.655  11.697  0.2490 -0.0327 -0.2309
25228W        W38642   9.278   5.307   1.930  0.1453 -0.2178 -0.3811
25229W        W38643  17.222   7.528   4.954  0.1039  0.2979 -0.2013
25230W        W38644  16.753  14.046   5.057  0.1086  0.0548 -0.0964
25231W        W38645   1.782  13.845   4.725  0.0025 -0.1750  0.2685
25232W        W38646   9.411  17.873  14.632 -0.0168 -0.1816 -0.0829
25233W        W38647  10.778   6.833  12.244  0.1394  0.2219  0.2640
25234W        W38648  17.135   3.796   1.861  0.0521 -0.1182 -0.1289
25235W        W38649  16.464   8.090   3.513 -0.2687  0.3755 -0.1775
25236W        W38650   4.212  11.507   2.783 -0.2708  0.1602 -0.2533
25237W        W38651  17.021   3.150   3.689 -0.0998  0.2635  0.1463
25238W        W38652   5.692  12.814   2.457 -0.0605 -0.0573  0.2888
25239W        W38653   4.086   7.135  16.393 -0.2350  0.0827  0.0438
25240W        W38654   6.500   8.742  13.818 -0.0364  0.2561 -0.3104
25241W        W38655   0.788   4.168  15.887 -0.2925  0.0232 -0.0540
25242W        W38656   7.580   9.586  10.690  0.2165 -0.0307 -0.0312
25243W        W38657  10.557   4.303  10.711  0.2648 -0.2031  0.0597
25244W        W38658   8.509  14.721  12.382  0.0235  0.0338  0.0556
25245W        W38659   2.622   3.563  14.297  0.0465 -0.1327 -0.0210
25246W        W38660  10.433   3.474  15.622 -0.1338 -0.3184 -0.0481
25247W        W38661   4.855   2.045   1.246  0.0784 -0.3145  0.1049
25248W        W38662   3.890   6.815  10.826 -0.1253 -0.2670 -0.0935
25249W        W38663   6.834   2.887   1.968 -0.1014  0.4998 -0.1290
25250W        W38664   3.791  13.385  14.848 -0.0937 -0.2492  0.1168
25251W        W38665  14.631  12.475  14.396  0.0266 -0.0983 -0.1832
25252W        W38666   1.566  12.058  15.685  0.1939  0.3036  0.0776
25253W        W38667   5.473   4.442   4.815  0.0944 -0.1457 -0.1518
25254W        W38668   8.631   6.864  16.433 -0.1142  0.0706  0.0065
25255W        W38669   0.891  12.778  10.476 -0.0711 -0.1278  0.0765
25256W        W38670   9.789   4.554   5.547  0.4004 -0.1414  0.0802
25257W        W38671   4.186   0.510  13.154 -0.0787 -0.0067 -0.0730
25258W        W38672  15.894  11.566   5.789 -0.0811  0.5007  0.0347
25259W        W38673   0.848   1.795  12.606 -0.0772  0.1360 -0.0198
25260W        W38674   4.667   5.488   3.083  0.0564  0.1838 -0.1289
25261W        W38675  12.122  17.003  14.316  0.0519 -0.1493  0.0168
25262W        W38676  14.859   0.685   3.219  0.0707 -0.0047 -0.0780
25263W        W38677   7.244  15.009  12.305  0.1079 -0.4021 -0.0568
25264W        W38678   3.752   3.204   0.274  0.2746 -0.0517  0.1397
25265W        W38679   4.506  16.898   2.972  0.1083 -0.2996 -0.1140
25266W        W38680  15.945   9.581  14.595 -0.3003 -0.4032  0.0776
25267W        W38681  15.192   5.689   4.048  0.1093 -0.3194 -0.1497
25268W        W38682  10.419   4.717   0.855 -0.2312 -0.0510  0.1258
25269W        W38683   3.143  14.207   0.519  0.0642 -0.1227 -0.1973
25270W        W38684   3.351  14.880   3.734 -0.0540  0.0799  0.1227
25271W        W38685  13.564  10.454  15.333  0.1275 -0.1619  0.0527
25272W        W38686   0.016  15.713  11.610 -0.0438 -0.2577  0.1448
25273W        W38687   3.057  14.690  12.383  0.2094  0.0536 -0.0640
25274W        W38688   4.302   9.532  12.065  0.2818  0.0965  0.4488
25275W        W38689  12.085   5.643   3.738 -0.2837  0.1041 -0.2535
25276W        W38690   5.149   6.285   0.004  0.1739 -0.1757 -0.1001
25277W        W38691   3.726   5.776   3.304 -0.2661 -0.3351  0.3802
25278W        W38692   0.701   0.029  12.294 -0.0574 -0.0299  0.1412
25279W        W38693   2.310  15.693   4.274  0.0812  0.0598  0.1728
25280W        W38694   1.813   6.144   4.811  0.0498 -0.0440  0.3207
25281W        W38695   0.513   9.536   5.471  0.0612 -0.5482  0.0633
25282W        W38696  16.701   2.590  11.057  0.1128  0.1970 -0.2910
25283W        W38697   7.346   0.106  16.584  0.0794 -0.0720 -0.0252
25284W        W38698  17.305   9.173   5.254  0.1459 -0.0168 -0.2896
25285W        W38699   9.372  13.927  15.589 -0.1614  0.2024 -0.1858
25286W        W38700   5.619  10.456   0.324  0.1785  0.0787 -0.0519
25287W        W38701   0.681  10.163  16.698  0.2595 -0.0194  0.3557
25288W        W38702  16.090   7.547   6.082 -0.1442 -0.0744  0.0926
25289W        W38703   1.237   8.561   5.063  0.1108  0.5535 -0.0211
25290W        W38704   9.049  16.857   2.520 -0.1644  0.0948 -0.1976
25291W        W38705   1.113  10.890   5.011  0.2509  0.3840  0.3410
25292W        W38706   6.268  13.825  15.386  0.2805  0.0807 -0.2008
25293W        W38707   5.413  17.242  14.439  0.4304  0.0729  0.1079
25294W        W38708   0.620  10.093  10.797  0.0653 -0.0290  0.0740
25295W        W38709  17.489   9.660  12.218 -0.0949 -0.0006 -0.1121
25296W        W38710  14.713  15.260   4.694 -0.5095 -0.2750 -0.1302
25297W        W38711  10.025   1.625  16.113 -0.0215 -0.2336 -0.0142
25298W        W38712  12.928   8.296   1.260 -0.3489  0.2183  0.0993
25299W        W38713   4.741   6.959  10.462  0.0206 -0.1137 -0.2260
25300W        W38714   2.020   2.180  12.878  0.1167  0.2173 -0.1660
25301W        W38715  13.309   8.565   1.944 -0.0615  0.0896 -0.2808
25302W        W38716  12.492  18.024  15.249 -0.2571  0.0320  0.2025
25303W        W38717  17.992  18.042   2.892 -0.2980 -0.0943  0.0516
25304W        W38718   1.823   3.347  14.423 -0.1362  0.0135  0.0118
25305W        W38719  12.889  15.105  15.810 -0.0862 -0.0727  0.2176
25306W        W38720   8.433  15.227   1.254  0.2512 -0.2559  0.2872
25307W        W38721  11.972   2.325  15.110 -0.0608 -0.1387  0.4063
25308W        W38722  10.035   6.399   4.178 -0.0585  0.0117 -0.3228
25309W        W38723  10.111   4.411  13.013  0.3335  0.2855  0.0727
25310W        W38724  10.263  11.919   5.709 -0.0521 -0.4488 -0.0137
25311W        W38725   0.167  16.800  15.977 -0.2040  0.0725  0.0661
25312W        W38726  17.785   0.437  11.314  0.0554  0.2253  0.0105
25313W        W38727   4.466   5.485   1.610 -0.0080  0.1390 -0.1331
25314W        W38728   8.218  16.775  15.684  0.0676  0.2048 -0.0475
25315W        W38729   3.535  15.309   4.560 -0.2221 -0.2655 -0.2706
25316W        W38730   9.846   8.505   3.333  0.0135  0.2606 -0.1444
25317W        W38731   5.315  10.686   1.306  0.0830 -0.0492 -0.0629
25318W        W38732   7.698   6.986   1.146 -0.0959  0.1676  0.1847
25319W        W38733   6.030   7.826  15.788  0.0515  0.2544 -0.3421
25320W        W38734  10.243   9.589   4.127  0.0823  0.1285  0.1849
25321W        W38735  15.893   4.207   5.062 -0.3856 -0.2951 -0.1283
25322W        W38736   9.498  16.958   1.302 -0.1540  0.2203  0.0068
25323W        W38737  10.683   2.223   1.187 -0.0486  0.0047 -0.0730
25324W        W38738  10.327  16.912   1.898  0.1584 -0.0261  0.1070
25325W        W38739   4.158   0.362  13.981  0.0739 -0.0609 -0.1044
25326W        W38740   7.262   4.054  13.111  0.0332 -0.2418 -0.1995
25327W        W38741   5.305   7.798   3.489 -0.0574 -0.0150  0.0412
25328W        W38742   8.428   4.323   1.149  0.3098 -0.1179 -0.3243
25329W        W38743   9.302  11.134   5.279  0.1808  0.1386  0.0360
25330W        W38744  12.100   7.637  13.894 -0.0936 -0.1057  0.2253
25331W        W38745   7.004   5.799   3.357  0.2104  0.1288  0.0598
25332W        W38746  13.274   8.453   0.688 -0.2234 -0.0974 -0.0049
25333W        W38747   0.498   6.515   0.422 -0.1163  0.4283 -0.1528
25334W        W38748   8.925  10.015   0.556  0.2364  0.0451 -0.2394
25335W        W38749   4.702  12.951   4.775  0.0222 -0.1757  0.2245
25336W        W38750  14.654   5.550   5.779  0.4524  0.1246 -0.2213
25337W        W38751   3.378  15.789  14.792  0.0124  0.0588  0.0020
25338W        W38752   3.756   8.879  16.513 -0.1264 -0.0266 -0.0686
25339W        W38753   8.588  10.574   3.968  0.3198 -0.1330  0.1935
25340W        W38754  13.116   2.554   1.204  0.2784 -0.1257  0.1227
25341W        W38755  13.331  16.512   0.738  0.0758 -0.1047 -0.0285
25342W        W38756  16.359   9.080   2.749 -0.1896 -0.0598  0.1133
25343W        W38757  11.053   4.562   5.016  0.1141  0.2924  0.1304
25344W        W38758  12.890  17.267  15.881  0.0502  0.3730  0.1539
25345W        W38759  15.831   4.378   5.578  0.1259  0.0850 -0.2856
25346W        W38760   0.748  17.694   4.381 -0.2310 -0.1180  0.0700
25347W        W38761  18.008   6.515  14.851 -0.0710 -0.0080 -0.1900
25348W        W38762  14.700   7.859  13.220 -0.0209  0.0683  0.1068
25349W        W38763  16.944   6.304   2.350  0.3349  0.3479  0.1879
25350W        W38764   6.328   9.807  11.445 -0.0347  0.0028 -0.2704
25351W        W38765  12.169   3.071   0.297  0.1435 -0.2112 -0.4856
25352W        W38766  15.163  15.021   3.812 -0.1216 -0.0627  0.5330
25353W        W38767  11.006   5.379   6.077  0.1937 -0.2791 -0.1529
25354W        W38768  17.141   8.004  14.607  0.1714  0.0975  0.1614
25355W        W38769   3.928  15.351  14.331 -0.1799  0.0724 -0.1171
25356W        W38770   6.155  12.180  14.736  0.0877  0.1311  0.2012
25357W        W38771   3.801   5.523   3.766 -0.2337 -0.0853  0.1962
25358W        W38772  15.305   7.526   4.175  0.0180  0.1040  0.1180
25359W        W38773  16.861   0.245  16.600  0.1504  0.0255  0.4699
25360W        W38774   7.962  12.235   4.140  0.1593  0.0173 -0.2061
25361W        W38775   5.012   6.496  15.699  0.0490 -0.3200 -0.3044
25362W        W38776   7.717   3.653  12.314  0.1067  0.0567 -0.0472
25363W        W38777  17.022   4.950  12.933  0.1790  0.2831  0.1656
25364W        W38778  14.348  13.779   2.381 -0.4199 -0.1203  0.2006
25365W        W38779  16.250  11.160   5.738 -0.2389 -0.0163 -0.0541
25366W        W38780   2.913  17.141   3.544  0.0668 -0.0038  0.3483
25367W        W38781   9.551   0.104   2.643  0.5172 -0.0367 -0.2512
25368W        W38782   4.691   9.870   5.102 -0.0266  0.0226  0.0550
25369W        W38783   6.778   6.142   3.922 -0.3401 -0.1450  0.3929
25370W        W38784   0.702  12.713  14.089 -0.1782  0.0276 -0.2332
25371W        W38785   7.728   0.567  14.234 -0.1337  0.2064 -0.0262
25372W        W38786  11.465   6.150   3.220 -0.1858 -0.1028 -0.0303
25373W        W38787  10.990  13.124  11.539 -0.0560  0.1550 -0.2199
25374W        W38788   8.133   9.263   2.260  0.0519 -0.0567  0.0697
25375W        W38789   5.558   3.658   5.092  0.1838 -0.1480 -0.0793
25376W        W38790  16.955  16.175   0.702 -0.1655 -0.3030 -0.0104
25377W        W38791   7.415   1.156  10.952 -0.1841  0.0029 -0.1200
25378W        W38792   4.152   3.701   2.044 -0.0583  0.1038 -0.1018
25379W        W38793  12.298  10.332  16.560  0.0763 -0.0809 -0.0661
25380W        W38794   9.907   0.706  16.281  0.0270  0.1658 -0.2600
25381W        W38795   3.784   1.376   6.251 -0.0145 -0.1921  0.1173
25382W        W38796  11.665   8.714   2.185  0.0354  0.1100 -0.2185
25383W        W38797   3.507  11.946  16.069  0.0227 -0.0397  0.1323
25384W        W38798   6.045  15.289  16.080  0.0269  0.0976  0.0727
25385W        W38799   7.133   1.584  14.825 -0.5460 -0.2988 -0.0619
25386W        W38800  10.399   1.636   5.152 -0.2579 -0.0879  0.1700
25387W        W38801  12.562   6.406  15.731  0.0743 -0.2085 -0.1179
25388W        W38802  10.283   6.608   5.550  0.1082 -0.1168  0.0466
25389W        W38803   9.780   4.169  12.085 -0.0942 -0.2852  0.0977
25390W        W38804  11.234  17.725   5.904  0.0466 -0.0000  0.0828
25391W        W38805  17.876  11.558  14.311  0.1963  0.0294 -0.0163
25392W        W38806   1.702  16.292  11.855  0.1987 -0.0750  0.0013
25393W        W38807  18.052  17.441  13.966  0.0952 -0.2724  0.1121
25394W        W38808  10.534   4.066  11.154  0.1107 -0.2059 -0.0213
25395W        W38809   1.773   9.233  14.373  0.1967 -0.4046  0.2059
25396W        W38810   6.617   7.921   4.417 -0.1153 -0.1058  0.1699
25397W        W38811  10.727   5.685   3.204  0.0976  0.0990  0.1109
25398W        W38812   8.182   8.741  13.990 -0.2819 -0.0373 -0.0814
25399W        W38813  10.896   9.358   0.006 -0.2811 -0.0100  0.0471
25400W        W38814  15.248  15.714  13.537 -0.2375  0.0141  0.0923
25401W        W38815   7.029  15.307   6.360 -0.1188 -0.1385  0.0904
25402W        W38816   1.164  17.335  11.849 -0.1043 -0.1735 -0.2186
25403W        W38817  13.034   2.814  11.096  0.0003 -0.3686 -0.2745
25404W        W38818  11.681   3.543  14.737  0.1444 -0.0822  0.2636
25405W        W38819   7.864   8.309  15.369 -0.2082 -0.1008  0.2448
25406W        W38820   8.344  10.419  15.803  0.1203 -0.2618  0.0840
25407W        W38821   6.051   6.611   1.124  0.0377 -0.1489 -0.0553
25408W        W38822  17.452   1.929   0.902 -0.1364  0.3075 -0.3502
25409W        W38823  12.247  11.395  11.847  0.2769  0.3277  0.1952
25410W        W38824  10.119   6.510  13.366  0.1924  0.0266 -0.2270
25411W        W38825   3.960  11.944   3.475 -0.1512 -0.0250 -0.1415
25412W        W38826  17.198   7.300   2.647 -0.0050 -0.1118 -0.0771
25413W        W38827  13.617   3.512  14.872 -0.0714 -0.2974  0.1070
25414W        W38828  17.597  13.170  10.712 -0.0734 -0.1480  0.2013
25415W        W38829   3.722  10.795   2.694 -0.0597  0.1472  0.0004
25416W        W38830   5.920  15.842  14.839  0.0807 -0.1158  0.1805
25417W        W38831  17.235  16.181   1.405  0.2116 -0.0298  0.0083
25418W        W38832   9.475   7.713  16.599 -0.1337 -0.0221  0.1601
25419W        W38833   2.079  10.085  13.911  0.0734  0.0643  0.0333
25420W        W38834   7.551   9.152   5.487  0.0927 -0.0632  0.2319
25421W        W38835   6.693   2.786  14.717  0.0053  0.2345  0.1077
25422W        W38836   7.332   5.442  15.146 -0.2014 -0.0599 -0.1162
25423W        W38837  14.484   5.799   0.224 -0.1819  0.0172 -0.0588
25424W        W38838   6.996   7.782   5.721 -0.4000  0.0443 -0.2518
25425W        W38839   8.256   9.735  15.160 -0.0174 -0.1930  0.1606
25426W        W38840  15.922  11.623  13.685  0.2106  0.3897 -0.3481
25427W        W38841   4.919  17.051  13.117 -0.3813  0.0949  0.1601
25428W        W38842  12.013  10.595  16.187  0.0202 -0.2058 -0.1086
25429W        W38843   6.212   2.073   3.266 -0.1635 -0.2050 -0.0479
25430W        W38844  10.157  14.179  14.434 -0.0757 -0.1408 -0.1712
25431W        W38845  12.458   7.402  12.607  0.0136  0.2312 -0.0223
25432W        W38846  14.388  11.545  14.482  0.2743  0.0471 -0.0701
25433W        W38847  13.155   0.251  14.929  0.1409 -0.0114  0.0566
25434W        W38848  15.784   8.694  11.819 -0.0035 -0.0304 -0.0593
25435W        W38849   3.395  17.255  14.910  0.0081 -0.1856  0.1517
25436W        W38850   5.866  10.048  10.934  0.0702 -0.0875 -0.1220
25437W        W38851  16.087  17.165   1.639  0.4669  0.1551 -0.1609
25438W        W38852   3.976   6.957  11.384  0.2394 -0.1561 -0.1802
25439W        W38853   3.797  13.215   1.189  0.0721 -0.3071  0.0204
25440W        W38854   6.897  17.077   0.381 -0.1684  0.1324 -0.2245
25441W        W38855  16.697   8.943  15.982 -0.3645 -0.0781  0.1482
25442W        W38856   7.611   4.216   1.642 -0.1208  0.2079 -0.1533
25443W        W38857  11.165   6.653  12.040 -0.1732 -0.3036 -0.1064
25444W        W38858   2.679  16.025  14.806  0.0294 -0.1588 -0.1344
25445W        W38859  13.366   0.288   4.526  0.1248 -0.1181  0.0610
25446W        W38860  17.018  13.458  13.392 -0.0998 -0.0777  0.0945
25447W        W38861  15.100   4.131   6.248 -0.0770  0.0349  0.2321
25448W        W38862   2.206   4.758   5.061 -0.0060  0.2637 -0.0153
25449W        W38863  16.840  15.637   1.153 -0.0324  0.0461  0.1572
25450W        W38864  10.325  14.694   6.218  0.3394 -0.4329 -0.0416
25451W        W38865   1.890   5.430  11.453  0.1826  0.1062 -0.0196
25452W        W38866  11.717   0.216  14.854  0.3004 -0.0384  0.0378
25453W        W38867   6.401   9.609   5.753 -0.1933  0.2726  0.3632
25454W        W38868   5.577  14.101  14.294  0.2042 -0.0877 -0.0780
25455W        W38869   4.998   1.808   0.172  0.1141 -0.1798 -0.0803
25456W        W38870   2.982   4.930  14.404  0.2409 -0.0042  0.0038
25457W        W38871   7.195   9.477  11.116  0.1011  0.0503  0.0317
25458W        W38872   5.052   7.830  11.200  0.0100  0.2615 -0.0391
25459W        W38873  12.280   1.985   3.301  0.0215 -0.4878 -0.0453
25460W        W38874  16.923  13.180  15.522  0.0982 -0.0090  0.0565
25461W        W38875   5.452  17.260  15.523 -0.0565  0.1470 -0.1684
25462W        W38876   5.041   6.208   5.183  0.1759  0.2641  0.0851
25463W        W38877   8.970  12.911   3.080 -0.0430 -0.2076  0.1060
25464W        W38878  13.500   6.477  11.286 -0.1574  0.2778 -0.0176
25465W        W38879  14.548   4.259  16.116 -0.2282  0.1287 -0.0420
25466W        W38880   9.017   2.527   0.909 -0.0685 -0.0864  0.0504
25467W        W38881  12.716   2.987   3.468  0.0733 -0.0829 -0.0365
25468W        W38882  18.038  12.905   3.197  0.1361  0.1107  0.1278
25469W        W38883  15.560  12.383  14.496  0.2048 -0.1184  0.3753
25470W        W38884  10.038   3.651  14.022 -0.1068 -0.1693  0.0892
25471W        W38885  15.743  14.826  14.332  0.3289  0.0645 -0.2079
25472W        W38886  16.772  14.168   0.749 -0.1004  0.0019  0.1456
25473W        W38887   7.331  11.772  12.826 -0.1888 -0.1352 -0.0248
25474W        W38888   8.710  16.146  10.571 -0.1302 -0.1464  0.0171
25475W        W38889   3.465   5.076   3.871  0.0231 -0.1153 -0.2814
25476W        W38890   7.366   1.218   1.796 -0.3461  0.0904  0.1566
25477W        W38891   5.896  12.716   0.037 -0.1045  0.1647 -0.1166
25478W        W38892   1.962   7.298   4.226 -0.3764 -0.0206  0.0019
25479W        W38893   5.050  14.660  12.659 -0.0502 -0.0184 -0.0228
25480W        W38894  10.800   0.667  11.564  0.1761 -0.0080 -0.0325
25481W        W38895  13.313  16.826   0.374  0.1538  0.1236  0.0156
25482W        W38896  10.768   0.693   4.744  0.2986 -0.1192 -0.2504
25483W        W38897  13.637   3.002   1.842  0.2581  0.2382  0.1467
25484W        W38898  17.759   0.208   6.859  0.2058  0.0793  0.4031
25485W        W38899  13.190  12.642   0.183  0.2010 -0.0864 -0.0994
25486W        W38900   4.897   5.719   5.099 -0.0297 -0.0266  0.0419
25487W        W38901  12.819   2.158  14.399 -0.0960 -0.0624  0.2331
25488W        W38902   5.256  17.876   1.135  0.1339  0.4024  0.2194
25489W        W38903  13.118   6.397   3.047  0.2181  0.4120 -0.0118
25490W        W38904  15.077   6.243  11.541 -0.1064 -0.1756 -0.0391
25491W        W38905   0.120   9.236   3.139 -0.3598 -0.1665  0.3116
25492W        W38906   0.724  12.264   2.541  0.0742  0.1935 -0.1423
25493W        W38907   2.458  17.811   2.970  0.1099 -0.3089 -0.1335
25494W        W38908   8.041  12.395  14.141 -0.1869 -0.1237 -0.2689
25495W        W38909   0.638  18.019  14.223  0.2730 -0.1152  0.1001
25496W        W38910  15.571  14.811   5.097  0.1154  0.0894 -0.2099
25497W        W38911   7.092  17.582  11.578  0.0724  0.0418  0.1049
25498W        W38912   3.960  15.420   6.594 -0.0424 -0.0690 -0.1699
25499W        W38913   9.675  15.564   2.458  0.0304 -0.3304 -0.0510
25500W        W38914   1.829  17.000  16.078  0.1660 -0.2076 -0.2021
25501W        W38915   0.169  15.494   2.636 -0.0061  0.0183  0.0047
25502W        W38916  11.068  14.218   4.633 -0.0564 -0.2294 -0.1527
25503W        W38917   3.788  10.758   3.988  0.0235 -0.0515 -0.0454
25504W        W38918  11.672   1.315  13.415 -0.1494  0.0238 -0.0832
25505W        W38919  15.326   6.690  15.857 -0.2808  0.0879  0.3028
25506W        W38920   8.874  11.673  11.400  0.2637 -0.2941  0.3403
25507W        W38921  12.603  17.436  16.263 -0.2710  0.0259 -0.0216
25508W        W38922   3.506   9.131   5.626  0.3228  0.1344 -0.0249
25509W        W38923   8.423   9.061   1.100  0.2016 -0.0428  0.0040
25510W        W38924   1.494   7.420   1.073  0.2348  0.0162  0.1712
25511W        W38925  15.523   1.327   1.810 -0.2493  0.0405 -0.3379
25512W        W38926   4.291   5.542  12.487 -0.0287 -0.3061 -0.0130
25513W        W38927   9.634   9.850  11.362 -0.0369  0.2271 -0.1071
25514W        W38928   8.968   6.413   2.696  0.1647  0.1841  0.1241
25515W        W38929   5.145  16.572  12.183  0.0346 -0.0113  0.0009
25516W        W38930  17.439   8.037  15.042 -0.1538 -0.0437  0.1466
25517W        W38931  14.363   1.353  14.984  0.0886 -0.1508 -0.0815
25518W        W38932  11.900   1.385  15.845  0.1302  0.0042  0.0472
25519W        W38933   1.507   8.432  15.252 -0.1031 -0.0722  0.0853
25520W        W38934   2.759  12.558   3.930 -0.0323  0.1427  0.0492
25521W        W38935  14.030   6.606  11.479 -0.0659 -0.1656  0.6197
25522W        W38936   1.778   6.696  12.181 -0.0056  0.0342  0.1002
25523W        W38937  15.277   8.840   2.184  0.4001  0.4387  0.3126
25524W        W38938  17.717  13.902  11.225  0.1112 -0.0886  0.1910
25525W        W38939   9.203  15.500  12.007  0.0778  0.0834 -0.3196
25526W        W38940  16.321   9.834   2.167 -0.3057 -0.0401  0.1330
25527W        W38941  10.809  14.054  15.814 -0.2671  0.2389  0.0037
25528W        W38942   4.791  13.072   3.046 -0.0741  0.1439  0.2387
25529W        W38943   2.779   2.505  15.159 -0.1138 -0.2058 -0.0760
25530W        W38944   6.390   0.606   0.787  0.1484  0.2276 -0.1951
25531W        W38945   7.819  10.225   0.524 -0.1147 -0.2789  0.1956
25532W        W38946   0.109   9.625  14.216  0.0979 -0.0902  0.3676
25533W        W38947   0.715   9.107   2.301 -0.2457 -0.1036 -0.0611
25534W        W38948   3.900   9.780  13.999 -0.2201 -0.2119 -0.1397
25535W        W38949   0.024  13.044  14.882 -0.0203 -0.0550  0.3539
25536W        W38950  16.953   3.275  12.072 -0.0122 -0.1942  0.0723
25537W        W38951  17.462   8.348  16.386  0.2960  0.2734  0.0235
25538W        W38952  14.743  10.045  10.701  0.0957 -0.6045  0.1352
25539W        W38953   7.916  16.996  11.527 -0.1180  0.2246  0.1470
25540W        W38954  16.360   1.286  10.670  0.0587 -0.0369  0.0350
25541W        W38955   2.542   3.429   2.835 -0.3085  0.1049  0.1078
25542W        W38956   5.923  16.363   1.847  0.0065  0.0282 -0.1412
25543W        W38957   9.317   5.789   4.950 -0.2528 -0.3056  0.0901
25544W        W38958   8.531  10.997   1.139  0.0882  0.0855  0.2831
25545W        W38959   7.812  12.719  11.970 -0.1600 -0.0501 -0.0559
25546W        W38960   4.929  10.194  13.201  0.0645  0.0407 -0.1788
25547W        W38961  17.526  12.176  16.423  0.2431  0.2576  0.0448
25548W        W38962   9.055   6.893  11.424  0.0405 -0.2471  0.2694
25549W        W38963   8.774   4.939  13.292 -0.0697  0.1302  0.1076
25550W        W38964  10.177  12.257  14.347 -0.1590  0.3611  0.2613
25551W        W38965   8.697   0.627  11.356  0.1163  0.2152 -0.0680
25552W        W38966   1.213  11.034   5.897 -0.1203  0.2896  0.2875
25553W        W38967   1.409   8.595  13.200  0.5122 -0.0499  0.0256
25554W        W38968   5.490  10.961  10.399  0.1362  0.0010 -0.0177
25555W        W38969  12.435   6.503   1.823  0.3440  0.1675  0.2295
25556W        W38970  16.268  13.163   1.415 -0.1871  0.3040  0.2476
25557W        W38971  16.444   9.529  15.683  0.0653  0.0135  0.0044
25558W        W38972  16.472   8.348  14.412  0.0085 -0.1332 -0.0824
25559W        W38973  11.886  11.123  12.745  0.0383 -0.0239 -0.0451
25560W        W38974   8.283   4.791   0.646 -0.0069 -0.2642  0.0322
25561W        W38975   1.982  12.043  11.617 -0.1394 -0.4459  0.0545
25562W        W38976  10.249  16.946   3.236  0.1537  0.0095 -0.0119
25563W        W38977   8.542  16.047   4.537  0.0636 -0.2408 -0.0999
25564W        W38978   9.433   7.618   5.309  0.1624 -0.0003 -0.0089
25565W        W38979   1.947  12.714  10.795  0.1354  0.0732 -0.2327
25566W        W38980  17.052  17.679  11.671 -0.0248 -0.0485 -0.2959
25567W        W38981   3.426   7.293   6.282 -0.3154 -0.1280 -0.0879
25568W        W38982   0.362  14.377   5.162 -0.3287 -0.1143 -0.0305
25569W        W38983   1.813   4.190   4.164  0.0705 -0.1549 -0.1554
25570W        W38984  17.053  11.594   0.447  0.1551 -0.0458  0.3980
25571W        W38985   2.472   5.868  13.458  0.0110 -0.1528  0.3399
25572W        W38986  16.194   2.190   0.982  0.0030 -0.3463  0.0207
25573W        W38987  10.203  12.690  14.648 -0.0969  0.0537 -0.0683
25574W        W38988  11.255   8.745   5.075 -0.0594  0.0545  0.0040
25575W        W38989   1.502   8.090  14.816 -0.0170 -0.0841 -0.1511
25576W        W38990  10.345   7.255  15.454 -0.2116  0.0971  0.0108
25577W        W38991   2.821  13.912  14.584  0.1118  0.0297  0.4045
25578W        W38992  10.759  10.827   5.966 -0.1961 -0.1019  0.2342
25579W        W38993  14.930   7.125   1.319 -0.0314 -0.0488 -0.0593
25580W        W38994  10.538  10.336   4.819  0.2143 -0.2175 -0.2355
25581W        W38995   7.159   0.755   2.344  0.1665 -0.0887 -0.5051
25582W        W38996   6.177   5.054   0.937  0.4415 -0.5344 -0.0457
25583W        W38997  15.020  14.285  14.728  0.0575 -0.1264  0.2472
25584W        W38998   9.632  13.770  16.451 -0.0630 -0.1014 -0.1461
25585W        W38999  11.946  17.151  13.780  0.0318  0.0972  0.0146
25586W        W39000   5.015   3.802   3.195 -0.1227  0.1053 -0.1935
25587W        W39001   3.738  17.669   2.428 -0.1839  0.0432 -0.0008
25588W        W39002   3.181   1.780   6.142 -0.2755 -0.3669 -0.0969
25589W        W39003   0.557   9.694   4.742  0.0400 -0.1543  0.2502
25590W        W39004   6.759   0.470   2.468  0.2957 -0.1531  0.0335
25591W        W39005  12.308   5.239  15.633  0.2215  0.2351  0.1189
25592W        W39006  12.648   6.796  11.485  0.0018 -0.0046 -0.0845
25593W        W39007   8.552  16.733  13.444  0.1477  0.0755  0.0712
25594W        W39008   9.793  16.055   5.132  0.1118  0.0010  0.2730
25595W        W39009  15.310   4.085   3.935 -0.2457 -0.0207  0.2649
25596W        W39010  14.112   0.993   0.773 -0.1616  0.2558  0.2688
25597W        W39011   0.128  15.165  13.198 -0.3172  0.0808  0.1010
25598W        W39012  11.578  13.797   0.803  0.1448 -0.0475  0.0059
25599W        W39013  12.532  12.509   3.268  0.0375 -0.1572  0.0160
25600W        W39014   1.240   6.964  11.826  0.0691  0.1460 -0.3644
25601W        W39015  10.319   5.906   4.405  0.0340  0.0778  0.1137
25602W        W39016  13.161  11.116   4.454  0.0505 -0.1708 -0.0856
25603W        W39017   3.193   7.574   5.336  0.2628 -0.1570 -0.2229
25604W        W39018  13.222   2.509  15.765 -0.1770 -0.3846 -0.0219
25605W        W39019   1.364  10.643   1.630 -0.2430  0.0426 -0.2250
25606W        W39020  17.829   2.493  11.968 -0.1629 -0.3027 -0.0135
25607W        W39021   0.166  10.140   4.081 -0.2019  0.1165  0.0336
25608W        W39022   3.252   4.111  13.681  0.1477 -0.0094 -0.1703
25609W        W39023   6.473  10.005  10.951  0.1022 -0.1556  0.1245
25610W        W39024   1.615  16.913   5.456 -0.2658 -0.0331 -0.0815
25611W        W39025   6.936  12.736   5.497 -0.2143  0.0597  0.1790
25612W        W39026  12.410  17.814   3.141 -0.1173  0.0684 -0.1790
25613W        W39027  15.794  15.301   5.054  0.2964  0.1025  0.0225
25614W        W39028   2.512   0.683  14.494 -0.1156  0.0481  0.1051
25615W        W39029  15.801   9.822   3.007  0.1214 -0.0368 -0.3197
25616W        W39030   3.491   2.430   1.049  0.0514 -0.3478  0.1786
25617W        W39031   0.889  12.709   3.056 -0.0184  0.2314 -0.1229
25618W        W39032  11.095   1.930   6.113 -0.0822  0.1618 -0.1103
25619W        W39033   5.109  16.649  13.634  0.3384 -0.0205 -0.1774
25620W        W39034   6.421   5.661   2.708 -0.0977  0.0423 -0.2044
25621W        W39035   9.404  13.814   5.023 -0.0382  0.0801  0.0239
25622W        W39036  12.330  12.726  13.700 -0.1070 -0.1574 -0.0446
25623W        W39037   4.222   9.622  15.571  0.2694  0.2549 -0.0093
25624W        W39038   4.775   9.738  14.969  0.0013 -0.1664  0.2471
25625W        W39039   0.897  11.334   2.869 -0.0202  0.1576 -0.0735
25626W        W39040  10.851   3.527  15.318  0.2721  0.0135  0.3216
25627W        W39041  11.331   8.097  15.840  0.0517 -0.0799 -0.0083
25628W        W39042   2.287  13.967   6.092 -0.0152 -0.1684 -0.1414
25629W        W39043   1.169  16.553  15.987  0.2630 -0.3619 -0.0846
25630W        W39044  15.188   9.801   3.416  0.1743 -0.4329  0.1756
25631W        W39045  11.344   5.502   5.214  0.0312 -0.0310  0.1778
25632W        W39046   9.626   1.771  15.827  0.0497  0.3011  0.0485
25633W        W39047  10.236  10.132   4.052  0.0725  0.2675 -0.0187
25634W        W39048   1.173  11.473   1.859  0.2203  0.0122 -0.2269
25635W        W39049  12.067   0.564   6.036 -0.2384  0.0349 -0.2253
25636W        W39050  13.937   8.126  13.387  0.0374  0.1311  0.3184
25637W        W39051   9.751  10.668   4.629  0.3852  0.0982  0.1397
25638W        W39052   9.557   9.808  10.518  0.0772  0.3475 -0.1067
25639W        W39053  17.377   0.271   0.079 -0.0209 -0.1913  0.3504
25640W        W39054   3.288   9.006  11.690 -0.3083 -0.1882  0.1504
25641W        W39055  14.300   6.027   2.649  0.0021  0.1771 -0.1531
25642W        W39056   2.248  14.281   1.638 -0.4147 -0.1916  0.1734
25643W        W39057   0.796  11.797  15.457  0.0551  0.0195  0.0070
25644W        W39058   2.369  13.164  12.268 -0.2238  0.0352  0.1583
25645W        W39059   8.497  14.527   2.521  0.0562 -0.2169 -0.1801
25646W        W39060   1.538   7.567  14.905 -0.1082 -0.2491 -0.1874
25647W        W39061   8.633  13.573  10.797  0.1538 -0.2823 -0.2217
25648W        W39062   0.841   8.341  12.463  0.0060 -0.0629  0.0552
25649W        W39063  11.335  15.873   2.198 -0.1063  0.0651 -0.1382
25650W        W39064   3.301   7.607  16.639 -0.0354  0.0477 -0.0359
25651W        W39065   9.208  12.326  15.427 -0.0483  0.1285 -0.1723
25652W        W39066   3.670   5.727   0.834  0.1769 -0.3374  0.1263
25653W        W39067  15.315  11.972  15.361 -0.2440 -0.2811 -0.0467
25654W        W39068  11.325  15.357   2.356 -0.0939  0.0735  0.0262
25655W        W39069   2.173  12.880   0.995  0.1499 -0.0427 -0.2802
25656W        W39070  15.516   6.287   0.091 -0.0924  0.2477  0.1770
25657W        W39071  14.919  16.951   3.489 -0.0182  0.1953 -0.0798
25658W        W39072   4.882   4.915  13.071 -0.1503  0.2307  0.0943
25659W        W39073  15.132  11.975   4.473  0.3929 -0.0568 -0.1550
25660W        W39074  15.044  10.036  14.995 -0.2157 -0.2954 -0.1736
25661W        W39075  11.877   3.336  14.174 -0.1837  0.0637 -0.3361
25662W        W39076   2.295  12.964   3.804 -0.0899  0.0962  0.1807
25663W        W39077  13.488   8.754  12.414  0.1878 -0.0929  0.1622
25664W        W39078  13.044  13.171   2.468 -0.0699 -0.1334 -0.0858
25665W        W39079   0.008  16.562   1.603 -0.1586 -0.2959  0.2154
25666W        W39080  11.522  12.943  11.486  0.2033  0.2053 -0.1943
25667W        W39081   4.374   5.911  10.591  0.1839  0.0123  0.3141
25668W        W39082   8.775  15.408   2.410  0.0683  0.0137  0.0086
25669W        W39083  17.014   2.624  13.547  0.1070 -0.0319 -0.2724
25670W        W39084   1.194   3.582  12.893  0.2176 -0.0681  0.2573
25671W        W39085   5.551  10.735  12.217 -0.1490 -0.2250  0.3852
25672W        W39086   6.164   7.645   1.800 -0.2015  0.0983 -0.0328
25673W        W39087   1.718   3.268   2.601  0.3299 -0.3634  0.1286
25674W        W39088   8.903  17.785   0.527 -0.0004  0.0082  0.0923
25675W        W39089   7.535  12.714  10.121 -0.0031  0.4802 -0.1616
25676W        W39090  16.786  12.474   1.786 -0.1271  0.1083 -0.1453
25677W        W39091   1.791   2.510  13.997 -0.1570  0.0647  0.0577
25678W        W39092  11.538   1.161  14.223 -0.0322  0.0144 -0.2592
25679W        W39093  14.339   1.237  14.403 -0.0932 -0.2713 -0.1269
25680W        W39094   1.322  14.224   1.397 -0.0811  0.1295  0.1706
25681W        W39095  15.733  15.697   6.031 -0.2759 -0.1129 -0.0508
25682W        W39096   4.151   5.018   2.359 -0.1580 -0.0292 -0.2702
25683W        W39097  15.052  11.840   1.603 -0.3501 -0.1637 -0.0055
25684W        W39098   2.453   5.343   5.055 -0.1497  0.1827 -0.1605
25685W        W39099  18.046   7.969  15.739  0.0622 -0.2222  0.2986
25686W        W39100  13.279   8.235  11.454 -0.0084  0.2507  0.1153
25687W        W39101  15.504  13.930   2.922 -0.0952 -0.2778  0.0529
25688W        W39102  12.270   9.002   1.738 -0.1131  0.2901  0.0247
25689W        W39103  16.201   4.353   4.082 -0.0087 -0.1494  0.0901
25690W        W39104   4.344  11.291  12.520  0.1323 -0.2471 -0.1301
25691W        W39105   3.193   5.907   1.162 -0.0273  0.0177  0.0300
25692W        W39106  17.969  15.622  15.405  0.0715  0.1528  0.1294
25693W        W39107   6.457  13.224   1.247  0.1814 -0.0450 -0.2368
25694W        W39108   2.841  10.278   2.385 -0.2027  0.2053  0.1334
25695W        W39109   4.650   2.921   2.853  0.3749  0.0132  0.0148
25696W        W39110   5.995   1.662   3.162  0.0269 -0.2773  0.1164
25697W        W39111   7.365   7.684  15.776 -0.2986  0.0774  0.3974
25698W        W39112  16.646  16.456   0.197 -0.0421 -0.2304 -0.4423
25699W        W39113  12.422  14.735   2.418 -0.1602  0.2996  0.0500
25700W        W39114   3.788   1.195  11.629 -0.0921 -0.2338  0.0068
25701W        W39115   9.569   0.682  13.781 -0.3894 -0.1892 -0.2027
25702W        W39116  10.307   5.973   3.287  0.2023  0.0836  0.0566
25703W        W39117   3.536   9.348  15.267  0.0410 -0.3083 -0.1474
25704W        W39118  12.564   6.108   4.313 -0.0225  0.0790 -0.1583
25705W        W39119   9.545   5.054  11.902  0.1286 -0.2434 -0.2824
25706W        W39120  15.736  10.892  15.171 -0.2356 -0.1244  0.0368
25707W        W39121  17.614   8.897   0.556  0.1715 -0.2402 -0.2613
25708W        W39122   4.420  14.343   0.847  0.0250  0.0772  0.0668
25709W        W39123   9.136  13.395  10.731 -0.1383  0.1330  0.1994
25710W        W39124   6.359  10.202   4.984  0.1543  0.2503  0.0329
25711W        W39125   5.973  12.407   1.016  0.0716  0.0740 -0.0343
25712W        W39126  13.381   7.702   4.822 -0.0930 -0.0971  0.1681
25713W        W39127   3.927  12.615  14.885 -0.3087 -0.1943 -0.1183
25714W        W39128   9.867   5.333  14.284 -0.1313 -0.0631 -0.0139
25715W        W39129   5.117   1.560  15.288 -0.1945 -0.3519  0.5015
25716W        W39130   5.178   0.404  13.313 -0.0594  0.3307  0.1911
25717W        W39131  15.034  14.684  15.041  0.2277  0.2225  0.4235
25718W        W39132  17.130  17.354   3.506 -0.2163 -0.1447 -0.2576
25719W        W39133   7.482   7.229  15.598  0.1210 -0.0769 -0.0551
25720W        W39134   7.473   8.124  12.755  0.5535  0.1501 -0.0010
25721W        W39135  13.686  15.370   2.728  0.0143  0.4084  0.1234
25722W        W39136   6.847  12.245  16.126  0.0695  0.1486  0.0875
25723W        W39137   2.074  11.777  13.749 -0.0130  0.1063 -0.3672
25724W        W39138   1.542   6.083  16.415 -0.2478 -0.2056 -0.2912
25725W        W39139   1.941  14.265   6.656  0.2103  0.1565  0.1597
25726W        W39140  13.172   9.536  14.165  0.1506 -0.0136 -0.0082
25727W        W39141   9.256  12.740  13.553 -0.0615  0.0491  0.3572
25728W        W39142   7.823   3.866  15.482 -0.0760  0.1574  0.1400
25729W        W39143   7.020   8.055  15.352  0.2076  0.0219  0.1305
25730W        W39144   7.328  10.699  14.711 -0.2215  0.0410  0.1213
25731W        W39145   3.463   0.875  15.435  0.1788  0.2621  0.0380
25732W        W39146  14.321   2.780   3.604  0.1756  0.1558 -0.1022
25733W        W39147   3.826  16.269   2.936  0.0536 -0.2077  0.0218
25734W        W39148   0.313  16.378   3.738 -0.0271 -0.1073  0.3884
25735W        W39149   7.470   9.388  16.145  0.0779 -0.4029  0.1290
25736W        W39150  12.973   0.020   5.308 -0.2021  0.1366  0.1428
25737W        W39151  11.506   0.626   1.442  0.1901  0.1659 -0.2274
25738W        W39152   1.711  15.642   5.976  0.0368 -0.0837 -0.0905
25739W        W39153   5.997   4.789  14.294 -0.0841  0.4417 -0.0495
25740W        W39154   5.514  13.565   1.175 -0.0680 -0.0322  0.0138
25741W        W39155  13.970  16.208   0.301 -0.1961 -0.1183  0.3038
25742W        W39156   8.911  15.729   4.361  0.2638 -0.0497  0.0614
25743W        W39157   3.352  12.551   3.288  0.2721 -0.0698 -0.1035
25744W        W39158  13.472  13.299  16.161  0.5572 -0.3242 -0.2372
25745W        W39159  14.675   0.238  15.683  0.2226 -0.1378  0.0305
25746W        W39160   1.140  13.134  13.370  0.0714  0.0875  0.1305
25747W        W39161  13.926   7.124   6.895 -0.0028  0.0015  0.0634
25748W        W39162  15.130   7.772   4.780 -0.2615 -0.3101  0.1480
25749W        W39163   7.334  14.520   3.249 -0.0512  0.0701  0.1701
25750W        W39164  10.246   0.979   0.809 -0.3162 -0.3216 -0.0642
25751W        W39165   9.662   5.295   1.154  0.1648  0.0890 -0.1296
25752W        W39166   6.015   7.500  14.671  0.0704 -0.0462  0.2167
25753W        W39167   3.870   1.920   5.400 -0.2653 -0.0203 -0.0138
25754W        W39168   2.401   6.832   2.385 -0.1369  0.1022 -0.1344
25755W        W39169  14.006  10.041  14.201  0.1062  0.0848 -0.2654
25756W        W39170   8.000   1.463  15.272 -0.1056 -0.1447 -0.5058
25757W        W39171  11.767   2.605  15.833  0.1281 -0.1993  0.0085
25758W        W39172  14.634   7.404  13.641  0.3855 -0.0668 -0.0201
25759W        W39173   6.539  11.773  16.378  0.0414  0.2424  0.0822
25760W        W39174  15.582   8.483   2.402  0.1029  0.0926  0.2048
25761W        W39175   9.373   4.721   9.734  0.0082 -0.0936  0.0566
25762W        W39176   7.270  16.275   5.824  0.4350  0.1406 -0.0478
25763W        W39177  13.905  15.445  12.873  0.0530  0.1883 -0.0813
25764W        W39178   3.541   9.521   0.015  0.0103 -0.1776 -0.1952
25765W        W39179  11.345  10.793   0.834 -0.3062  0.0333  0.0111
25766W        W39180   2.272   2.780  15.284 -0.0760  0.0788  0.2970
25767W        W39181  16.305  10.795  13.937  0.2569 -0.0376  0.3458
25768W        W39182  16.441   1.854   4.130  0.2016 -0.2682 -0.1481
25769W        W39183   6.574   7.459   4.597 -0.1356  0.0429 -0.0404
25770W        W39184  11.138   2.255  13.539  0.3850  0.1391  0.0336
25771W        W39185  16.222   7.398   2.993 -0.0454  0.0893 -0.0768
25772W        W39186   4.117   2.650  10.494 -0.1300  0.1087 -0.0436
25773W        W39187  13.125   6.832  14.811  0.0701  0.0386 -0.0279
25774W        W39188   9.207  15.823   3.829 -0.0911  0.0919 -0.1340
25775W        W39189  13.374  10.456  10.412  0.0675  0.2890 -0.1040
25776W        W39190   4.167  13.685  14.973  0.3767 -0.3528 -0.3791
25777W        W39191  10.498   4.314   6.300 -0.0521 -0.0364  0.0615
25778W        W39192   6.437  10.372  14.481  0.0449 -0.0929  0.0163
25779W        W39193   0.511  17.718   5.456  0.0432 -0.1502 -0.0610
25780W        W39194   7.484  10.642   0.868  0.0820  0.0747  0.0145
25781W        W39195  17.386   0.405   2.610  0.2890 -0.1637  0.3170
25782W        W39196   1.372  14.058  12.303 -0.0788 -0.4389 -0.2599
25783W        W39197   1.711   0.613  14.829 -0.2889 -0.1044 -0.2238
25784W        W39198   2.990   9.108   2.781  0.1024  0.1633  0.1126
25785W        W39199   3.950   6.139   3.011  0.2074  0.0725  0.1106
25786W        W39200   4.321  15.985   3.098  0.0887 -0.0955  0.1325
25787W        W39201  17.452  12.086   2.778  0.1686 -0.0757  0.2610
25788W        W39202  15.554  11.397  16.358  0.1647  0.5365  0.1729
25789W        W39203   9.294  11.129   1.833 -0.1047 -0.1519 -0.0313
25790W        W39204   8.706   8.772   1.405  0.2328 -0.1105 -0.1651
25791W        W39205  13.610   0.683   4.177 -0.0772 -0.2375  0.2555
25792W        W39206   1.605   4.617   7.127  0.0498  0.3309  0.1207
25793W        W39207   1.029  13.154   2.235  0.0130 -0.1812  0.0121
25794W        W39208   4.736  16.200   0.834 -0.0310  0.0199  0.0262
25795W        W39209   8.198  10.440  13.795 -0.1150  0.0135  0.0689
25796W        W39210   0.587   9.976   3.677 -0.1500  0.0670  0.0076
25797W        W39211  15.955   6.276   0.921 -0.1337 -0.2265 -0.1269
25798W        W39212  11.172   2.063  15.681  0.0572 -0.0838  0.1348
25799W        W39213  17.105   4.401  12.437 -0.0357 -0.1680  0.2734
25800W        W39214   7.419   3.057  15.661 -0.0194  0.2283 -0.0244
25801W        W39215  16.944   7.501   7.021 -0.0202  0.0455 -0.0762
25802W        W39216  17.376   9.762   2.457 -0.0698  0.1644 -0.1055
25803W        W39217  16.615   4.438  13.159 -0.1238  0.1104  0.2435
25804W        W39218   2.763   6.439   1.222  0.0741  0.4816  0.0438
25805W        W39219   3.159   2.501  16.230  0.1445 -0.0520 -0.0860
25806W        W39220   1.090  14.549  14.157  0.1733 -0.0189 -0.3159
25807W        W39221  12.527  15.417  15.674  0.2381 -0.0544  0.0342
25808W        W39222   3.078  13.047  10.840 -0.1947  0.1349  0.1573
25809W        W39223  14.175   3.677   1.755  0.0086  0.0812 -0.0614
25810W        W39224  11.448  10.253  11.203  0.1139  0.1886 -0.2269
25811W        W39225  10.134  17.837  15.075 -0.0236  0.0996 -0.0382
25812W        W39226   3.022   1.210  11.621  0.0512  0.1186 -0.2785
25813W        W39227  13.287   9.615  14.655  0.0902  0.2520 -0.0366
25814W        W39228   7.051  16.184   0.193 -0.0005 -0.1946  0.1283
25815W        W39229   4.817   7.517   1.263 -0.0416 -0.0867  0.1321
25816W        W39230   7.355   9.336  16.680  0.0622 -0.2278 -0.1826
25817W        W39231   4.628   7.270   2.913 -0.1772  0.1112 -0.2754
25818W        W39232  14.460   3.130   0.480 -0.0207 -0.1846 -0.2217
25819W        W39233  11.680  12.039   1.177 -0.0437 -0.1578  0.0420
25820W        W39234  13.595  14.281  12.208 -0.3819 -0.1044  0.0058
25821W        W39235  12.551  16.432  12.247 -0.1433 -0.0276  0.1787
25822W        W39236   0.573   6.916   6.325  0.0485 -0.1847 -0.0305
25823W        W39237   8.941  11.900   1.926 -0.2030  0.2532  0.0537
25824W        W39238  11.463   0.198  14.447  0.1915 -0.0846 -0.1626
25825W        W39239  12.296   3.758   3.171 -0.3303 -0.2209  0.1945
25826W        W39240   3.026   8.097  12.868  0.0369  0.1723  0.0927
25827W        W39241   5.683   3.686  14.681  0.0895  0.3542  0.1169
25828W        W39242  11.593  15.845   3.521 -0.0661  0.0634 -0.0262
25829W        W39243   7.269   6.876  14.472  0.0317  0.2445 -0.0039
25830W        W39244  13.335  11.075   3.328  0.0515  0.0531 -0.1202
25831W        W39245   4.341   3.207  14.941 -0.1568  0.1767 -0.1540
25832W        W39246  13.636   5.784  16.424  0.4512  0.0052 -0.2059
25833W        W39247   4.052  15.478   0.532  0.0962 -0.0879  0.0781
25834W        W39248   2.949  14.497  11.880  0.0518 -0.1449 -0.0924
25835W        W39249  15.888  17.853   3.010  0.0463  0.0811 -0.2114
25836W        W39250  11.407  12.316  13.748 -0.0710  0.2637 -0.1251
25837W        W39251   1.212  17.302   5.353 -0.1047 -0.0568  0.2135
25838W        W39252  11.739  13.484  15.210 -0.1429  0.1635  0.3006
25839W        W39253  11.008  15.307   1.547 -0.1257  0.2811 -0.0712
25840W        W39254  11.182   9.995   5.479 -0.0405 -0.0629  0.0315
25841W        W39255   2.450  14.233  11.185 -0.1309 -0.1208  0.0863
25842W        W39256   2.692  15.280  10.586  0.1640  0.1711  0.0270
25843W        W39257   8.864   8.517   4.697  0.0622 -0.2268 -0.1537
25844W        W39258  16.469   7.345  12.106  0.0790 -0.1458  0.0930
25845W        W39259   1.400   6.749   5.005  0.0291 -0.3265  0.0714
25846W        W39260   5.495   9.695  14.369  0.0850  0.2477  0.3805
25847W        W39261  13.678  15.699  12.084 -0.0674  0.1564  0.0897
25848W        W39262   9.840  12.396  16.108 -0.0528 -0.0553 -0.0845
25849W        W39263   1.001   3.448   4.344  0.2405  0.1868  0.1590
25850W        W39264   8.786   2.668   3.270 -0.1167 -0.4387 -0.2756
25851W        W39265  16.104   7.007  15.707  0.2521 -0.2844 -0.1050
25852W        W39266   2.123   4.430  15.890 -0.0177  0.0115  0.0874
25853W        W39267   4.171   9.210  16.203  0.0925 -0.1114  0.2621
25854W        W39268   2.913  11.459   0.109  0.1371 -0.2569  0.2045
25855W        W39269  14.451  13.536  11.124  0.2455 -0.1147  0.0842
25856W        W39270  13.562  11.650   1.069  0.1660 -0.1959  0.3030
25857W        W39271   5.281  14.842   1.427  0.0611  0.1679 -0.1223
25858W        W39272  12.408  11.249   0.405 -0.0957  0.0289 -0.0141
25859W        W39273   6.107   5.738  11.731 -0.4627 -0.3251  0.4113
25860W        W39274  16.511  15.815   4.078  0.1941 -0.0657  0.1928
25861W        W39275   1.429   7.059   1.941  0.2879 -0.0553 -0.0996
25862W        W39276   2.537  14.093   5.722 -0.1152  0.0414  0.0011
25863W        W39277   6.866  14.903   1.181 -0.0966 -0.0471  0.3256
25864W        W39278   4.001  15.864  13.899  0.0983 -0.1184 -0.1631
25865W        W39279  13.809   5.062  12.231 -0.1086  0.0285  0.2127
25866W        W39280  14.457   3.135   4.589  0.0331  0.2590  0.2260
25867W        W39281  12.588   3.924  15.466  0.2120 -0.0707 -0.3167
25868W        W39282  13.669   8.803   0.702 -0.2391  0.0247  0.2490
25869W        W39283   4.708  17.626   1.842  0.0300 -0.1284  0.0138
25870W        W39284   0.981   6.904  15.914 -0.3530 -0.0413 -0.1564
25871W        W39285  12.314   7.217  14.401 -0.3276 -0.1352  0.0038
25872W        W39286   5.338   1.311   5.864 -0.4087  0.1093  0.0898
25873W        W39287  15.546   2.278  12.750 -0.3972  0.3841 -0.0422
25874W        W39288   0.204  13.309  14.508 -0.2165  0.0009  0.0297
25875W        W39289   9.284   4.837   0.527 -0.1099  0.0624 -0.1658
25876W        W39290   7.531  12.258  13.159  0.0035  0.3021  0.2452
25877W        W39291  17.525   4.010  15.746  0.1759  0.1095 -0.1104
25878W        W39292  15.488  17.088   4.406  0.0232 -0.1846 -0.1220
25879W        W39293   4.978  10.578   6.462 -0.3486  0.1525 -0.2113
25880W        W39294  17.408   3.188   4.915 -0.0598  0.1187 -0.0377
25881W        W39295  17.872   7.564   0.902 -0.0095  0.1216  0.2350
25882W        W39296  15.783   7.302   0.302 -0.4296  0.2280 -0.0849
25883W        W39297  12.550  17.951   4.033 -0.3205 -0.3668 -0.0342
25884W        W39298  17.481  10.544  15.569 -0.3522 -0.2054  0.0533
25885W        W39299   5.001   0.760  10.302 -0.1645 -0.2836  0.4934
25886W        W39300  13.299   5.889   5.005 -0.0970 -0.4368 -0.1972
25887W        W39301   8.211   4.228   4.434 -0.0874 -0.1395 -0.3950
25888W        W39302   8.384  18.051  16.608 -0.0239  0.0685 -0.1480
25889W        W39303   3.046   8.431  14.101  0.1825  0.0010  0.1949
25890W        W39304   7.175   2.503  14.503  0.1428  0.0432 -0.2690
25891W        W39305  15.098   2.669   0.056  0.0556 -0.0287  0.0304
25892W        W39306   2.626   4.836   4.107 -0.0663 -0.0964 -0.1484
25893W        W39307  11.720   4.129   6.031  0.1214  0.3405 -0.1746
25894W        W39308  13.832  12.472  12.903 -0.0645 -0.4657  0.0241
25895W        W39309  16.231  11.241   5.227 -0.2119 -0.0123 -0.1737
25896W        W39310   8.047   3.827   4.795  0.0817  0.2002  0.0171
25897W        W39311  10.847   6.364  13.651  0.2037 -0.0359  0.0741
25898W        W39312   2.487   6.996   6.413 -0.2212  0.0015 -0.2493
25899W        W39313   3.003   1.691   1.141  0.2029 -0.0262 -0.2718
25900W        W39314   5.565   2.663   1.483 -0.0115 -0.1174 -0.2370
25901W        W39315   5.225  13.629  14.723 -0.4512 -0.0846 -0.2061
25902W        W39316  13.039  13.518  11.844 -0.1200  0.3054  0.0433
25903W        W39317   5.016  15.295   5.305 -0.0476  0.1458  0.1266
25904W        W39318   3.848  15.951   1.265 -0.0061  0.0881 -0.1723
25905W        W39319  10.946   0.330   4.086  0.0621 -0.1672 -0.2740
25906W        W39320  16.091  10.124  12.671 -0.0782  0.0306 -0.0376
25907W        W39321   0.840   2.926   4.430 -0.2177 -0.2636 -0.0600
25908W        W39322   0.408  12.070  16.450  0.0384  0.1630  0.0949
25909W        W39323   0.912   2.271  14.348  0.2018  0.1105 -0.2179
25910W        W39324  15.795   8.587   5.181 -0.0904  0.3207  0.0737
25911W        W39325   6.903   0.107   4.109 -0.0184  0.0952  0.4578
25912W        W39326  12.517  13.276  14.427  0.1175 -0.2005 -0.0696
25913W        W39327   8.381   3.187  14.105 -0.1362  0.0292 -0.0746
25914W        W39328   1.909  11.152  13.343  0.1104  0.0590  0.1191
25915W        W39329  14.478   6.345   0.106 -0.1555  0.0268 -0.2997
25916W        W39330  11.734  12.918  14.575  0.0341  0.0336  0.0751
25917W        W39331   0.214   4.332  12.131  0.0785  0.1925  0.2784
25918W        W39332  16.866   6.988   3.444  0.0444 -0.1440 -0.0283
25919W        W39333   6.011   1.900   5.772  0.3190 -0.2673  0.1787
25920W        W39334   1.446  10.677  15.597 -0.2229 -0.5885  0.0463
25921W        W39335  14.013  17.413   0.990 -0.2287 -0.0738  0.0458
25922W        W39336   6.236   8.844   0.049 -0.1289 -0.1675 -0.0186
25923W        W39337   8.219  11.751   1.244  0.0646 -0.0891  0.1502
25924W        W39338   4.644  11.374   1.988  0.1066  0.0387  0.2994
25925W        W39339   0.511   4.372   0.375 -0.1859  0.0846  0.1857
25926W        W39340   0.393  13.727  16.598 -0.1437 -0.0708 -0.3497
25927W        W39341  16.145  14.880   4.342  0.0833  0.0005  0.2650
25928W        W39342  12.165  12.046   5.775  0.0085 -0.0204  0.2196
25929W        W39343  13.871   4.653  14.150  0.0360  0.3227 -0.0429
25930W        W39344   4.033  13.797  15.566 -0.0348  0.0271 -0.0532
25931W        W39345   7.709   6.594   5.921  0.0610 -0.2328 -0.0084
25932W        W39346   6.449  17.511   5.131  0.0360  0.0102 -0.2732
25933W        W39347  12.142   8.368  16.658  0.2806  0.2171 -0.1571
25934W        W39348  17.256   3.654  16.378  0.0778 -0.0846  0.0431
25935W        W39349  17.475   5.412   5.590 -0.0134 -0.2474 -0.3352
25936W        W39350  13.701   2.820   2.400 -0.1683  0.0379  0.0735
25937W        W39351   8.708   9.810   2.899 -0.0270 -0.0740 -0.0757
25938W        W39352  10.885   1.362  10.861  0.1505 -0.0110 -0.4097
25939W        W39353  10.979  17.023   2.787  0.1931 -0.1582  0.1645
25940W        W39354  14.507  10.654   5.500  0.0597  0.1214  0.0423
25941W        W39355  17.100   4.135   4.146 -0.0486  0.1797 -0.0677
25942W        W39356  15.995  12.449   2.622  0.2707 -0.0307  0.1899
25943W        W39357  13.641  12.854   2.612 -0.2319  0.1171 -0.2370
25944W        W39358   5.509   1.394   1.500  0.1117 -0.3360  0.0764
25945W        W39359   5.307   6.759  12.644  0.1047 -0.0754  0.0040
25946W        W39360   7.145   0.055   1.812 -0.0668  0.2232 -0.2017
25947W        W39361  14.047  13.016   0.076 -0.0586  0.1430 -0.0228
25948W        W39362  16.560  11.217  12.566 -0.2173 -0.1472 -0.2670
25949W        W39363   9.753   2.507   2.181  0.1115  0.0246  0.0506
25950W        W39364   0.786   5.191   6.807  0.4305 -0.0274  0.3841
25951W        W39365   8.929   4.563  15.375  0.0311  0.0336  0.2067
25952W        W39366   5.099   0.166  11.916  0.1703  0.1102  0.0204
25953W        W39367  10.288  13.195   2.204  0.0722 -0.1543  0.0024
25954W        W39368   6.040   3.683   2.555  0.1455  0.2741 -0.1462
25955W        W39369   9.398   0.071   1.716  0.0623 -0.3246  0.0516
25956W        W39370   2.911   9.582   3.788 -0.0779 -0.0753  0.2943
25957W        W39371   9.269   0.330  11.760  0.0610 -0.3587  0.1167
25958W        W39372   6.819  10.839  14.848 -0.0363  0.1837  0.0361
25959W        W39373  13.285   3.713   2.278 -0.2573  0.1085  0.2774
25960W        W39374   0.618   4.848   0.611 -0.3176 -0.1670 -0.1794
25961W        W39375  13.137  15.442   0.496 -0.2226 -0.2450 -0.0247
25962W        W39376  10.215   2.048   2.312  0.2820 -0.1731  0.0483
25963W        W39377  16.459  14.663  11.664 -0.2863 -0.1762  0.1253
25964W        W39378   8.658   9.396   1.964  0.0231 -0.1872  0.1357
25965W        W39379  10.678   9.368  12.184 -0.1706  0.0350 -0.2967
25966W        W39380   7.701   1.038   0.827  0.0453  0.1543  0.2402
25967W        W39381   0.447  15.182  12.805 -0.1567 -0.2237  0.3298
25968W        W39382  12.749  15.592  13.172  0.1088 -0.3201  0.2111
25969W        W39383   8.051  14.041  12.171 -0.0672  0.1651  0.1331
25970W        W39384  17.378   1.735  14.025  0.1662 -0.2033  0.0824
25971W        W39385   6.978   1.937  16.013  0.1838  0.2226 -0.0459
25972W        W39386  17.268  13.653   2.360 -0.2681  0.1160  0.2942
25973W        W39387   1.462  13.962  16.587  0.4192  0.2008  0.0393
25974W        W39388  14.546  13.230  13.780  0.1141 -0.3253 -0.1927
25975W        W39389  13.372  15.618   1.216  0.2776 -0.0189  0.2593
25976W        W39390   3.542  12.943  12.067  0.2093  0.2107  0.1105
25977W        W39391  17.681   1.533  13.160 -0.0959  0.0016 -0.0237
25978W        W39392  11.709   8.187  16.434  0.1850 -0.1013 -0.0978
25979W        W39393  16.410   3.727   0.979 -0.0113  0.2065 -0.0029
25980W        W39394  12.796   0.802  10.433 -0.1068 -0.3342  0.2940
25981W        W39395  10.954   5.859   2.016  0.1236  0.1010 -0.1389
25982W        W39396   7.781   3.507  13.402 -0.1378  0.0466  0.3413
25983W        W39397  16.066  12.402   2.054 -0.2151  0.0526  0.1968
25984W        W39398  12.599   6.577  12.790  0.2588  0.0126  0.1696
25985W        W39399  14.316   2.849  11.076 -0.2304  0.1524  0.0684
25986W        W39400  13.479  15.409   3.158 -0.1996 -0.0839 -0.0457
25987W        W39401   9.792  17.217   3.689  0.0373 -0.5158 -0.0559
25988W        W39402   4.156  11.491   3.274  0.2359  0.0678 -0.0811
25989W        W39403  14.953  16.726   0.915  0.3378  0.1310 -0.2170
25990W        W39404   3.731   5.993  13.422  0.0441 -0.1316 -0.2192
25991W        W39405  12.010  10.037  13.641 -0.2152 -0.0676  0.0720
25992W        W39406   0.063  11.197   2.619  0.2725 -0.1057  0.0847
25993W        W39407  10.423  12.790   3.784  0.1429  0.2064 -0.1016
25994W        W39408  16.305  12.778   4.644 -0.0983 -0.0215  0.1232
25995W        W39409  15.631  14.898   3.114 -0.0159 -0.0630  0.0238
25996W        W39410  17.994  15.872  12.792 -0.0466 -0.1005  0.2613
25997W        W39411   6.991  11.077   2.312 -0.1156  0.1591 -0.1641
25998W        W39412  14.612  11.832  10.654  0.2886  0.1836 -0.1269
25999W        W39413   9.271  14.751  16.646  0.1209  0.1223  0.1525
26000W        W39414   2.425   0.605   5.845 -0.1488 -0.0448  0.0688
26001W        W39415   6.292   5.068   0.189 -0.0001  0.1044 -0.0845
26002W        W39416  10.008   5.433  16.534 -0.1979  0.0534 -0.0010
26003W        W39417   0.696  16.278   5.415 -0.0408 -0.0551 -0.1452
26004W        W39418  15.814  16.189  10.771 -0.1367  0.1106  0.0242
26005W        W39419   4.788  14.270  13.764  0.2349 -0.2383 -0.0735
26006W        W39420   0.536   9.378  13.944 -0.0551  0.0111 -0.1195
26007W        W39421   5.124  10.620   3.557  0.1133 -0.1634  0.2341
26008W        W39422  14.149  17.853  14.209 -0.1193 -0.2349 -0.0400
26009W        W39423   0.501  13.699   2.989 -0.1147 -0.1179  0.0709
26010W        W39424   9.017  13.840   0.563  0.0537  0.0622  0.2618
26011W        W39425   5.610   2.605  15.381  0.1850 -0.2307  0.3010
26012W        W39426   6.935   0.468   2.000  0.4078  0.4070  0.2950
26013W        W39427   4.629  14.844   1.097  0.0639  0.0979 -0.0732
26014W        W39428   8.718  16.403   3.415  0.0458  0.1270  0.3231
26015W        W39429   4.630   1.642   3.686 -0.1629 -0.1003  0.0309
26016W        W39430   6.404  10.755  12.529 -0.0390  0.1608  0.0341
26017W        W39431   2.267   6.401   5.660 -0.3476  0.3996 -0.0936
26018W        W39432  13.888  17.090   2.450  0.3097 -0.1353  0.1112
26019W        W39433   2.342  13.800   2.164 -0.2361 -0.2712 -0.1995
26020W        W39434   2.234   3.195  12.036 -0.1238 -0.1960 -0.1259
26021W        W39435   8.899   4.628   5.324 -0.0185 -0.0812  0.1135
26022W        W39436  13.136  14.237   4.233 -0.0314  0.3746  0.2726
26023W        W39437   6.396   3.883   1.012 -0.2149  0.0912 -0.0335
26024W        W39438   8.136   7.210   0.982 -0.2705  0.0463  0.3186
26025W        W39439  12.934   8.590   3.518 -0.0251 -0.2036 -0.2295
26026W        W39440   8.163   6.526   3.087  0.0781  0.1387 -0.3160
26027W        W39441  11.214   4.931  16.231 -0.0467  0.2202 -0.1391
26028W        W39442   4.169  14.193  14.735 -0.0425  0.3026 -0.2532
26029W        W39443  12.198   0.394   3.831 -0.0189  0.1745 -0.2479
26030W        W39444   7.985   0.978  14.956 -0.0894  0.1434  0.1589
26031W        W39445  13.100   6.242   4.494 -0.1970 -0.2098 -0.1748
26032W        W39446   4.890  17.626   0.363  0.0888 -0.1940 -0.1519
26033W        W39447   1.617  13.015  11.121  0.1747  0.0472 -0.0975
26034W        W39448  17.823  15.707  16.341 -0.1238  0.1540  0.1707
26035W        W39449   2.075  14.567   2.543 -0.0545  0.0275 -0.1869
26036W        W39450   8.725  15.556   0.481  0.0858  0.0713 -0.2827
26037W        W39451  16.771   6.073   5.960  0.1566  0.0762 -0.0139
26038W        W39452  11.224   9.297  11.586  0.0248 -0.3158 -0.2947
26039W        W39453   4.416   5.745  13.997  0.2397 -0.1384 -0.0866
26040W        W39454   9.985  14.639  14.466 -0.0456  0.2206  0.0240
26041W        W39455   9.822  13.507   4.416  0.2100 -0.1030  0.3162
26042W        W39456  14.203  17.570   3.948  0.0413  0.2397  0.3278
26043W        W39457   0.019   6.091   5.383  0.1784 -0.0410  0.1896
26044W        W39458  16.606   5.601  15.368  0.1092  0.1020 -0.1118
26045W        W39459   2.207   6.787  11.824  0.0435  0.0939 -0.1224
26046W        W39460   3.698   8.020  16.299 -0.0509  0.4216 -0.0407
26047W        W39461  13.672   9.558  15.039 -0.0433 -0.1315 -0.2154
26048W        W39462  16.440   7.241  16.362 -0.2623 -0.0258  0.1764
26049W        W39463  12.545  16.441   4.552  0.1271  0.0203 -0.1552
26050W        W39464   4.197   0.006   5.556 -0.2763 -0.0887  0.2500
26051W        W39465  16.018   5.037  13.368 -0.3290 -0.3411 -0.0635
26052W        W39466   2.946   2.579   0.740 -0.1249  0.3501 -0.0660
26053W        W39467   6.415   1.627   5.389  0.0821 -0.1528 -0.0988
26054W        W39468   3.940   4.638  15.628 -0.0765  0.0596 -0.0762
26055W        W39469   1.808   7.366   1.866  0.0726 -0.0796 -0.4017
26056W        W39470   3.421  12.245   5.806 -0.0686 -0.3972  0.1923
26057W        W39471   5.515  13.762   3.889  0.0992 -0.0253 -0.1118
26058W        W39472   1.715  10.105  14.319  0.3831 -0.0196 -0.0790
26059W        W39473   1.603  10.004   0.154  0.2303 -0.0957 -0.2038
26060W        W39474   7.257   5.434   4.212  0.0419 -0.0263 -0.1492
26061W        W39475   7.964  10.833  10.806  0.2102  0.0520 -0.1889
26062W        W39476   6.370   8.008  11.647  0.1660  0.0479  0.1329
26063W        W39477   6.096   1.488   4.922  0.3644  0.4070  0.1305
26064W        W39478   3.883  12.574  12.004  0.2590  0.1661 -0.2070
26065W        W39479  16.295   3.684  15.407 -0.0006  0.1251  0.0372
26066W        W39480   9.711  16.325   3.060  0.2624  0.0100  0.2145
26067W        W39481  17.773  10.169  11.640 -0.2055  0.0595 -0.1656
26068W        W39482   5.805   0.393   3.698 -0.1918  0.3347  0.0381
26069W        W39483  10.361   5.642  13.295  0.1291 -0.1467 -0.3931
26070W        W39484  13.710   3.628   2.642 -0.1506 -0.1217 -0.1123
26071W        W39485   5.124   2.293   1.587 -0.2339 -0.0837 -0.0899
26072W        W39486  17.311  11.985   5.162  0.0051 -0.0679  0.2394
26073W        W39487  17.544  13.587   4.471  0.1555 -0.1721 -0.2295
26074W        W39488   5.747   2.934   0.461  0.1589  0.3143  0.2743
26075W        W39489  11.990  11.354   0.637 -0.0414 -0.0643 -0.1184
26076W        W39490   4.410   6.768   6.238  0.0604 -0.0037 -0.1533
26077W        W39491   6.802   0.351   4.779  0.3825  0.2632 -0.1497
26078W        W39492   3.429  13.694  13.530 -0.0998 -0.2235  0.2271
26079W        W39493   0.317  11.292   1.918 -0.2164  0.0038  0.0856
26080W        W39494  15.384  11.835  10.564  0.1616 -0.1183  0.1120
26081W        W39495  11.927   2.139   4.262 -0.4046 -0.3128 -0.0628
26082W        W39496  17.189  17.489   4.498  0.0497 -0.4199  0.1890
26083W        W39497  15.968   1.354   0.204  0.0635 -0.0050  0.1617
26084W        W39498  16.159   8.364  11.795 -0.0577  0.2297  0.1521
26085W        W39499  10.055   4.646   2.257 -0.1702  0.2326 -0.1446
26086W        W39500  17.468  11.875   5.656  0.1198  0.2379  0.3800
26087W        W39501   9.239   9.883  14.928  0.1421  0.0062 -0.0864
26088W        W39502   1.930   9.357   1.319 -0.0334 -0.1902 -0.0692
26089W        W39503   4.388   3.805   6.315  0.2455  0.1012 -0.1173
26090W        W39504   9.884  11.265   2.620 -0.0944 -0.4392 -0.0198
26091W        W39505  12.816   3.472  13.286  0.1639  0.1455  0.0620
26092W        W39506   2.448   5.733   3.857 -0.1257 -0.1614  0.0578
26093W        W39507  16.922   6.437   1.813 -0.0633  0.0962  0.0337
26094W        W39508   8.088  11.140   2.099  0.0470 -0.1646 -0.0006
26095W        W39509   9.783  10.175   4.428 -0.0746  0.1812  0.2092
26096W        W39510   8.742   2.850   2.391 -0.0001 -0.2001 -0.1483
26097W        W39511   4.791  14.648  11.168  0.0173  0.3426 -0.0619
26098W        W39512  10.622   5.870   5.352 -0.2655 -0.0696 -0.0056
26099W        W39513  10.948   6.656  14.887  0.2615  0.2870  0.2456
26100W        W39514   4.298  13.455   4.152  0.1122  0.2315  0.1203
26101W        W39515  17.436  15.392   3.097  0.2857  0.0816  0.1983
26102W        W39516   3.835   3.076   2.675 -0.0948 -0.1390 -0.2867
26103W        W39517  18.014   0.268  14.957  0.0757 -0.0671  0.2061
26104W        W39518   5.445  10.549  16.553 -0.3111  0.3805 -0.0328
26105W        W39519  11.774   1.771   0.929  0.0707  0.0755 -0.1295
26106W        W39520   7.280  15.739  14.337 -0.1999 -0.2479 -0.2925
26107W        W39521   6.872  10.484   0.081 -0.2216  0.2177  0.0424
26108W        W39522   9.973   7.875  11.470 -0.1366 -0.0163  0.2448
26109W        W39523  12.427  10.675  15.719  0.1930  0.0386  0.1322
26110W        W39524  13.093   2.531  13.031 -0.1183 -0.3173  0.1939
26111W        W39525   4.564   0.901  14.582  0.1180  0.0959  0.3063
26112W        W39526   7.579  16.412   0.152 -0.0684  0.4268  0.2256
26113W        W39527  10.322  17.748  14.585  0.2730  0.0393 -0.0411
26114W        W39528   2.778   0.615  13.302  0.2991 -0.3082 -0.0971
26115W        W39529   3.063   2.568  15.660  0.0649 -0.0948 -0.1237
26116W        W39530  11.821  12.037  16.367  0.3012 -0.0253  0.0661
26117W        W39531   5.217  16.478   0.487 -0.0983 -0.0383  0.1495
26118W        W39532   0.448   8.703  14.337  0.2578 -0.2331 -0.2096
26119W        W39533  17.045   8.752  15.673 -0.2331  0.1046 -0.2781
26120W        W39534   8.329   2.512   4.679  0.1087  0.1308 -0.2406
26121W        W39535   4.305   1.563   4.581 -0.3174 -0.0324 -0.1002
26122W        W39536  11.669  13.762  13.341 -0.0290  0.1896 -0.1156
26123W        W39537  11.789  13.371  12.953  0.0304  0.3288  0.1440
26124W        W39538  17.616  15.353  15.085  0.1014  0.0843  0.0459
26125W        W39539   5.662  11.615   2.915 -0.1506  0.0429 -0.2038
26126W        W39540  10.271  16.555  11.261  0.3010  0.1192  0.1708
26127W        W39541   2.215  15.764   4.796  0.1077 -0.0335  0.0643
26128W        W39542   4.880  14.969   3.861  0.0193  0.1207 -0.3876
26129W        W39543  17.064  13.854  11.634  0.1764  0.1404 -0.1461
26130W        W39544   8.304  15.414  12.566  0.0272  0.0569  0.0382
26131W        W39545   3.062  15.098   5.500 -0.1099  0.1155  0.0069
26132W        W39546   5.215  13.845   4.488 -0.0217 -0.1127 -0.0207
26133W        W39547   2.696   0.172  10.247  0.1337  0.1716  0.0334
26134W        W39548   0.077  11.065  14.996  0.0296 -0.3186 -0.1266
26135W        W39549  13.878   0.830  11.381  0.0442  0.1970 -0.2267
26136W        W39550  12.440   0.235   5.812 -0.2241  0.2694 -0.0321
26137W        W39551  17.052   2.392  11.776  0.2040 -0.4827 -0.3031
26138W        W39552  15.257   1.168  15.814 -0.2900 -0.0991  0.2313
26139W        W39553  11.333  14.453  15.048 -0.1338 -0.0184 -0.0699
26140W        W39554   3.153  12.714  14.896 -0.0104  0.2190 -0.0760
26141W        W39555   9.506   8.064  16.294 -0.0022  0.0125 -0.0422
26142W        W39556   9.666   9.935  14.099  0.2654  0.0132 -0.1800
26143W        W39557  13.966   2.164  16.200 -0.0830  0.2428  0.1641
26144W        W39558   1.353  13.228   4.777 -0.0170 -0.1359 -0.0021
26145W        W39559  16.693   8.833  13.086  0.1318 -0.0664 -0.2352
26146W        W39560   9.410  13.876  14.777  0.1558 -0.2049 -0.0340
26147W        W39561   7.049   9.223   2.899  0.0179 -0.1585  0.0945
26148W        W39562   1.358  13.882   0.417  0.2057 -0.1998 -0.1718
26149W        W39563  14.656  17.525  12.603  0.2831 -0.0002  0.0209
26150W        W39564   8.150  13.482  12.095 -0.1314  0.2052 -0.2145
26151W        W39565  14.921   3.497  15.686  0.0070 -0.5376 -0.1606
26152W        W39566  18.013  10.560  12.208  0.0220 -0.1128 -0.1575
26153W        W39567   1.734   0.828   2.859 -0.0052 -0.2771 -0.1290
26154W        W39568   3.581   6.292  13.872  0.3527  0.1802 -0.0705
26155W        W39569   9.665   4.609  10.609  0.1115 -0.1013  0.0485
26156W        W39570  17.826  15.809   2.689  0.1172  0.1298 -0.1789
26157W        W39571  12.650  13.206  10.536  0.0861 -0.0064  0.0394
26158W        W39572  10.149   1.271   1.736 -0.1143 -0.0014  0.0460
26159W        W39573   3.610  10.665   3.516  0.2079  0.0155  0.0524
26160W        W39574  12.711   8.825  11.016  0.0669 -0.0160  0.0193
26161W        W39575   1.752  10.485  14.025 -0.3649 -0.0159  0.1666
26162W        W39576   5.645   8.080  13.648 -0.1913 -0.1944 -0.0677
26163W        W39577   2.315   8.612  13.253  0.1760  0.0609 -0.0731
26164W        W39578  12.802  14.133   5.189 -0.0350  0.1895  0.0409
26165W        W39579   0.823   4.226   2.633  0.0449 -0.0690  0.1894
26166W        W39580   3.150   6.331  10.544 -0.1583 -0.0477 -0.0036
26167W        W39581   6.093  10.936   3.582 -0.0917 -0.0353  0.1139
26168W        W39582   4.169   5.357  11.980 -0.0367  0.1215  0.2002
26169W        W39583   4.928  11.985  14.779 -0.1227  0.0408  0.1862
26170W        W39584   5.934   2.687   4.931  0.3683  0.3346  0.1805
26171W        W39585  15.025  17.235  10.523 -0.0548  0.0924 -0.3520
26172W        W39586  15.857  14.403  12.593  0.0272  0.3024 -0.0473
26173W        W39587   0.444   6.226   1.010  0.0016 -0.2975  0.1948
26174W        W39588  17.476  13.483  15.539 -0.3556 -0.0658 -0.2821
26175W        W39589   1.873   6.501  14.381  0.0993 -0.1109 -0.0868
26176W        W39590  17.517  17.314  10.969 -0.2396 -0.1907 -0.3877
26177W        W39591   6.750  16.610  13.774 -0.2554  0.1033 -0.2337
26178W        W39592  15.631   6.631   6.010 -0.0113 -0.1908  0.2142
26179W        W39593   0.303   0.482   1.949 -0.0450  0.1231  0.1662
26180W        W39594   5.877  17.845  13.522  0.0527  0.2008  0.0485
26181W        W39595   4.800   3.160   2.401 -0.1549 -0.0823  0.1836
26182W        W39596   1.278   6.192   0.161 -0.0023  0.2240  0.1316
26183W        W39597  16.092  10.974   4.697 -0.3460  0.0415 -0.0570
26184W        W39598   7.245  14.954   2.928 -0.3092 -0.2755 -0.1330
26185W        W39599   1.588   0.052   2.696  0.0004  0.0769  0.0404
26186W        W39600  15.986   9.158   0.277 -0.0572 -0.1508  0.1488
26187W        W39601  10.857  13.031   9.762  0.1286  0.3781 -0.1096
26188W        W39602   4.631  12.515  15.921 -0.3008 -0.0140  0.2870
26189W        W39603  11.997  11.067  16.378 -0.2187 -0.0385 -0.1565
26190W        W39604   6.966  15.948  13.160 -0.0741  0.0621 -0.0309
26191W        W39605   3.090   8.597  13.527  0.0363 -0.1920  0.0451
26192W        W39606   2.952  12.719   2.652  0.2933  0.2772 -0.3706
26193W        W39607   5.895   9.253  16.592 -0.3925  0.1522  0.0763
26194W        W39608  13.884  13.903   0.446 -0.1173 -0.1949 -0.2202
26195W        W39609   5.725   9.449   4.205 -0.3606  0.1473  0.1748
26196W        W39610   7.815   2.802   5.265  0.0035  0.0312  0.1841
26197W        W39611   3.258   0.192  14.978  0.3036 -0.1608 -0.0408
26198W        W39612  10.878  15.222  14.568  0.2306 -0.0135 -0.4803
26199W        W39613   8.900  14.676   4.125  0.2937  0.0246  0.0498
26200W        W39614   5.075   1.499   0.584  0.0683 -0.2782 -0.1257
26201W        W39615   4.563   2.443   3.149  0.3773  0.2681  0.1626
26202W        W39616   4.416   7.435   3.336 -0.0757 -0.5672 -0.0308
26203W        W39617  16.001   2.884  11.549 -0.4130 -0.1295 -0.0138
26204W        W39618   5.471   5.146  10.666  0.1143 -0.0337 -0.1482
26205W        W39619   2.592   4.808  14.036  0.2312 -0.3978 -0.1837
26206W        W39620   3.867   3.066  16.466 -0.0968  0.1164 -0.1588
26207W        W39621  15.720   4.021  15.886  0.2891  0.2472 -0.2087
26208W        W39622  10.781   7.390   0.355 -0.1654  0.0476 -0.3901
26209W        W39623   4.075   8.553  14.803  0.1278  0.2577  0.2094
26210W        W39624   3.563  12.139   0.610  0.0312  0.3717 -0.1276
26211W        W39625   5.645   9.947   2.331  0.2281  0.1072 -0.1864
26212W        W39626  15.872  13.175  13.774 -0.2619 -0.1094  0.2272
26213W        W39627  11.243  14.710   1.656 -0.1688  0.0444 -0.1285
26214W        W39628  16.879   0.975  15.028 -0.1880  0.0806  0.0601
26215W        W39629   9.731   9.040   5.644  0.1953 -0.0442  0.0722
26216W        W39630   4.448   2.338   5.659 -0.1047 -0.0699  0.0051
26217W        W39631   6.078   6.595   3.368 -0.2692 -0.2230  0.1498
26218W        W39632  17.463  14.733  12.671  0.0118  0.0147  0.1303
26219W        W39633   6.036   5.171  13.162  0.1201 -0.3214 -0.2691
26220W        W39634   6.857  10.020  16.569 -0.1774  0.0539 -0.0208
26221W        W39635   0.892   2.682  11.276  0.1356  0.2902  0.2946
26222W        W39636   4.509  13.890   6.433  0.3446  0.0555  0.0571
26223W        W39637   6.251   6.873  15.624  0.0122 -0.2689 -0.3453
26224W        W39638   7.989   3.774  14.596  0.1480  0.1360 -0.0518
26225W        W39639   7.436   3.936  10.455 -0.1171 -0.1035  0.0770
26226W        W39640  11.557  14.290   0.828 -0.0320 -0.1985 -0.1668
26227W        W39641  16.696  15.641  14.032 -0.0604  0.3649  0.0231
26228W        W39642   1.491  12.384  10.848  0.0515 -0.0329 -0.0584
26229W        W39643  13.395   7.220   1.454 -0.0310  0.0034 -0.1592
26230W        W39644   2.438  14.147  14.268 -0.1397 -0.1370  0.0624
26231W        W39645   0.074  11.596  13.734 -0.0794  0.1392 -0.0352
26232W        W39646   3.079  15.947   3.019  0.1674 -0.0945 -0.1377
26233W        W39647  11.165  12.796  16.130 -0.1015  0.0342  0.2041
26234W        W39648  17.222   7.971  12.002  0.2911  0.1427  0.1480
26235W        W39649  10.245  11.557   4.549  0.2610 -0.0799 -0.1586
26236W        W39650   2.595   7.121  10.348 -0.0761  0.1872  0.2179
26237W        W39651   8.174   3.676   5.749  0.1801 -0.0539 -0.1117
26238W        W39652   7.008   7.498  11.373  0.0380 -0.1521 -0.1858
26239W        W39653   2.299  11.307  14.846 -0.2255  0.1315 -0.0296
26240W        W39654   1.382   8.151   1.650 -0.1450 -0.1082  0.2898
26241W        W39655   6.080  12.814   4.974 -0.0410 -0.0678 -0.3147
26242W        W39656   1.263  17.790   2.543  0.4552 -0.3427  0.0882
26243W        W39657  10.072  11.841   5.243 -0.3126 -0.1163 -0.1883
26244W        W39658   5.290   5.307   5.177 -0.0616 -0.2434 -0.0409
26245W        W39659  11.633   5.936   5.376  0.2896 -0.3013  0.2390
26246W        W39660   4.840  13.553   2.897  0.0475  0.2185  0.2549
26247W        W39661   0.468   6.881  14.075 -0.0560 -0.0567 -0.0147
26248W        W39662  15.639  15.079   5.519 -0.2046 -0.2636 -0.0510
26249W        W39663   1.037  18.023   1.860  0.0009 -0.1171 -0.0888
26250W        W39664  16.932   9.882   4.877  0.0681  0.0422 -0.1085
26251W        W39665   0.670   7.069   1.220 -0.0926 -0.1874  0.1417
26252W        W39666  13.505  11.808   5.736  0.0397  0.0375  0.0777
26253W        W39667   9.907   0.896   2.100 -0.0701 -0.0503 -0.1760
26254W        W39668  14.101  14.159   1.143 -0.1271  0.1237  0.0772
26255W        W39669  10.410  13.313  16.533  0.0294  0.1480 -0.2765
26256W        W39670  14.102  10.272  16.280  0.0966  0.0355 -0.0692
26257W        W39671   3.962   4.187  15.099 -0.1058 -0.1009 -0.1784
26258W        W39672  12.291   9.096  14.966  0.3326 -0.1039 -0.0751
26259W        W39673  16.458  10.656   2.151 -0.0913 -0.0881 -0.1545
26260W        W39674  12.304   8.715  13.644  0.2311 -0.1045 -0.1061
26261W        W39675   0.798   2.341  11.796 -0.1392  0.2018  0.0274
26262W        W39676   2.079   5.691   4.986  0.0691 -0.3114  0.1587
26263W        W39677   0.183  11.327   0.780 -0.0681 -0.3810 -0.3268
26264W        W39678   9.939  13.285  16.508  0.1079 -0.1666  0.0342
26265W        W39679   7.598  14.630   2.827  0.2352 -0.2814  0.3895
26266W        W39680  17.424  10.776  14.327 -0.1285  0.0618 -0.2290
26267W        W39681   0.634   4.027  16.342  0.0006 -0.0857 -0.3951
26268W        W39682   7.000  15.478  15.711  0.2126 -0.1881 -0.1794
26269W        W39683  12.861  11.100   0.998  0.0093  0.2288  0.0835
26270W        W39684  16.201  11.025   2.558 -0.0727  0.1972 -0.0834
26271W        W39685   4.553   6.486  15.360 -0.0166 -0.0900  0.1375
26272W        W39686  16.853  11.129  16.343 -0.2424 -0.1112  0.2568
26273W        W39687  12.722  11.096   5.313  0.0906 -0.2306  0.0134
26274W        W39688   1.662  17.395  10.286 -0.0079 -0.3215  0.0141
26275W        W39689  16.132   6.861   4.403 -0.0243 -0.0772 -0.1013
26276W        W39690   1.065  16.629  12.141 -0.2082 -0.1117 -0.0861
26277W        W39691   3.724  10.112   4.794 -0.0129  0.1740  0.1472
26278W        W39692   7.645   9.983  12.369  0.1608  0.0711 -0.2221
26279W        W39693   4.852   1.813  14.936  0.1974 -0.3854  0.0567
26280W        W39694  12.633  11.607  13.953  0.2290 -0.1414 -0.1809
26281W        W39695   1.725   9.235  15.864  0.1764  0.2507 -0.2346
26282W        W39696   3.829  17.243  15.443 -0.0992  0.1554 -0.1276
26283W        W39697  12.777  12.376   0.130  0.1248  0.0336  0.1735
26284W        W39698  10.489  11.491  15.211  0.1081  0.2847 -0.1111
26285W        W39699  17.326  13.201  13.696  0.2489  0.0998  0.1152
26286W        W39700   1.783  14.147   0.881 -0.1978 -0.2184 -0.0552
26287W        W39701  10.750  13.941  13.298  0.2281  0.3408  0.2167
26288W        W39702   4.326  11.909   3.080 -0.1091 -0.1761  0.2493
26289W        W39703   5.513  17.986   2.655  0.2597  0.1015 -0.3355
26290W        W39704  13.500  11.505   5.225  0.1024  0.2198  0.4232
26291W        W39705   4.665  11.413   3.046  0.2377  0.0243  0.0938
26292W        W39706   2.985  13.394  14.277 -0.1607 -0.1154 -0.0780
26293W        W39707  14.043  11.761   1.809 -0.2220 -0.0327 -0.0091
26294W        W39708   4.025   4.155  15.568 -0.4092  0.2307 -0.2141
26295W        W39709   6.866  12.081  10.815  0.1253 -0.0187 -0.2001
26296W        W39710   7.778  11.381  13.354  0.1375 -0.2247  0.1405
26297W        W39711   3.560   7.744  15.639 -0.1076 -0.4745 -0.1346
26298W        W39712  11.959   7.887   2.326  0.0898 -0.0009  0.0242
26299W        W39713   8.348  10.057   2.679 -0.2020  0.0036  0.3086
26300W        W39714  10.913   7.605  14.460 -0.1190 -0.1387 -0.0376
26301W        W39715  17.185   4.620  15.169  0.1133 -0.5004 -0.1504
26302W        W39716   7.436   7.881   0.038 -0.0870 -0.1583  0.0876
26303W        W39717  17.483   7.561   3.213  0.1946 -0.3015 -0.0069
26304W        W39718   4.634   9.669   3.321 -0.1342  0.2062  0.1084
26305W        W39719   5.319   1.259   3.569  0.1952 -0.3725 -0.1679
26306W        W39720  13.261   6.615  12.032 -0.0598 -0.0337 -0.0480
26307W        W39721  10.405  10.138   2.953 -0.1189  0.1398  0.0992
26308W        W39722   9.147   5.870  16.073 -0.0116 -0.0799 -0.1829
26309W        W39723   0.258   6.344   2.809  0.0890 -0.0623  0.2173
26310W        W39724  10.581   5.498   4.623  0.2416 -0.1848  0.1363
26311W        W39725  14.582   3.974  16.534 -0.0954 -0.2972 -0.1167
26312W        W39726  13.845   4.050   4.067 -0.1005 -0.0352 -0.0614
26313W        W39727  13.224   6.548   5.690 -0.0119 -0.0218  0.1842
26314W        W39728  15.308   6.267   6.319  0.2813 -0.1576  0.1881
26315W        W39729  12.565   8.363   6.552 -0.2738 -0.4179  0.0108
26316W        W39730   4.125   1.633  11.672  0.1884 -0.0439 -0.0539
26317W        W39731   6.398   4.106  15.707  0.1560  0.0862 -0.0445
26318W        W39732  15.226  17.914  13.593  0.0997  0.1309 -0.0076
26319W        W39733  13.871   6.800  15.476 -0.2204  0.2019 -0.1124
26320W        W39734   3.720   2.275   5.029  0.2744 -0.0779 -0.0005
26321W        W39735   3.928   7.364  15.666 -0.1697  0.0111  0.2495
26322W        W39736   3.127   2.049   2.534  0.1134  0.3121 -0.0593
26323W        W39737   7.900   2.286   0.418 -0.1375 -0.0624 -0.0743
26324W        W39738  15.271  17.590  16.467 -0.0039 -0.0427  0.2624
26325W        W39739  12.021  17.859   4.122 -0.0572 -0.0802  0.1822
26326W        W39740   7.017  18.033  11.346 -0.1171 -0.2165  0.0496
26327W        W39741   1.092  12.592   2.095  0.1135  0.0186  0.1486
26328W        W39742   0.137  13.456  15.597 -0.0358 -0.0850 -0.2412
26329W        W39743  10.102  16.895   4.104 -0.0042  0.1209  0.3893
26330W        W39744   6.956  11.014   0.106  0.1708  0.0561 -0.1173
26331W        W39745   9.328  13.321  12.252 -0.0251  0.2769 -0.0666
26332W        W39746  17.859  12.151   1.864  0.2850  0.2411 -0.2509
26333W        W39747   3.418  11.326  15.955  0.2055 -0.1353 -0.2134
26334W        W39748  15.253   1.316   6.163  0.1253 -0.1019 -0.0895
26335W        W39749   5.316  12.018  13.935  0.0168  0.0668 -0.2509
26336W        W39750  10.186  11.878   2.368 -0.2288 -0.1673  0.2607
26337W        W39751   1.212   0.318   4.764 -0.0764  0.1863  0.2613
26338W        W39752   8.530   9.748  12.066 -0.1421 -0.2292  0.2066
26339W        W39753  13.357  16.165   1.510  0.2582 -0.0074 -0.1570
26340W        W39754  17.302   6.157  12.442  0.0180  0.2191  0.0968
26341W        W39755  13.771  10.820   3.182 -0.2322 -0.0888 -0.0405
26342W        W39756  14.908  17.588   6.695 -0.1958 -0.1371 -0.0831
26343W        W39757   9.811   3.134  11.640  0.0134  0.1432 -0.0272
26344W        W39758   9.368   4.654  10.223 -0.1986  0.3157 -0.0592
26345W        W39759   1.496   9.328  11.766 -0.1432 -0.0755 -0.0446
26346W        W39760   9.451   7.657   0.398 -0.1191  0.2270 -0.1431
26347W        W39761  13.146   9.559   0.711 -0.2762 -0.3011  0.0452
26348W        W39762   0.954   9.703  13.744 -0.0416 -0.1185 -0.1637
26349W        W39763  10.030   1.638  13.575  0.1540  0.0912 -0.0540
26350W        W39764   9.290  17.387   3.885 -0.0214 -0.0620 -0.1247
26351W        W39765   6.077   5.464   0.515  0.0132  0.0153  0.2872
26352W        W39766  14.173  17.510  14.657 -0.2384  0.0106  0.1585
26353W        W39767  15.596  15.023  14.862 -0.2522 -0.1510 -0.1947
26354W        W39768  17.153  10.540  11.148  0.0124  0.0872  0.1382
26355W        W39769  16.963  10.189   3.193 -0.2362  0.1029 -0.2008
26356W        W39770   3.995   1.326   4.049  0.1959 -0.0883  0.0321
26357W        W39771   4.455   9.784  11.021  0.1370  0.0310  0.0046
26358W        W39772   5.140   4.194   0.284  0.0821  0.1164 -0.0280
26359W        W39773  18.052   1.594   4.135 -0.3183  0.3776 -0.0183
26360W        W39774  10.148  17.522   1.133  0.1990  0.0734  0.0068
26361W        W39775  16.647  16.684   2.842  0.3944  0.2710  0.4806
26362W        W39776   7.369  17.509   4.542 -0.2241 -0.1772 -0.1318
26363W        W39777  14.261   9.698  15.437 -0.0239  0.1814 -0.2278
26364W        W39778   3.251  10.611   4.225 -0.2098 -0.4041  0.1150
26365W        W39779   6.037   2.885  13.212 -0.2056 -0.1102 -0.1965
26366W        W39780   7.198  10.684  11.326 -0.1009  0.0888 -0.0274
26367W        W39781   7.878   2.405   1.262 -0.0627 -0.0385  0.1216
26368W        W39782  11.975   6.084  15.995  0.1157 -0.0394 -0.1990
26369W        W39783   2.920  17.297  15.367  0.0264 -0.0999  0.0136
26370W        W39784  10.017  11.243  10.531  0.1334  0.1568  0.0949
26371W        W39785   7.676  17.347   0.292  0.2876  0.0498 -0.1202
26372W        W39786  17.147   2.255   0.639 -0.2223 -0.2103 -0.3561
26373W        W39787   9.950  11.867  15.221  0.2209  0.0050  0.0385
26374W        W39788   7.102   6.861  12.728 -0.1294 -0.1108  0.0022
26375W        W39789   4.430  10.655  11.264  0.0726 -0.0045 -0.2138
26376W        W39790   1.688  16.742   6.718  0.0512  0.1299  0.0209
26377W        W39791  11.264  17.009   2.381 -0.1464  0.1034  0.0843
26378W        W39792  11.898   4.327  16.488 -0.3680  0.1971  0.4920
26379W        W39793   1.467  16.403   4.687  0.2195 -0.1569  0.1225
26380W        W39794   3.709  12.182   1.520  0.1292  0.0470 -0.2484
26381W        W39795  14.154  13.681   2.799  0.1820 -0.2314  0.0527
26382W        W39796  15.699  15.797  16.082 -0.1013  0.0710  0.3159
26383W        W39797   3.338  13.649  14.020  0.2905  0.1469  0.1456
26384W        W39798   6.754   4.336   3.359  0.1522  0.0997  0.0729
26385W        W39799   4.866   7.602  15.200  0.0494  0.1290  0.0327
26386W        W39800   1.758  13.573   0.126 -0.1716  0.1184 -0.1055
26387W        W39801  14.373   3.973  15.142 -0.1313  0.2283  0.0803
26388W        W39802  14.227  15.829  16.107 -0.3177  0.0629 -0.2668
26389W        W39803   6.605   7.533  14.055  0.1072 -0.0773 -0.0023
26390W        W39804   6.955   1.558  15.687  0.0293 -0.1339 -0.2024
26391W        W39805   1.133  16.372   2.211 -0.0694 -0.3690 -0.0204
26392W        W39806  11.181  13.305   2.014 -0.0890  0.1629  0.0107
26393W        W39807  15.951   8.324   3.274  0.1666  0.1999  0.1895
26394W        W39808   4.430   8.096  12.670 -0.0401  0.1262  0.1464
26395W        W39809   3.591  15.021  14.099  0.2996 -0.1130  0.3834
26396W        W39810   3.630   3.408  13.036 -0.3626 -0.0378  0.0730
26397W        W39811   7.130  16.868   4.115  0.0913 -0.0150  0.1104
26398W        W39812  14.972   1.150   1.037 -0.1453  0.2122  0.0833
26399W        W39813  10.907   8.679   5.416 -0.1785 -0.0712 -0.1671
26400W        W39814   6.962   4.640  15.064  0.1532 -0.0195 -0.1543
26401W        W39815   8.032   8.033   0.258 -0.0388  0.5388 -0.0676
26402W        W39816   5.957   1.798  12.233  0.2047  0.1018 -0.0661
26403W        W39817  13.055   7.347   3.571  0.3211  0.0040 -0.2981
26404W        W39818   0.658  15.123  15.595  0.1052  0.1100 -0.2684
26405W        W39819  15.075  10.301   3.382  0.3777  0.1733 -0.2139
26406W        W39820  14.226  10.742  11.140 -0.0805 -0.1881 -0.0986
26407W        W39821   6.983   7.435   3.151  0.2506  0.1517  0.1396
26408W        W39822   2.340  11.382  12.301  0.0438 -0.0186  0.1818
26409W        W39823  11.365   2.549  13.155 -0.0404  0.0034 -0.1783
26410W        W39824   8.813  12.419   0.508 -0.1993  0.1504 -0.0895
26411W        W39825   1.021   7.649   0.178 -0.3053 -0.2436  0.1567
26412W        W39826  16.977   2.968   5.091 -0.1441  0.0228  0.3039
26413W        W39827   5.368   3.986  15.505  0.2456 -0.0834  0.1865
26414W        W39828  16.233   8.614  12.544  0.3036 -0.2662  0.1389
26415W        W39829   7.462  17.687   3.715  0.0025  0.3105  0.0235
26416W        W39830  16.370  13.506  16.324 -0.1534  0.2345  0.0929
26417W        W39831  17.230  16.967   5.215 -0.0626  0.2026 -0.5342
26418W        W39832   7.186   4.615  15.664 -0.0535 -0.0769 -0.0837
26419W        W39833   6.280  13.220   4.712  0.1611  0.1129  0.2271
26420W        W39834   4.846  10.676   1.600  0.1722  0.0108  0.0211
26421W        W39835   6.630  11.253   5.958  0.3893  0.0166  0.1894
26422W        W39836   9.883   3.130   4.279  0.3420  0.0536  0.2141
26423W        W39837   3.386  11.271   5.987  0.0545 -0.1400 -0.1462
26424W        W39838   5.950   7.730   5.350 -0.0965 -0.2727 -0.0666
26425W        W39839  16.737   6.635   3.710  0.0116  0.1570  0.2781
26426W        W39840   8.279   2.904  15.674  0.2194  0.2117  0.1246
26427W        W39841   6.384  17.111   1.702  0.0961 -0.0677 -0.1190
26428W        W39842  16.971   6.565  12.136 -0.0188  0.0143 -0.1331
26429W        W39843  15.185  13.123   1.354 -0.1552  0.3219  0.1065
26430W        W39844  17.087   7.736  13.264  0.0734  0.1422 -0.1849
26431W        W39845  15.477  11.568  15.890 -0.0885  0.4272 -0.0247
26432W        W39846  13.700   8.502  15.088  0.0867 -0.2684 -0.0351
26433W        W39847   8.960  15.279  11.262  0.3310 -0.1392  0.1079
26434W        W39848   8.479   0.458   1.326  0.0439  0.0103  0.1277
26435W        W39849   0.985   5.155  13.832  0.1317  0.0580 -0.0680
26436W        W39850   5.223  10.501   5.949  0.1210 -0.2194  0.1054
26437W        W39851   5.087   2.839   1.487 -0.0658  0.0008 -0.1974
26438W        W39852  14.161   5.115  16.012  0.2502 -0.2589  0.1845
26439W        W39853  16.042  12.732  12.861 -0.2826  0.1739 -0.1895
26440W        W39854  16.451   1.427  16.460 -0.2785  0.2706 -0.2567
26441W        W39855  16.213   0.709   6.968 -0.0848 -0.1296  0.1133
26442W        W39856   6.383   5.339   5.239  0.0316  0.2659 -0.1128
26443W        W39857   3.136  16.080  14.520  0.0344 -0.3978  0.0091
26444W        W39858  11.041   4.244  11.500 -0.1840  0.0436  0.1073
26445W        W39859  10.509   1.871   4.213  0.1560 -0.1873 -0.0611
26446W        W39860  10.809   7.517   4.763  0.3206  0.1361 -0.0264
26447W        W39861   2.213  15.246   1.291  0.2613  0.1445 -0.1127
26448W        W39862   6.280   4.154  14.495  0.0934 -0.0974  0.1113
26449W        W39863  12.698   1.514  11.840 -0.0972  0.2089  0.1273
26450W        W39864   1.237  16.822   6.008 -0.2414 -0.0598 -0.1042
26451W        W39865   3.367   3.403  12.127 -0.1299  0.0097  0.0444
26452W        W39866   9.435   6.591  13.605 -0.0967 -0.1285 -0.2165
26453W        W39867  13.811   1.601  10.752  0.1271 -0.0243  0.3175
26454W        W39868   3.268   3.403  15.997  0.2924  0.2437  0.1390
26455W        W39869  11.795   8.239   3.306 -0.3336  0.2823 -0.2982
26456W        W39870   9.781  14.331  11.974  0.0107 -0.1205 -0.1579
26457W        W39871   8.940   0.926  15.974 -0.1174 -0.0704 -0.3174
26458W        W39872  17.678  15.927   1.434  0.0395 -0.0784 -0.0597
26459W        W39873  14.007   1.851  15.788  0.1995  0.0094 -0.1543
26460W        W39874   6.141   6.457  12.842 -0.1684 -0.0171  0.1211
26461W        W39875   1.967   1.210   3.287 -0.0926  0.0894  0.0690
26462W        W39876   7.012   4.128  12.421  0.0291  0.2310 -0.2084
26463W        W39877   3.053   8.887  14.420 -0.1755 -0.0462  0.2210
26464W        W39878   9.602  10.079   0.204  0.0563 -0.0187 -0.1555
26465W        W39879   5.006  17.451  15.636  0.0852  0.1946  0.1230
26466W        W39880   7.677   7.373   4.683  0.2351 -0.0189 -0.2676
26467W        W39881  17.046   9.687   3.139 -0.0974 -0.3214 -0.1690
26468W        W39882  10.190   2.495  11.412  0.1046 -0.0171 -0.2763
26469W        W39883   0.738  11.672   5.414  0.0073 -0.0959 -0.3176
26470W        W39884   6.363  14.102   2.712  0.2781  0.0141 -0.2221
26471W        W39885   1.702   5.338   3.168 -0.1169 -0.4996  0.1396
26472W        W39886   0.438   4.902   3.090  0.3560  0.2367  0.1368
26473W        W39887  10.641   4.754   1.818  0.0356  0.0851  0.2089
26474W        W39888  12.404   3.129  16.538 -0.1668  0.0519  0.1366
26475W        W39889  13.405  17.414   4.084  0.0326  0.0704 -0.0142
26476W        W39890  12.866   2.842   5.684  0.2185 -0.3142 -0.0279
26477W        W39891  15.757  17.937  14.278  0.0354 -0.0827 -0.0822
26478W        W39892  16.357   6.522   5.940  0.0667 -0.1594 -0.0670
26479W        W39893  15.769  17.741  14.776 -0.1792 -0.2107  0.2931
26480W        W39894   8.971   3.155  10.045  0.1618  0.2976 -0.1028
26481W        W39895  12.426   4.349   4.531 -0.2304  0.1626 -0.0157
26482W        W39896   3.163   4.696  12.621  0.3532 -0.0455 -0.0439
26483W        W39897  11.476   9.017  11.957 -0.0853  0.1303  0.5883
26484W        W39898   8.093   0.306  10.022  0.1026 -0.0920  0.2022
26485W        W39899  14.500  13.108  10.777  0.2258 -0.2358 -0.0292
26486W        W39900  15.425   0.468   1.114 -0.1234  0.2372  0.0008
26487W        W39901  11.378  14.028  15.856 -0.1787 -0.0157  0.0131
26488W        W39902   5.067   8.389  15.618  0.1375  0.0380 -0.0886
26489W        W39903   3.431   9.163   1.497 -0.2752 -0.0392  0.0505
26490W        W39904   4.817  13.357   5.719  0.0637 -0.0170 -0.2474
26491W        W39905   0.063  10.305   5.603  0.1093  0.3762  0.0119
26492W        W39906   1.033  10.451  14.774  0.1152  0.1435  0.0617
26493W        W39907   1.763   4.184   5.390 -0.1439 -0.0650  0.1381
26494W        W39908  11.986  10.116  11.266  0.0756 -0.0917 -0.0264
26495W        W39909   8.100   5.354  11.619  0.1413  0.0965  0.0545
26496W        W39910   5.650   4.280   5.623  0.0204 -0.0410  0.1756
26497W        W39911  14.610   6.062   0.700 -0.2376 -0.1370 -0.0672
26498W        W39912  11.725   1.896   6.632  0.0336  0.1429 -0.1038
26499W        W39913   1.559   0.150  15.275 -0.0333 -0.0475  0.1133
26500W        W39914  11.599   9.062   2.593  0.0923 -0.0734 -0.0599
26501W        W39915   3.428   0.974  11.341 -0.2126 -0.1632  0.3656
26502W        W39916  12.162   0.518   9.853  0.3019 -0.1931  0.1408
26503W        W39917  11.326  16.177   1.813  0.2202 -0.0179 -0.0318
26504W        W39918   6.109   1.296   0.607  0.1951  0.1569 -0.0286
26505W        W39919  14.243   2.125   4.439  0.0320 -0.0831  0.5197
26506W        W39920   8.156   4.871  13.928 -0.0320 -0.2124 -0.2290
26507W        W39921   3.247   7.038   2.720 -0.1919  0.2177 -0.1855
26508W        W39922   8.030   1.565   2.131 -0.1691  0.0904  0.0199
26509W        W39923   0.465   9.531   2.021  0.1815 -0.0084 -0.0270
26510W        W39924   9.624  16.614   0.966 -0.3774 -0.0743 -0.2208
26511W        W39925   8.825  11.313   3.947  0.4820 -0.4072 -0.2339
26512W        W39926   5.715   3.100   4.952  0.4704  0.0788 -0.2150
26513W        W39927   4.776   1.137   2.967 -0.0132 -0.0971 -0.0941
26514W        W39928  10.925  11.090  14.334  0.0900  0.1834 -0.1636
26515W        W39929   5.103   9.047  14.862 -0.1452 -0.1175  0.2631
26516W        W39930   5.853  12.425  15.679  0.0105  0.5227 -0.0613
26517W        W39931   1.221   6.872  11.331 -0.0422 -0.0533 -0.4915
26518W        W39932  14.414  17.800   0.762  0.0407 -0.0540  0.5140
26519W        W39933   7.208   9.828   0.094 -0.0556  0.3473  0.2389
26520W        W39934  10.763   4.935  13.714 -0.1603 -0.1160  0.2671
26521W        W39935  17.739   6.433  16.333 -0.1247 -0.0599  0.0023
26522W        W39936  12.811  10.616   5.380 -0.0328 -0.2109 -0.1277
26523W        W39937  10.770   9.369  12.695 -0.2319  0.0076  0.0986
26524W        W39938   8.272   8.554   2.796 -0.1715 -0.2057 -0.0024
26525W        W39939  15.416  17.630  11.199  0.0215 -0.2834  0.2693
26526W        W39940   3.033  10.437  14.759 -0.0276 -0.3956  0.0457
26527W        W39941   2.423  11.604   2.700 -0.1475  0.0768 -0.1467
26528W        W39942  11.046  18.038  12.224 -0.0681 -0.0711 -0.1119
26529W        W39943  11.513   4.250   5.613 -0.2933  0.1908 -0.0198
26530W        W39944  10.999  12.869   2.668 -0.0451  0.2698  0.0384
26531W        W39945   0.556  16.457  15.573  0.1823  0.1298  0.1611
26532W        W39946   8.436  16.328   0.566 -0.2073 -0.0084 -0.5509
26533W        W39947   7.716   6.686   9.970  0.1516 -0.2264 -0.2549
26534W        W39948  14.236   8.999  14.789 -0.1191  0.0805  0.3282
26535W        W39949  15.239   7.579   6.593 -0.1964 -0.0318  0.3306
26536W        W39950  16.979  16.712   6.355 -0.1869  0.1907 -0.1649
26537W        W39951   0.007  15.380  12.748  0.3858 -0.1672  0.0051
26538W        W39952   3.737   6.521  11.269 -0.1084 -0.0935 -0.1972
26539W        W39953  12.400   9.839  16.414  0.0754 -0.1132  0.4123
26540W        W39954  16.700   3.670   0.574  0.1017  0.1742  0.0805
26541W        W39955  16.008   9.722  12.443  0.1481  0.1196  0.0147
26542W        W39956  15.785  12.249   3.816 -0.0978 -0.1317 -0.2237
26543W        W39957   1.668   1.209   1.110 -0.0044 -0.1377 -0.0668
26544W        W39958   1.981  11.721  12.526  0.0635 -0.0794 -0.0999
26545W        W39959  16.521  10.941   1.680  0.0479 -0.1770  0.1058
26546W        W39960   1.352   8.366   3.078 -0.0508  0.2600  0.0338
26547W        W39961  14.416   4.231  12.429 -0.0976 -0.0139  0.1044
26548W        W39962  16.604   5.881  15.819 -0.0841 -0.0174 -0.2723
26549W        W39963  11.114   8.416   5.951 -0.1020 -0.0019 -0.1331
26550W        W39964  10.328   5.945   0.999 -0.2330 -0.0556 -0.0611
26551W        W39965   6.505  15.018   3.739 -0.0707  0.0374  0.1136
26552W        W39966   1.579  13.150  14.849  0.3526 -0.0992  0.1063
26553W        W39967  15.726   2.910  12.000 -0.1389 -0.0401  0.0391
26554W        W39968  10.986  12.357  12.039 -0.0876 -0.3480 -0.1689
26555W        W39969  14.840   4.060  15.298  0.0400  0.1270  0.2088
26556W        W39970   4.433   6.962  12.110  0.1970 -0.1077 -0.0244
26557W        W39971   4.333   7.108   5.473  0.3443 -0.0240  0.1624
26558W        W39972  14.214  15.840   3.127 -0.3070  0.0735  0.1711
26559W        W39973   2.074   4.195  14.304  0.2466 -0.0889 -0.0259
26560W        W39974   0.154   0.640   2.378 -0.0506  0.0674 -0.0734
26561W        W39975  11.302   5.325  15.627 -0.0091  0.4419 -0.2210
26562W        W39976   9.157   0.792  10.437  0.1887  0.1683 -0.1225
26563W        W39977   0.409  15.793  11.909 -0.3352  0.1445  0.1282
26564W        W39978  12.609   7.517  13.858 -0.0051  0.0520 -0.1602
26565W        W39979   3.179  13.429   0.419 -0.0149 -0.0967  0.0769
26566W        W39980   4.447  14.340   1.327  0.1778  0.0041  0.0932
26567W        W39981   5.763   9.302  12.164  0.0311  0.0202 -0.0705
26568W        W39982  18.041  13.247   5.691  0.1931 -0.0308  0.3256
26569W        W39983   8.301   5.328   4.397 -0.3893 -0.1847 -0.2526
26570W        W39984   6.310   2.040  10.936  0.0925 -0.0995 -0.1009
26571W        W39985   3.037  15.620  15.171  0.1862  0.2294 -0.2279
26572W        W39986   0.310  12.213   4.846  0.0246  0.0844 -0.0019
26573W        W39987  10.158   4.612  10.430  0.0918  0.0487 -0.1180
26574W        W39988  11.449   6.499  14.294 -0.0735  0.3211  0.0772
26575W        W39989  15.699   4.927   4.667 -0.1075  0.0785  0.0994
26576W        W39990   2.315   3.466   4.538  0.0774  0.1671 -0.0203
26577W        W39991   9.995  15.339  12.678  0.0525  0.0267 -0.2241
26578W        W39992  12.475   6.972   3.103 -0.0233  0.1748 -0.0962
26579W        W39993  10.301  17.024   0.949 -0.0443  0.0846  0.2257
26580W        W39994  15.449   4.964   0.251  0.1338 -0.1251 -0.1079
26581W        W39995  11.766  11.970  13.749 -0.0640  0.2647 -0.1092
26582W        W39996  17.887  12.540   2.167  0.0588  0.0270 -0.0522
26583W        W39997   2.688   5.680   5.572 -0.0764 -0.3030 -0.1377
26584W        W39998  12.617  10.377  11.161  0.1714 -0.2666 -0.0154
26585W        W39999  14.934   8.757   3.138 -0.1290  0.2839 -0.2748
26586W        W40000   4.568   9.736  13.830  0.2975 -0.0519  0.1150
26587W        W40001   4.862  14.345   6.604  0.1142 -0.1557  0.1041
26588W        W40002   9.784  15.097  13.097 -0.3970  0.1061  0.1902
26589W        W40003  16.847   5.961  12.585  0.1069  0.0334  0.0814
26590W        W40004   1.549  12.370   0.315  0.1915 -0.4612  0.2934
26591W        W40005   4.802  12.384  14.565  0.0372 -0.3291 -0.0503
26592W        W40006  15.190   4.066  12.653 -0.3458 -0.0929 -0.2724
26593W        W40007  13.091   0.885  10.792 -0.2360 -0.4381 -0.0925
26594W        W40008   1.994  10.847  14.650  0.0791  0.0823 -0.0212
26595W        W40009  18.037  14.855  11.121  0.0115  0.0841  0.0110
26596W        W40010  11.105   7.827  13.970  0.1335 -0.2677 -0.0765
26597W        W40011  17.156   8.465  15.237 -0.3204  0.0112  0.0310
26598W        W40012  12.736   7.881  16.237  0.1300  0.0232  0.0803
26599W        W40013   8.340   4.857  14.890  0.0363 -0.0727  0.1292
26600W        W40014   3.916   6.359  14.192  0.0666  0.0882 -0.2406
26601W        W40015   3.108  15.413  12.234  0.0620 -0.3320 -0.2075
26602W        W40016  12.474  16.684  16.080 -0.0078  0.2410 -0.2899
26603W        W40017  15.705   1.395  14.599 -0.1287  0.2784 -0.2714
26604W        W40018  12.906  15.114  10.749  0.1460  0.3350  0.2345
26605W        W40019   0.770   9.162   0.894 -0.2154  0.0753 -0.0716
26606W        W40020   1.385  15.389   6.861  0.0243 -0.1017 -0.0759
26607W        W40021  11.164   1.064  12.838  0.2615 -0.3758  0.1981
26608W        W40022   9.393   0.274  12.593 -0.0912 -0.1609 -0.2835
26609W        W40023   4.366   6.102   0.229  0.2510  0.0367 -0.3770
26610W        W40024   2.731   6.293  13.686  0.0882 -0.0006 -0.0008
26611W        W40025  13.357  14.079   0.540  0.2712 -0.1172  0.0534
26612W        W40026  13.015   7.605  13.574 -0.1517 -0.1520  0.2637
26613W        W40027   0.071   9.612   2.783 -0.1213  0.1315  0.0478
26614W        W40028  10.461  14.298  16.240 -0.2122  0.0936  0.3669
26615W        W40029   6.047  14.444  11.596 -0.2239 -0.2343 -0.0237
26616W        W40030   7.622  10.486  11.779  0.0974 -0.0823 -0.1176
26617W        W40031   8.794  10.521  16.521 -0.0553  0.0997  0.4212
26618W        W40032   6.546   1.087  15.760 -0.1024 -0.2461 -0.3963
26619W        W40033   2.100   3.919   2.179  0.0540 -0.1272 -0.2094
26620W        W40034  17.778  13.004   6.046  0.0409 -0.1211 -0.0059
26621W        W40035   9.762  13.437   0.225 -0.0292 -0.1198 -0.3486
26622W        W40036   0.827   5.222   7.307 -0.2276 -0.0762 -0.0858
26623W        W40037   5.398   7.274   3.623  0.4075 -0.1891 -0.1125
26624W        W40038   6.218   7.904   4.108  0.0055  0.3439 -0.1877
26625W        W40039   2.323   4.317   5.470 -0.2197 -0.0547 -0.2195
26626W        W40040   1.688  16.854  11.568 -0.1083  0.2191  0.0433
26627W        W40041  16.931  12.621   1.283 -0.1028  0.0551  0.0256
26628W        W40042   2.345   6.640  11.065 -0.2747  0.1695 -0.0098
26629W        W40043   8.793  15.733  10.364  0.2544 -0.0435 -0.0409
26630W        W40044   6.405  16.400  15.943  0.3061 -0.0177  0.0939
26631W        W40045  16.197   5.555   4.018 -0.1990 -0.0569 -0.0817
26632W        W40046   9.913  17.839  13.185  0.1016  0.2324  0.0831
26633W        W40047   4.879   4.354   5.282  0.1379  0.0034 -0.0993
26634W        W40048  10.075   1.527  15.544 -0.1956 -0.0316  0.1475
26635W        W40049  14.294   8.853   2.385  0.0809  0.2580  0.0369
26636W        W40050   3.161   6.695   3.094 -0.0939 -0.5273  0.2275
26637W        W40051   5.013   0.943  10.781  0.2249 -0.1397  0.0585
26638W        W40052  10.439   6.238   5.917  0.3456  0.2647  0.2233
26639W        W40053   7.939  11.531  14.729  0.1040  0.1973 -0.1728
26640W        W40054  16.347  12.082  12.698 -0.1572  0.2042  0.1041
26641W        W40055   7.740   7.164   9.959 -0.0041 -0.1015 -0.0289
26642W        W40056   3.065   1.012  15.745  0.0317 -0.0256  0.0792
26643W        W40057  15.331   9.699   0.092  0.0275  0.1067  0.0800
26644W        W40058   2.211   4.529   4.117 -0.0463 -0.0962  0.2889
26645W        W40059  14.340  10.012  13.800  0.1283 -0.3622  0.1550
26646W        W40060   5.350  17.675  15.293 -0.1458  0.1327 -0.2921
26647W        W40061   7.364   8.689  12.440 -0.1458  0.2115 -0.0761
26648W        W40062  17.368  10.510  16.567  0.0459 -0.1394  0.1874
26649W        W40063  16.453  10.152   1.515  0.0124  0.0744 -0.1304
26650W        W40064   0.494   3.482  11.156 -0.0598 -0.1434  0.1353
26651W        W40065   9.810  11.419   4.088  0.0019 -0.1640 -0.1085
26652W        W40066  13.712  10.610   3.988  0.2560 -0.0103  0.0378
26653W        W40067  13.589  17.593  13.900  0.2123 -0.3196  0.2743
26654W        W40068   1.089   4.186   3.615 -0.1055  0.0863 -0.0820
26655W        W40069  16.579  12.703  12.703  0.0734 -0.1715 -0.2208
26656W        W40070   8.149   8.765  16.317  0.0957  0.4803  0.0111
26657W        W40071  17.398  12.990  11.127  0.0857 -0.1039  0.0145
26658W        W40072  13.560  14.979  16.588 -0.3319  0.1582  0.1190
26659W        W40073  10.761   6.633  11.222 -0.1038  0.0768  0.1325
26660W        W40074   6.366   2.969  11.200  0.1801  0.0127  0.4362
26661W        W40075   8.612   6.416   5.353 -0.0462  0.1416 -0.1790
26662W        W40076  14.643   9.751  13.237  0.2264 -0.0756  0.1814
26663W        W40077  13.641   0.027   3.373  0.1392  0.0263 -0.0137
26664W        W40078  13.470   4.017  11.517  0.0903  0.1171  0.0360
26665W        W40079   9.675   5.125  15.591  0.0234 -0.0024 -0.0919
26666W        W40080  10.475  17.958   0.999  0.3182  0.1941  0.0659
26667W        W40081   3.873   9.849  14.450  0.2066  0.2812  0.2082
26668W        W40082   3.584  12.905  14.656  0.0637  0.1854 -0.1439
26669W        W40083  17.360  11.424   1.735  0.2126  0.1426 -0.1085
26670W        W40084  10.766   3.256   4.618  0.1281  0.2062 -0.3619
26671W        W40085  17.471  16.892   5.635 -0.1012 -0.1379  0.1590
26672W        W40086   6.966   5.476   4.963 -0.0447 -0.0689 -0.3676
26673W        W40087  14.863   7.824  16.050  0.2738 -0.1198  0.3145
26674W        W40088  11.076   0.947   1.399 -0.1122 -0.0211  0.0188
26675W        W40089  17.550   7.918   2.129  0.0732 -0.0712 -0.0629
26676W        W40090  17.652   8.415   0.683  0.0697  0.3169  0.1836
26677W        W40091   0.256   3.661  12.058  0.0483 -0.1328  0.0407
26678W        W40092   0.284   7.870  16.154 -0.0058  0.1283  0.0159
26679W        W40093   4.886   9.003  14.317  0.0586  0.0622 -0.1344
26680W        W40094  12.892   6.009  13.688 -0.0288  0.0708 -0.1397
26681W        W40095  14.393   4.463  14.972  0.2060 -0.2343  0.2087
26682W        W40096  12.846   2.074   1.642  0.0886  0.1934  0.1582
26683W        W40097  12.981   1.135  12.649 -0.1229  0.0429  0.2792
26684W        W40098  14.076   7.199  13.817  0.4257  0.1240  0.0098
26685W        W40099   1.778   8.468   3.322  0.1600 -0.3362 -0.0956
26686W        W40100   6.251   1.250   5.714  0.2880  0.0586  0.1920
26687W        W40101  12.306  11.040   0.936  0.1339  0.0131  0.0020
26688W        W40102   4.200  12.078   5.713 -0.0343 -0.0002 -0.2882
26689W        W40103   7.242   3.251   2.543 -0.0509 -0.1396 -0.2867
26690W        W40104   0.484   5.648   0.923 -0.0257  0.0645 -0.1599
26691W        W40105   8.143   6.682   0.824 -0.1890 -0.0289  0.3428
26692W        W40106  12.117   5.710  12.002  0.1591  0.0326  0.0884
26693W        W40107   3.497   0.418   1.480  0.3831  0.0632 -0.1524
26694W        W40108  16.924   2.192   2.168 -0.0745  0.3748  0.2527
26695W        W40109   0.170   6.745   1.910  0.0103 -0.2345 -0.1315
26696W        W40110  11.806   0.658  15.316  0.0643  0.0873 -0.0359
26697W        W40111   3.460  17.243  12.680  0.0280  0.3662  0.4039
26698W        W40112   3.024  13.682  15.881  0.0887 -0.1940 -0.2009
26699W        W40113  12.584   9.752   4.337  0.2236 -0.1245  0.1599
26700W        W40114  17.915  10.287  13.270  0.1053  0.1015 -0.1803
26701W        W40115   0.092  17.279   3.992 -0.1457  0.0089 -0.1830
26702W        W40116   1.082   2.855  10.757  0.1531 -0.0673  0.2041
26703W        W40117   3.412   3.084  11.371  0.3570 -0.1748  0.0296
26704W        W40118  13.847   7.985  12.078 -0.1613 -0.0721  0.1956
26705W        W40119  14.927  17.501  15.894 -0.0446 -0.0133 -0.2389
26706W        W40120   4.514   7.458  12.041  0.1094  0.1885 -0.0943
26707W        W40121   8.728  17.819   5.089  0.2166  0.0858  0.0160
26708W        W40122  16.984  11.260  15.669 -0.3182 -0.2297  0.3456
26709W        W40123   9.155   0.015  13.405 -0.1135 -0.0216  0.2030
26710W        W40124   0.238  14.281  16.072  0.0022  0.0563  0.0257
26711W        W40125  14.527  10.591   0.951 -0.0040  0.2114  0.1206
26712W        W40126   5.377  16.789  10.704  0.1681  0.2780  0.3596
26713W        W40127  10.476   3.941   0.764  0.2893 -0.0764  0.0065
26714W        W40128   5.666   3.230   3.914  0.0561 -0.0979 -0.1927
26715W        W40129   5.619   9.467   5.104 -0.2913 -0.0538 -0.3864
26716W        W40130   7.934   7.038  13.208  0.1631 -0.0316 -0.3605
26717W        W40131  12.090   0.644   1.848  0.0566 -0.0599 -0.0071
26718W        W40132   5.921   2.424   2.682 -0.0152 -0.0739  0.2606
26719W        W40133  17.675   6.815  13.148  0.0256 -0.2144  0.1629
26720W        W40134   1.462  10.174  14.735 -0.0150  0.2285 -0.0567
26721W        W40135  16.759  12.004   0.335  0.1012  0.1288  0.0071
26722W        W40136   5.233  13.219   3.899  0.0214 -0.2059 -0.0154
26723W        W40137  13.192  15.781   0.128  0.1377  0.1214  0.0279
26724W        W40138   7.346   1.913  16.352 -0.0204  0.0128 -0.0856
26725W        W40139  13.697   6.507  16.332  0.3897  0.0031 -0.0677
26726W        W40140   0.608   7.416   1.556 -0.2696  0.2362 -0.1603
26727W        W40141   9.757  11.417   0.204 -0.0634 -0.1221 -0.0202
26728W        W40142  10.847   3.417  14.372  0.0244 -0.2532 -0.0003
26729W        W40143   7.639   5.379   1.412 -0.0325 -0.0280 -0.1376
26730W        W40144   0.135   5.810  13.886 -0.0738  0.0304  0.1881
26731W        W40145   1.126  11.519   2.408  0.1184  0.0927 -0.0703
26732W        W40146  16.500   6.422   4.519  0.1985 -0.0958  0.1233
26733W        W40147   9.473  11.188  11.916 -0.2665 -0.0945  0.1102
26734W        W40148  12.507   3.025  15.270 -0.0369 -0.0765  0.2032
26735W        W40149  11.889   9.045   3.046 -0.0159  0.3022 -0.1455
26736W        W40150  15.431   9.159   0.179 -0.0938  0.0347  0.0452
26737W        W40151  13.122   0.684   4.178 -0.0783 -0.0571  0.1647
26738W        W40152  13.467   0.886  11.629  0.2325  0.1024  0.1510
26739W        W40153  11.151  12.709  16.664 -0.1873 -0.1246 -0.5122
26740W        W40154  11.663  10.139   5.502 -0.0402 -0.0153  0.3057
26741W        W40155   9.807  12.750   1.741  0.2965  0.2012 -0.0091
26742W        W40156  13.989  12.868  16.152 -0.1407 -0.1370 -0.0907
26743W        W40157   2.983  11.947  16.202  0.1902 -0.0885  0.2842
26744W        W40158  17.256   6.002   1.161 -0.1826 -0.0373 -0.1656
26745W        W40159  10.416   9.675   3.174  0.0546 -0.0021 -0.2869
26746W        W40160   6.116  12.476  13.551 -0.1995  0.0236 -0.3863
26747W        W40161  12.120   9.783   2.917  0.1938  0.1644  0.1478
26748W        W40162  14.477  14.834   4.543  0.0384  0.0359 -0.1453
26749W        W40163  12.424  11.404  12.606 -0.0896  0.0724 -0.0113
26750W        W40164  12.036   1.915   0.538  0.1024 -0.1529 -0.0077
26751W        W40165   1.666  15.333   0.775 -0.1768 -0.0197  0.1103
26752W        W40166  14.661   5.280  14.894  0.1635  0.2326  0.0432
26753W        W40167  13.411  15.772   3.529  0.0560 -0.2368 -0.0656
26754W        W40168  14.060  15.796   5.545 -0.0364  0.1730 -0.1294
26755W        W40169   8.590  14.063  15.607 -0.0789 -0.0129  0.0163
26756W        W40170   7.032   8.048  15.880 -0.0313 -0.1576  0.1455
26757W        W40171   3.368   4.090   0.163 -0.1275  0.1280 -0.0639
26758W        W40172   9.231  16.909  14.794  0.1502 -0.0327 -0.1135
26759W        W40173  17.076  15.539  15.900 -0.2603  0.0567 -0.0240
26760W        W40174  11.079  17.466   5.107 -0.0387 -0.2334  0.0172
26761W        W40175   9.172  17.959  10.728 -0.2079  0.0117  0.0576
26762W        W40176  17.886   7.738   2.497 -0.1933 -0.1444  0.0594
26763W        W40177  17.146   3.181  15.648  0.1446  0.1369  0.0203
26764W        W40178   6.655  15.479   1.965 -0.0942 -0.2113 -0.0829
26765W        W40179   2.957  15.373  16.531 -0.0782 -0.0543  0.0914
26766W        W40180  10.703   0.898   0.994 -0.1034 -0.1363 -0.2066
26767W        W40181  12.627  16.714  12.922  0.3027 -0.0265 -0.0208
26768W        W40182  10.360   1.605   9.834 -0.0279 -0.3681 -0.2018
26769W        W40183   0.157  11.689  14.677 -0.4170 -0.1744 -0.1654
26770W        W40184  15.789  16.097  16.512 -0.0108  0.0802  0.2265
26771W        W40185   2.127  14.392   3.885 -0.2000  0.1953  0.3931
26772W        W40186   1.486   8.869   3.321 -0.2677 -0.0352 -0.3566
26773W        W40187  10.088   5.569   2.451 -0.1187 -0.4007 -0.0791
26774W        W40188   4.804  16.808   0.833  0.1048 -0.0722 -0.0250
26775W        W40189  16.897   2.044  16.593  0.0774 -0.1648  0.1711
26776W        W40190   2.504   0.557  15.350 -0.1470 -0.0479 -0.0799
26777W        W40191   6.238  11.834  10.911  0.2305  0.0546  0.3159
26778W        W40192  14.635   4.516  16.628 -0.1240 -0.0487 -0.0623
26779W        W40193   0.343   8.821  12.857 -0.3600 -0.2767 -0.2173
26780W        W40194   2.402   8.355   5.280  0.1404  0.1095  0.3227
26781W        W40195  12.908   4.621   5.901 -0.2318 -0.0041  0.1852
26782W        W40196   5.815   3.907   4.262 -0.1312 -0.6640 -0.0202
26783W        W40197   8.957   3.902  11.602 -0.1652  0.0649 -0.0411
26784W        W40198  13.283   2.366   4.294 -0.2618 -0.0746  0.5292
26785W        W40199  16.499   7.066   1.469  0.0405 -0.3396  0.0089
26786W        W40200   3.923   4.137   5.500 -0.1431 -0.3418  0.1703
26787W        W40201   2.604  11.671   2.230 -0.0357 -0.1771  0.3154
26788W        W40202   7.831   9.205   3.404 -0.0311 -0.1190  0.0271
26789W        W40203   4.394  16.853   2.274 -0.0413  0.2321  0.2449
26790W        W40204   4.265   3.709  14.992 -0.0369 -0.1056 -0.2751
26791W        W40205  11.823   4.944   5.007  0.2575 -0.1555  0.2582
26792W        W40206   2.974   2.368   3.587  0.1547  0.0563 -0.3461
26793W        W40207   2.005  16.659   2.375 -0.0768  0.0841  0.0736
26794W        W40208  12.454  12.310  14.125  0.4080  0.2506 -0.0529
26795W        W40209   6.179  13.497  14.969 -0.2171 -0.2027  0.0633
26796W        W40210  14.891   0.560   4.219 -0.2140 -0.2635 -0.0425
26797W        W40211  12.572  10.483   4.184  0.2426 -0.0243 -0.0506
26798W        W40212   6.556  13.568  10.731  0.3407  0.1117 -0.1256
26799W        W40213   7.673  12.242   4.553  0.0798  0.1599 -0.3527
26800W        W40214   0.358   4.723   3.549 -0.1599  0.3746  0.1396
26801W        W40215  15.074   0.342   2.862 -0.1964 -0.0978  0.3097
26802W        W40216   1.962   9.363  12.037  0.0302 -0.0712  0.2758
26803W        W40217   8.707  16.665  14.859  0.0664 -0.1353  0.1513
26804W        W40218   6.429  14.674   4.777 -0.2202  0.0114  0.1266
26805W        W40219   0.782   8.745   1.474  0.1739 -0.0489  0.1195
26806W        W40220  13.717  13.180   3.682  0.0448  0.2010  0.0217
26807W        W40221  10.550  17.800   2.302 -0.0287 -0.1297  0.1160
26808W        W40222   5.423  12.544  12.714 -0.0633 -0.0443  0.2664
26809W        W40223  12.565   4.410  15.448 -0.0509  0.2562  0.0908
26810W        W40224  14.074  14.338  11.399 -0.0218 -0.0675 -0.1533
26811W        W40225  16.471   6.070  13.949 -0.0267 -0.1924  0.1533
26812W        W40226   1.213   9.735   6.151  0.0247 -0.1491  0.3723
26813W        W40227   9.772  10.522  15.752  0.2279  0.2288 -0.3876
26814W        W40228   5.375  11.621  16.460  0.2062  0.0839 -0.0334
26815W        W40229   3.195   9.705  15.850 -0.2567  0.2015  0.1861
26816W        W40230   5.657   7.373   5.090 -0.2266 -0.0855  0.2525
26817W        W40231   0.127   1.605  16.447 -0.1941  0.0501  0.0700
26818W        W40232   4.089   3.641   0.371 -0.0580 -0.0994 -0.0736
26819W        W40233  16.097  17.875   2.534  0.2055  0.0767  0.1063
26820W        W40234  11.330   7.607  12.006  0.0354 -0.0083  0.0700
26821W        W40235   6.809   2.253   2.427 -0.2921  0.0614  0.0770
26822W        W40236  17.254  13.196  14.320  0.2258 -0.0076 -0.1243
26823W        W40237  17.291   3.521   3.967  0.2409  0.1127 -0.1845
26824W        W40238  16.733   6.932   6.531  0.1724 -0.1638  0.1689
26825W        W40239  13.489   2.631   5.263  0.0566  0.0894 -0.2643
26826W        W40240   6.861  17.143   1.700  0.0185 -0.0394 -0.2085
26827W        W40241  11.425   0.967   5.813  0.1530 -0.0078  0.2756
26828W        W40242  12.435   6.843  12.012  0.0303 -0.2380  0.2051
26829W        W40243  15.541  15.834  13.091 -0.0827  0.2040  0.1485
26830W        W40244   9.156   0.745   0.694 -0.0768  0.0343  0.0421
26831W        W40245   9.500   7.177  15.902  0.0601  0.0147 -0.1121
26832W        W40246  11.104   4.952  13.328 -0.2817  0.2193 -0.0451
26833W        W40247  14.502   4.968  10.954 -0.0590 -0.0149 -0.0387
26834W        W40248   4.300  11.239   1.261 -0.0508  0.1295  0.1329
26835W        W40249   6.689   2.504  11.502 -0.4175  0.3213 -0.0828
26836W        W40250  15.124  13.597   5.440 -0.0314 -0.2856 -0.1157
26837W        W40251  17.184   3.887  12.752 -0.1152  0.4803  0.0228
26838W        W40252   3.393   7.179  10.840 -0.2052 -0.0813  0.0785
26839W        W40253   4.427   8.829  13.669 -0.0983  0.0217 -0.1298
26840W        W40254   6.893   2.015   0.613 -0.0973  0.4060  0.0865
26841W        W40255   5.106   4.260  16.220  0.0036  0.0540  0.3545
26842W        W40256   2.456  14.675  15.262  0.1056 -0.0843 -0.0054
26843W        W40257   9.308  10.345   5.901 -0.0190  0.1842 -0.3609
26844W        W40258   6.386   7.877   2.233  0.1643  0.0387  0.0885
26845W        W40259   2.482   6.038  14.686  0.1474  0.1131 -0.2048
26846W        W40260   7.202   9.874  14.585 -0.0145  0.2351 -0.2269
26847W        W40261   4.799   4.296  13.836 -0.0258  0.1862  0.3714
26848W        W40262  13.949   7.931   0.861 -0.0713  0.1663  0.0783
26849W        W40263  14.463  17.200  15.851  0.2321  0.0499  0.1408
26850W        W40264  10.126  15.548  16.050  0.1756 -0.0660 -0.1284
26851W        W40265   6.857  15.374  12.392  0.0722 -0.0811 -0.0468
26852W        W40266   4.415  11.783   5.342  0.0642  0.1883  0.3073
26853W        W40267   6.421  17.558   1.510 -0.0739 -0.0114  0.3591
26854W        W40268   7.799   2.013   5.162  0.1086  0.0082  0.0484
26855W        W40269   5.575   4.407  12.084 -0.2282  0.0652 -0.1484
26856W        W40270   3.272  13.849   4.906 -0.1472 -0.1028  0.1863
26857W        W40271  14.740  17.699   2.054  0.1508 -0.0846 -0.1014
26858W        W40272  10.610  13.012  11.796  0.1570 -0.0128  0.0640
26859W        W40273   8.068   9.785   5.727  0.3446  0.0279  0.0364
26860W        W40274   7.715   8.614   2.610  0.1255  0.0277 -0.2060
26861W        W40275  16.745   9.975   4.352 -0.1835 -0.1008  0.1400
26862W        W40276   2.926   2.889   2.127 -0.0255  0.5495  0.2265
26863W        W40277   7.794  16.805  14.634  0.0443  0.1717  0.1718
26864W        W40278   7.306  12.476   3.512 -0.0673 -0.0652  0.1490
26865W        W40279   8.232   7.390   5.288 -0.0456 -0.1383  0.3209
26866W        W40280  11.918  16.997  11.903  0.1050  0.3183  0.2160
26867W        W40281   8.412  10.070   3.800  0.0897 -0.0144  0.0038
26868W        W40282  15.337  13.318   0.932  0.1675 -0.1737  0.0876
26869W        W40283  12.514   1.192   5.060 -0.1195 -0.2821  0.1739
26870W        W40284   6.879  10.356   4.991 -0.0724  0.1879  0.1202
26871W        W40285   6.204   3.623  15.816  0.1141  0.1030 -0.1454
26872W        W40286   1.785   2.636  12.848  0.0313  0.0348 -0.3199
26873W        W40287  13.406   1.172  12.017  0.1086  0.1666 -0.2070
26874W        W40288  17.896  15.601  12.328  0.0339 -0.0728  0.3727
26875W        W40289   0.056   5.730   6.381  0.2091  0.0545 -0.2029
26876W        W40290   2.713   8.007   1.876  0.2743  0.0570 -0.0730
26877W        W40291   0.547   9.206  16.587 -0.0255  0.0882 -0.1943
26878W        W40292  15.488  12.306  10.700 -0.1900  0.0129 -0.1109
26879W        W40293   4.263   5.578   2.263  0.0293  0.3153 -0.1485
26880W        W40294  16.018   4.383  14.782  0.0862  0.2353 -0.1786
26881W        W40295   5.459   1.847   1.102 -0.1489  0.1841  0.0582
26882W        W40296   8.933  12.936  10.349  0.2849  0.3419 -0.0642
26883W        W40297   5.488  14.953   4.489 -0.0783  0.1066  0.2269
26884W        W40298   2.533  10.549   0.224  0.0446  0.0654  0.0604
26885W        W40299   6.128   2.370  14.543  0.5698  0.2284  0.1169
26886W        W40300   8.675  10.676  14.948  0.3594 -0.0644  0.0687
26887W        W40301   2.795  10.053  12.464 -0.3598 -0.1686  0.1138
26888W        W40302   3.976  15.988  11.291 -0.1026  0.0446  0.1509
26889W        W40303   9.720  15.003  14.705  0.3180 -0.2121  0.2102
26890W        W40304   2.501  13.772   4.983 -0.0805  0.1177 -0.0618
26891W        W40305  15.800   8.832  15.482 -0.0329 -0.3274 -0.0369
26892W        W40306   1.982   6.624  13.047  0.0971  0.0693 -0.0297
26893W        W40307   4.274   7.582  10.685 -0.3702 -0.2367  0.1890
26894W        W40308  14.934   4.535  16.233  0.0392 -0.1130 -0.2712
26895W        W40309  14.561   7.322  11.944  0.0310  0.0780  0.1264
26896W        W40310   1.298  17.608   0.137 -0.2431  0.1255 -0.0091
26897W        W40311   6.672  17.965  14.925  0.0633  0.0686  0.0771
26898W        W40312   6.894   1.961  12.829 -0.0797  0.1920  0.1563
26899W        W40313  10.923   2.205  10.876 -0.2722  0.1795  0.0353
26900W        W40314   9.268   5.172   9.595  0.1600 -0.2103  0.0444
26901W        W40315  14.015  17.534   5.829  0.0341  0.1536  0.0200
26902W        W40316   7.852   7.823  13.048 -0.1398  0.0201  0.0084
26903W        W40317  10.807  12.265  13.074  0.0407  0.0384  0.0202
26904W        W40318  12.032  17.447  14.194  0.0150  0.2309 -0.1484
26905W        W40319   0.414   9.762   0.061  0.2047  0.0547 -0.5154
26906W        W40320   1.705   9.439   2.319  0.1793 -0.0013  0.1392
26907W        W40321   1.240  17.145   2.425 -0.1907 -0.0000  0.0047
26908W        W40322   0.614   0.874  15.438  0.2174  0.1855  0.0700
26909W        W40323   4.620   1.751   6.100 -0.0553  0.0504 -0.0366
26910W        W40324   0.364  16.999   2.995 -0.0685  0.2007 -0.2765
26911W        W40325   3.059  16.208   4.302 -0.0675  0.0931 -0.0492
26912W        W40326   6.939  11.202   5.584 -0.0967  0.0152  0.0784
26913W        W40327  11.225   5.137  11.094 -0.0398 -0.0219 -0.2436
26914W        W40328  16.808   2.755   3.476 -0.2100 -0.0216  0.0694
26915W        W40329  10.623  14.387   4.612  0.0088  0.0124 -0.0535
26916W        W40330   2.045  17.149  13.218  0.1583 -0.1205 -0.0385
26917W        W40331  15.154   4.065  15.946  0.0340  0.2285 -0.3494
26918W        W40332  14.329  10.658  15.741 -0.2628  0.2679  0.2611
26919W        W40333  16.244  12.535   3.870 -0.2081 -0.1010  0.0524
26920W        W40334   2.539   2.222  12.858  0.0381  0.1828 -0.0727
26921W        W40335  15.651  11.639  12.876 -0.2474  0.2087 -0.4759
26922W        W40336  13.728   9.017   3.903  0.2580 -0.0129  0.3719
26923W        W40337   7.315   7.786   3.352  0.3474  0.1163  0.1395
26924W        W40338   4.777   4.623   6.537  0.3246  0.2472  0.1107
26925W        W40339   8.337   1.471   4.556 -0.0786 -0.1404 -0.0970
26926W        W40340   4.647   2.030   3.968  0.0378  0.1040  0.1184
26927W        W40341   8.208   3.620   1.550 -0.3323 -0.0999 -0.1859
26928W        W40342  14.123  10.763   5.852 -0.0757 -0.3138  0.1821
26929W        W40343   0.459  11.522  14.086  0.0804 -0.0760 -0.2208
26930W        W40344   7.096  13.724   0.816  0.1695  0.1143  0.0988
26931W        W40345  16.951  14.384  13.555  0.0330  0.0507  0.0275
26932W        W40346  15.447   8.916   2.983  0.0593 -0.1928 -0.0639
26933W        W40347  15.439   5.149   5.275  0.0286  0.0787  0.2128
26934W        W40348  13.079   5.280  15.170  0.0623 -0.1226 -0.2232
26935W        W40349  17.358   8.399   6.278  0.0294 -0.2643  0.2851
26936W        W40350  13.871  10.736  14.997  0.1876  0.1945  0.0551
26937W        W40351  17.990   8.274   3.408 -0.3439 -0.2194 -0.3261
26938W        W40352  15.805   1.523  11.048 -0.0163  0.1125  0.1824
26939W        W40353   6.617  18.006  13.706  0.1359 -0.1240 -0.2151
26940W        W40354   9.891   2.906  16.392 -0.1639 -0.1585 -0.1189
26941W        W40355  12.215   2.641   0.515  0.2034 -0.0731  0.0879
26942W        W40356  10.797   9.667   5.517 -0.3342  0.2439  0.0655
26943W        W40357   9.535   3.281   9.811 -0.0190 -0.0160  0.3399
26944W        W40358   7.976  17.451  11.358  0.2788 -0.0259  0.3592
26945W        W40359  15.357   3.489  13.917 -0.0799  0.1017  0.1763
26946W        W40360   2.633  16.464  11.279 -0.1894 -0.1074  0.0411
26947W        W40361   3.445   4.864  11.485  0.0787 -0.1447 -0.0773
26948W        W40362  15.227   1.580   2.324  0.0584 -0.2785 -0.5377
26949W        W40363  10.370   4.302   1.089 -0.1529  0.0855 -0.1350
26950W        W40364   8.008  13.468   4.695  0.0450  0.0516  0.1038
26951W        W40365   4.810   8.808   2.452 -0.0091 -0.1298  0.2657
26952W        W40366  17.426   1.699  14.511 -0.4734  0.0769 -0.0822
26953W        W40367  16.872   7.336   0.768 -0.2563  0.0943  0.2165
26954W        W40368   4.518  10.117  11.460 -0.2413 -0.0230  0.0749
26955W        W40369  11.234  10.014  15.813 -0.1714  0.2176  0.2279
26956W        W40370   0.501  12.394   3.477  0.0750  0.0016 -0.0924
26957W        W40371  10.413  11.912   4.860 -0.0858  0.1679 -0.2012
26958W        W40372  12.933   8.388  14.035  0.0342 -0.1120 -0.4889
26959W        W40373   2.469   9.294   1.121  0.2440  0.0265  0.1901
26960W        W40374   8.919   2.364  14.038  0.0872 -0.0851 -0.0990
26961W        W40375   5.673  10.831   5.183 -0.4988  0.1351 -0.1662
26962W        W40376  12.289   6.037   2.013 -0.0065 -0.0816 -0.0581
26963W        W40377  10.884   4.141   0.998 -0.2368  0.0900  0.2353
26964W        W40378  12.821   6.018   1.924  0.0189 -0.0009 -0.0230
26965W        W40379   3.518  17.590   5.418 -0.0361 -0.1805 -0.0345
26966W        W40380   7.023  17.592  15.493 -0.0151 -0.1683  0.0221
26967W        W40381   8.480   2.418  10.432 -0.0642 -0.0415  0.1552
26968W        W40382   5.910   1.079  10.943 -0.1990  0.1298 -0.0410
26969W        W40383  14.318  16.857  12.650  0.0629  0.0711 -0.3338
26970W        W40384  11.556  13.160   5.459  0.1199 -0.0251  0.0859
26971W        W40385   4.822  17.074   4.004  0.1309  0.2901  0.3118
26972W        W40386  17.930   1.867  14.185 -0.0483  0.1870 -0.0587
26973W        W40387   5.713   2.707  11.998  0.0777  0.3320  0.1175
26974W        W40388   5.433   9.740   3.884  0.2882 -0.1886  0.1373
26975W        W40389   6.889   1.958   5.521  0.0087 -0.0653 -0.2417
26976W        W40390   2.482   7.265   4.259 -0.0701  0.1816 -0.0637
26977W        W40391   3.823   3.361  11.302  0.1181  0.2592  0.3205
26978W        W40392  11.006   5.706  12.128  0.0353  0.2956  0.1850
26979W        W40393  10.651  13.054   3.355  0.0107 -0.1356  0.0908
26980W        W40394   5.365   7.289   4.659  0.0398 -0.0196 -0.1340
26981W        W40395   1.284   8.859  14.978  0.1301 -0.2207  0.0219
26982W        W40396   4.628  10.180   4.643 -0.0185  0.1938  0.0993
26983W        W40397  11.497   3.892   2.900 -0.1390 -0.2790  0.1268
26984W        W40398   7.998  16.321  12.641  0.0747  0.0148 -0.0953
26985W        W40399  14.707   7.347  15.942  0.1848 -0.2290 -0.3179
26986W        W40400   2.780  13.088  14.684  0.4450  0.2230  0.0794
26987W        W40401  17.416   6.902   2.491 -0.0685  0.1660  0.1472
26988W        W40402   3.261  13.840   2.602  0.0005 -0.0951  0.3139
26989W        W40403  15.597   5.460  15.093 -0.0190 -0.1501  0.1121
26990W        W40404   3.145   6.082   5.835 -0.1245  0.0403 -0.0010
26991W        W40405   8.168   0.445  16.455  0.0655 -0.1898  0.0071
26992W        W40406  13.592  14.588  16.245  0.0227 -0.1869 -0.0043
26993W        W40407   4.530   7.805   0.175  0.1040  0.0066  0.0213
26994W        W40408   3.978  15.753  10.822  0.0587  0.0210 -0.1031
26995W        W40409   9.141   8.987  11.009 -0.1115  0.0747 -0.1404
26996W        W40410   6.197   6.921  12.457 -0.2061  0.4056 -0.1482
26997W        W40411  14.551  14.012   4.244 -0.0414 -0.2984 -0.0678
26998W        W40412  13.559   6.099   3.374 -0.0237 -0.0966  0.1936
26999W        W40413   4.619  11.333  16.558 -0.0278  0.2327  0.3884
27000W        W40414   7.355   2.992   6.188  0.0909 -0.0068  0.2769
27001W        W40415   2.608  14.227   0.567  0.0061 -0.0075  0.0452
27002W        W40416   3.610  12.647   4.079  0.2096  0.1683 -0.0183
27003W        W40417  12.878   2.436   5.313  0.2989  0.1540  0.0912
27004W        W40418  10.420  14.865  12.562  0.4089  0.2586 -0.3022
27005W        W40419  15.891  13.987   1.244  0.1890  0.0387  0.0135
27006W        W40420  15.878  11.584   3.999  0.0264 -0.2501 -0.1457
27007W        W40421  15.439   5.489  14.446  0.1257 -0.1618 -0.2627
27008W        W40422   1.977   5.522   4.064 -0.2038  0.1198  0.0179
27009W        W40423   4.886  16.798   2.268 -0.1663  0.1433 -0.1477
27010W        W40424   9.686  11.515   0.973 -0.0157  0.0742  0.1882
27011W        W40425  17.356  16.945   4.427  0.3493  0.0096 -0.1971
27012W        W40426   0.306  11.149  13.734  0.0022 -0.0263 -0.2987
27013W        W40427  14.677   6.930  12.795 -0.0790 -0.1754 -0.1301
27014W        W40428  10.875   9.305  11.229  0.0160  0.1690 -0.1297
27015W        W40429   5.430  14.348  13.764  0.2400 -0.1366  0.1620
27016W        W40430   8.734  13.045  11.542 -0.0599  0.0899  0.2414
27017W        W40431   8.903  10.776  11.385 -0.3919  0.3185 -0.1327
27018W        W40432   8.682   0.483  15.837  0.2046 -0.2213  0.0939
27019W        W40433  11.807   6.654  15.104 -0.0649 -0.0611 -0.3126
27020W        W40434  14.807   4.404  11.763 -0.0453 -0.0776 -0.1399
27021W        W40435  12.561   6.420  11.150  0.2106 -0.3105 -0.0965
27022W        W40436   6.111  10.523   1.983 -0.2814 -0.0884 -0.1982
27023W        W40437  16.266   0.205  15.957  0.3259  0.2033 -0.0567
27024W        W40438  11.574  17.596  13.795 -0.0618 -0.0472  0.0385
27025W        W40439   1.400   1.691   4.978 -0.0901 -0.0296  0.0283
27026W        W40440   8.015   5.342   5.996  0.0033  0.1342 -0.0153
27027W        W40441   9.543   6.870   5.151 -0.1906 -0.2426 -0.1934
27028W        W40442   6.174  16.034   2.678 -0.0143 -0.2137 -0.2804
27029W        W40443   2.421  12.753   4.829 -0.3985 -0.0709 -0.0362
27030W        W40444   5.031   6.392   3.281  0.2106  0.1624  0.2184
27031W        W40445  12.764   4.847  15.245  0.0367  0.0424 -0.0821
27032W        W40446  16.296  10.554  13.508  0.0641  0.0387 -0.0702
27033W        W40447  12.412   4.816   0.334 -0.0761  0.1207 -0.0679
27034W        W40448  17.293   4.322   6.934 -0.0142 -0.1614  0.2369
27035W        W40449   4.688   1.623   2.283 -0.1104  0.0505  0.0074
27036W        W40450   0.394   0.930   6.291 -0.0564  0.1047 -0.1645
27037W        W40451  15.431  17.676  15.532  0.0633 -0.0798  0.1430
27038W        W40452   2.440  13.474  15.002  0.1027  0.1780  0.1731
27039W        W40453   7.009  15.160  14.982 -0.0180  0.0323 -0.1896
27040W        W40454   2.337  16.065  11.315 -0.2532 -0.0505 -0.0048
27041W        W40455  17.096   4.689   5.797 -0.0678  0.1319  0.1777
27042W        W40456  17.596   5.487   4.731  0.0311  0.0308 -0.0107
27043W        W40457  15.464   2.346  10.943 -0.0281  0.1803  0.4449
27044W        W40458   2.808  10.302  15.192  0.1914 -0.0213  0.2399
27045W        W40459  15.447  12.937  16.050 -0.1488 -0.3460 -0.0146
27046W        W40460  12.300   0.410  14.900  0.3001 -0.0826  0.4161
27047W        W40461  10.416  11.083   3.293  0.0756  0.0110  0.3746
27048W        W40462  12.362  16.322  15.083 -0.0236  0.0973  0.1290
27049W        W40463   1.274  17.358   2.895 -0.1771  0.1161 -0.0734
27050W        W40464   3.882   2.957   3.231  0.0779 -0.0083  0.3682
27051W        W40465   6.533   8.104   3.780 -0.1098  0.0159  0.1804
27052W        W40466   1.512  11.447   5.795 -0.1298  0.2532 -0.0421
27053W        W40467   6.372   1.304  14.387 -0.0552 -0.1355  0.0255
27054W        W40468   8.719   1.738   3.578 -0.1093  0.0716  0.3556
27055W        W40469  14.451  16.890  11.236  0.0220 -0.0974  0.1608
27056W        W40470  17.664   3.471  15.712 -0.1262  0.2082 -0.0858
27057W        W40471  13.648   1.937  11.709  0.3685 -0.0562 -0.0360
27058W        W40472   1.472   1.050  12.423  0.3086  0.0934  0.1380
27059W        W40473  13.078   4.047  14.559  0.0095 -0.1275 -0.3724
27060W        W40474  13.320   1.297  15.951 -0.0805  0.1269 -0.0640
27061W        W40475   3.933  17.138  14.044 -0.1397  0.2575  0.2898
27062W        W40476   3.527  15.671   5.641  0.4651  0.1730 -0.2313
27063W        W40477  16.161   3.157   0.038 -0.0295 -0.1956 -0.1447
27064W        W40478   9.975  11.898  16.094 -0.3345 -0.3565  0.1225
27065W        W40479   4.175   0.803   3.979 -0.0973  0.0283  0.1508
27066W        W40480  14.930   9.608   3.853  0.0991  0.0247 -0.0279
27067W        W40481   5.104  16.070  16.481  0.4585  0.2246  0.2267
27068W        W40482   9.444   5.403   0.718 -0.0301 -0.0258  0.1352
27069W        W40483   4.196  14.733  11.276  0.2173 -0.0825 -0.1232
27070W        W40484   6.994   4.169   0.560  0.1277  0.0581 -0.1236
27071W        W40485  16.111   7.675  13.601  0.0511  0.0198  0.0495
27072W        W40486   9.605   5.336  13.283 -0.2884 -0.2928  0.0543
27073W        W40487  10.213   3.009  11.315  0.0151  0.5832  0.0775
27074W        W40488   4.141   6.249   5.507  0.0339  0.0469  0.4291
27075W        W40489  14.690  17.337  11.109 -0.1519  0.0420 -0.0996
27076W        W40490   2.388   2.081   4.033  0.1792 -0.2855 -0.1653
27077W        W40491  14.115   0.437  14.959 -0.1229  0.1216  0.1084
27078W        W40492   5.008   6.528  11.364 -0.3538 -0.0022  0.2250
27079W        W40493  16.659  14.203   2.916  0.0395  0.2735 -0.0403
27080W        W40494  12.639   5.931  12.053  0.1031 -0.0495 -0.0154
27081W        W40495   0.663   7.432  13.975  0.1725 -0.0699  0.0586
27082W        W40496   4.116  13.016  15.452 -0.0547 -0.2739 -0.1175
27083W        W40497   2.599   3.784  13.216  0.0811 -0.0392  0.3314
27084W        W40498  12.176  13.351  10.402  0.0738  0.1473 -0.4160
27085W        W40499  16.993  11.579   2.061 -0.1606  0.0198  0.2644
27086W        W40500  10.465   9.474   5.163 -0.1239 -0.0485 -0.0593
27087W        W40501  12.831  13.965  11.174  0.1382 -0.0372  0.1880
27088W        W40502  15.704  15.607   5.541 -0.0154  0.1409  0.0278
27089W        W40503   8.736  11.982  11.786  0.3525  0.1587 -0.0466
27090W        W40504  11.072   4.012   0.541  0.0253  0.3970 -0.0482
27091W        W40505   7.150  10.010   5.387 -0.2440  0.4529 -0.0211
27092W        W40506  13.211  12.357   2.674  0.0573 -0.1798 -0.1570
27093W        W40507  13.983  13.595   3.715 -0.0760  0.3432 -0.2331
27094W        W40508   1.205  15.924  15.374  0.2802 -0.0674 -0.0775
27095W        W40509   5.008  17.161  13.603  0.0627  0.0100  0.1898
27096W        W40510   9.125  16.869  13.142 -0.0134 -0.1423 -0.0991
27097W        W40511   1.861   2.007  16.551 -0.0103  0.0137  0.1515
27098W        W40512  14.167  16.327  11.942 -0.1154 -0.2627  0.1498
27099W        W40513   6.937  17.606  13.765 -0.1471 -0.1937  0.3429
27100W        W40514  17.379  17.309   4.910  0.2270  0.0239  0.1465
27101W        W40515  10.527  12.732   5.506  0.1151  0.2245 -0.0274
27102W        W40516  11.195  16.045  14.271 -0.0246  0.1003 -0.0551
27103W        W40517  14.722  10.793   4.832  0.2439  0.0568  0.0760
27104W        W40518   4.610  13.701   2.367  0.1428  0.2290 -0.1599
27105W        W40519   9.960  16.875  11.000  0.0669 -0.3411 -0.1650
27106W        W40520   3.438  15.256  15.102  0.1472 -0.0064  0.1739
27107W        W40521   1.364   7.897  13.652  0.2156 -0.2630 -0.0049
27108W        W40522  16.924   9.888   2.267  0.1334  0.2449 -0.0622
27109W        W40523   1.360   2.357  14.835 -0.1897  0.2270 -0.0469
27110W        W40524  11.688  13.476  14.725 -0.2575 -0.2516  0.4111
27111W        W40525   9.931  14.095  13.889 -0.2128 -0.0226 -0.1607
27112W        W40526   5.464   3.570   4.246 -0.0106  0.0992  0.0437
27113W        W40527   0.877   4.456  14.544 -0.0363  0.1161 -0.0821
27114W        W40528   3.076   4.544   3.827  0.1363 -0.1314  0.0180
27115W        W40529  10.946  10.755  15.035  0.1070 -0.1286  0.0230
27116W        W40530   5.310   6.922  11.067 -0.0467 -0.0357  0.0856
27117W        W40531  16.785   4.822  11.086 -0.0130 -0.3040  0.1000
27118W        W40532   2.256  15.635  11.630 -0.1647  0.0485  0.0579
27119W        W40533  11.318  11.749   3.659 -0.0084  0.1865 -0.2843
27120W        W40534  14.940   9.622   5.902 -0.2097  0.0928 -0.0506
27121W        W40535   6.660   6.747   2.468  0.0648  0.2317  0.1390
27122W        W40536   6.355   7.303   0.773 -0.0163 -0.1711  0.1598
27123W        W40537   8.884  12.928   0.781  0.2107  0.0334  0.2198
27124W        W40538   3.902   4.416  13.865 -0.2556 -0.0639 -0.2436
27125W        W40539   7.947   6.715  12.331 -0.0396  0.0779 -0.1196
27126W        W40540   3.374  12.040   2.803  0.1197  0.0829 -0.1246
27127W        W40541  10.527  12.428   3.456  0.0496  0.0054 -0.1402
27128W        W40542  13.335   6.827   0.753  0.0475 -0.1397  0.1448
27129W        W40543   1.532   6.786   3.664 -0.0239  0.0478  0.0834
27130W        W40544  10.666  17.839   2.793  0.2746 -0.0186 -0.1198
27131W        W40545  15.538  18.003  16.478 -0.2211 -0.0958  0.0691
27132W        W40546   0.914   8.047   6.059  0.1972 -0.3235  0.3529
27133W        W40547   6.015   3.800  14.266  0.1230  0.2217  0.1991
27134W        W40548  15.102   8.738   5.411 -0.1064  0.0858  0.0240
27135W        W40549   2.765   2.064   6.820 -0.0669  0.1381  0.1620
27136W        W40550  11.687   1.984  10.287  0.0986 -0.0730 -0.0287
27137W        W40551  10.576   0.870   5.156 -0.5461  0.2327  0.0620
27138W        W40552  13.280  10.010   1.485 -0.1891  0.1917 -0.0449
27139W        W40553   7.326  16.930   0.164  0.2048 -0.1802  0.1158
27140W        W40554   1.158  11.832   3.121  0.2819 -0.2549 -0.2261
27141W        W40555   6.510  17.769   4.136 -0.2424  0.1089  0.2310
27142W        W40556   4.307  10.908  12.900 -0.1114  0.0160  0.2420
27143W        W40557   4.479  15.032  12.430 -0.1080 -0.0956  0.1392
27144W        W40558  11.988   6.403   2.126  0.1341  0.0985  0.1089
27145W        W40559  10.697   8.788  14.783 -0.1830  0.1012  0.0256
27146W        W40560  12.604  18.023   3.524 -0.0234 -0.1287  0.0862
27147W        W40561   9.743  17.676   1.861  0.0583  0.0347  0.1753
27148W        W40562  15.122   7.463  16.369  0.1143 -0.0963 -0.1303
27149W        W40563  15.746  12.102   2.348  0.1137 -0.3629 -0.1574
27150W        W40564   1.083  16.461   6.346  0.0096  0.1259 -0.2392
27151W        W40565  16.556   5.572   5.818 -0.0369 -0.1156  0.0997
27152W        W40566  17.364   0.822  13.479 -0.0335 -0.2291  0.0313
27153W        W40567   7.455  15.901  13.299  0.1572 -0.0193 -0.0265
27154W        W40568  17.508   5.650   2.060 -0.2919 -0.1910 -0.2649
27155W        W40569   8.975  17.387  10.740  0.1590  0.1068 -0.2478
27156W        W40570   7.779   8.412  13.015 -0.0086 -0.0113  0.1784
27157W        W40571   9.550  15.927   3.293 -0.0545 -0.2228 -0.1238
27158W        W40572   0.446   1.002  14.952 -0.3600 -0.2785 -0.1659
27159W        W40573   7.470   5.441   0.286  0.2381 -0.2514  0.0173
27160W        W40574  13.559   2.294   3.371 -0.2037 -0.0906 -0.1325
27161W        W40575  17.845  14.847   1.529 -0.3277 -0.1486 -0.1632
27162W        W40576  14.727  15.375   5.330  0.0174 -0.1618  0.0259
27163W        W40577   6.857  11.091  15.972 -0.1628  0.0674 -0.1376
27164W        W40578   7.947  16.372  14.459  0.0948  0.2016  0.0018
27165W        W40579   4.536   0.105   0.570 -0.2324  0.2404 -0.0512
27166W        W40580  17.691   1.784   4.983 -0.0941  0.0046  0.0033
27167W        W40581   8.246  16.183   5.463 -0.5026  0.3364 -0.0018
27168W        W40582  15.903  17.416   4.429  0.0288  0.0931  0.1993
27169W        W40583   3.888  16.374  13.744  0.2865  0.0440 -0.0049
27170W        W40584  10.942  17.564  11.311 -0.0171 -0.2177  0.0636
27171W        W40585   6.783  11.696   3.532  0.2331  0.0704 -0.4948
27172W        W40586   6.584  17.020   5.494  0.0556  0.0410  0.2024
27173W        W40587  14.327   1.886   3.884 -0.0748 -0.2595 -0.0478
27174W        W40588   9.904   5.722   3.011  0.1837 -0.0405  0.1459
27175W        W40589   3.447   2.959  10.884 -0.0273  0.1175 -0.0642
27176W        W40590  14.937  15.514   2.810 -0.0544 -0.0045  0.0230
27177W        W40591   1.761   1.804   1.030 -0.0198 -0.0485 -0.1410
27178W        W40592   5.047   2.301  13.098 -0.2257 -0.0738 -0.1537
27179W        W40593  15.224   8.607   4.932 -0.1453  0.0168  0.0266
27180W        W40594   2.198   4.792   5.716 -0.0603 -0.0534 -0.0195
27181W        W40595   2.450  12.158  14.695 -0.0793 -0.2174 -0.2910
27182W        W40596  16.554  12.346   6.146  0.3697 -0.0202 -0.0247
27183W        W40597  16.351   6.519   1.747 -0.2213  0.0095 -0.1126
27184W        W40598  15.159   2.310  14.931 -0.0417 -0.3655  0.0064
27185W        W40599   5.815   0.425  15.427  0.2478  0.0115  0.1926
27186W        W40600   0.535  12.661  15.279 -0.1047  0.0902 -0.0886
27187W        W40601  17.801  11.563  15.793  0.1311  0.2501 -0.0599
27188W        W40602  12.056   5.406  12.445 -0.0143 -0.1246 -0.2640
27189W        W40603  14.050   3.873   3.504 -0.2686 -0.2513 -0.1530
27190W        W40604   9.257  16.124   4.982 -0.1609  0.2335  0.0312
27191W        W40605  16.553   8.046   1.005  0.3148  0.1675 -0.3032
27192W        W40606   1.771   5.579   5.907 -0.0965  0.1213  0.0732
27193W        W40607   6.383  15.576   1.128  0.1228  0.2336 -0.1871
27194W        W40608  13.807  15.372   1.242  0.1048 -0.1124  0.2127
27195W        W40609   3.617   0.199   0.945  0.0722  0.2813 -0.2988
27196W        W40610   2.131  15.193  12.469 -0.0915  0.1187 -0.0799
27197W        W40611   9.319   6.827  10.236  0.1855 -0.3156 -0.3028
27198W        W40612   6.320   6.895  12.935 -0.0186  0.1822 -0.0180
27199W        W40613   2.250  14.724   3.367  0.2904 -0.3342 -0.0245
27200W        W40614  12.614  13.664  10.708 -0.5132 -0.3152  0.0657
27201W        W40615  10.637   8.166   3.801  0.1315  0.1508  0.0255
27202W        W40616   5.819   5.272   3.778 -0.1316  0.1588 -0.1331
27203W        W40617  15.473   9.769   4.373  0.0606 -0.1938 -0.0149
27204W        W40618   3.372   2.989   1.955 -0.0889  0.0647 -0.2163
27205W        W40619  12.959   1.986  12.236  0.0942 -0.0357 -0.2293
27206W        W40620   4.073   5.364   9.780  0.2666 -0.0895 -0.1205
27207W        W40621   7.315   4.788  14.348 -0.0827 -0.0075  0.1356
27208W        W40622   2.249   0.040   0.634  0.1302 -0.0388  0.1240
27209W        W40623  17.764  16.450   0.514 -0.0432  0.2473  0.1369
27210W        W40624   7.893  12.651  10.613  0.0958 -0.0065 -0.2462
27211W        W40625   7.363  10.245  14.881  0.1747  0.0220  0.0854
27212W        W40626   4.754   4.573  11.001 -0.0353 -0.0130 -0.0167
27213W        W40627  12.229   1.368  14.875 -0.0920 -0.2041 -0.0085
27214W        W40628  15.718  12.296  12.802 -0.0640 -0.2017  0.2280
27215W        W40629  16.677  14.248   3.818 -0.0862  0.4837  0.1096
27216W        W40630   9.058  13.216   6.200  0.3296  0.1170 -0.1014
27217W        W40631   2.978   5.466   0.187 -0.0966 -0.1966 -0.2257
27218W        W40632   7.093   0.678   5.447 -0.0309  0.3796  0.0272
27219W        W40633  16.805   4.853   5.435  0.1175  0.0691  0.0057
27220W        W40634   5.891   2.499  14.951  0.1473 -0.0995 -0.1312
27221W        W40635   6.233   6.317   4.356 -0.1890 -0.4557 -0.0295
27222W        W40636  11.747  15.777   0.000  0.0350  0.2038  0.1468
27223W        W40637  14.451   7.300   2.978  0.1649  0.1584 -0.1765
27224W        W40638   8.577  13.715  13.329 -0.1233 -0.3421  0.2404
27225W        W40639   2.677   8.794   4.024  0.0955 -0.1635 -0.0392
27226W        W40640   8.480  16.539   4.690 -0.1475  0.2554  0.0784
27227W        W40641  12.496  10.654   1.280 -0.1829 -0.0391 -0.1430
27228W        W40642   7.177   2.314  13.856  0.0205 -0.4137  0.1329
27229W        W40643  17.995  13.943  16.331  0.2147  0.1043  0.1115
27230W        W40644   5.465   3.928  12.323 -0.0567  0.3551  0.1659
27231W        W40645   4.232   7.529   5.072  0.0460  0.0199  0.0843
27232W        W40646   9.295  16.402  16.542 -0.1321  0.0564 -0.0280
27233W        W40647   4.018   0.600   3.151  0.1204  0.1693  0.3858
27234W        W40648   5.864   0.337   5.587 -0.1422  0.1821  0.0498
27235W        W40649   7.780  13.393   1.735  0.0134 -0.2590  0.0090
27236W        W40650   7.100  10.367   5.880  0.2119  0.0115  0.0439
27237W        W40651  10.753   2.778   4.307 -0.4465 -0.3999  0.0703
27238W        W40652  16.766   9.079  11.179 -0.0868  0.1324  0.0295
27239W        W40653  11.187  17.725  15.209 -0.2836  0.4607  0.1194
27240W        W40654   5.579  11.274   6.483 -0.0756  0.0646  0.0128
27241W        W40655  11.330   2.878  11.267 -0.1035 -0.2475 -0.1222
27242W        W40656   8.358  17.159  13.581  0.2529  0.1516  0.1708
27243W        W40657   5.981   3.174  10.380  0.0162  0.0610 -0.0566
27244W        W40658   6.643   7.717   0.564  0.1367  0.0684  0.0260
27245W        W40659   2.273  17.850   3.574 -0.1453  0.1052  0.0366
27246W        W40660  14.651  14.467  12.512 -0.0765 -0.0795  0.2190
27247W        W40661   0.923   9.210  13.662 -0.2361  0.0050 -0.1166
27248W        W40662   8.962  11.065  13.875 -0.0655 -0.0534  0.1262
27249W        W40663   0.694  10.973  11.580 -0.1049  0.2133  0.1570
27250W        W40664   3.543   8.244   1.414  0.0894 -0.1616 -0.1101
27251W        W40665   6.676   0.008  16.692 -0.1130 -0.0095 -0.1152
27252W        W40666   4.184  13.316  11.741  0.3834  0.1840 -0.2605
27253W        W40667  13.174  14.184   1.436  0.1319  0.2885  0.1276
27254W        W40668   7.749  12.189  12.711 -0.0330 -0.0081  0.0632
27255W        W40669  11.581   7.112   6.125 -0.0934  0.1462  0.0561
27256W        W40670  16.330  16.752  12.677  0.0060 -0.2068 -0.2686
27257W        W40671  17.356  13.018  15.331  0.1657 -0.0861  0.0520
27258W        W40672   4.222   3.065   0.154  0.4040 -0.1488 -0.0035
27259W        W40673  10.979  15.125   2.630 -0.0544  0.1059 -0.1641
27260W        W40674  15.783   6.191  15.746 -0.1143  0.0202 -0.0938
27261W        W40675  13.317  13.452   4.853  0.3041 -0.1560  0.1972
27262W        W40676  11.272  10.214   0.552  0.1537 -0.0898 -0.0783
27263W        W40677   5.312  17.692   1.638 -0.0758 -0.0972 -0.0218
27264W        W40678   9.912  14.589   2.848  0.3245  0.1304  0.0534
27265W        W40679  12.405   8.125   3.785  0.1466  0.0328  0.0751
27266W        W40680  15.877   6.642  15.924  0.4390 -0.1538  0.2323
27267W        W40681   2.828   4.246   5.497 -0.0924 -0.2153  0.1904
27268W        W40682  15.577   8.057   1.450 -0.2604 -0.1366 -0.1843
27269W        W40683  16.508   0.529  12.500 -0.1367  0.0173  0.0345
27270W        W40684  15.838  15.948   4.274 -0.4262  0.3332 -0.1635
27271W        W40685   5.401   1.581  12.861 -0.1231  0.0402  0.1218
27272W        W40686   1.270  17.114  13.554 -0.2973  0.1621  0.1837
27273W        W40687   1.100  10.264   0.257  0.0917 -0.0261 -0.1393
27274W        W40688   2.225   7.422   1.419 -0.2993 -0.1788 -0.1285
27275W        W40689   6.284   8.633   6.252 -0.0325 -0.0786 -0.0061
27276W        W40690  13.916  17.457   0.132  0.1363 -0.3445  0.1139
27277W        W40691  17.851  14.587  11.515  0.1586  0.0293  0.0541
27278W        W40692  14.443  16.790   3.420 -0.4273  0.0312 -0.0759
27279W        W40693  15.356  14.339  12.598 -0.1241 -0.3214  0.1115
27280W        W40694   5.373  10.241   2.689 -0.0149  0.0546 -0.2122
27281W        W40695   6.469  10.425   2.431 -0.1490 -0.0485  0.1735
27282W        W40696   4.620   4.327  14.280 -0.1628 -0.0913  0.0009
27283W        W40697  16.859   3.566  13.077  0.0342 -0.0485  0.2627
27284W        W40698   5.929   7.927  12.265  0.0051 -0.0257  0.3831
27285W        W40699   5.634  17.634  16.356 -0.2646  0.1725 -0.0464
27286W        W40700  17.362   3.769  10.661  0.2321 -0.4721 -0.3618
27287W        W40701   8.530  14.188   0.234 -0.0716 -0.2138  0.1605
27288W        W40702   7.536  16.437  13.497  0.2203 -0.4145  0.1148
27289W        W40703   1.420   2.934  13.112 -0.4203  0.0239  0.4022
27290W        W40704  17.121   6.553   1.205  0.1687  0.0326  0.1039
27291W        W40705   3.311  14.397  11.086  0.2938  0.1733  0.1079
27292W        W40706  17.121  14.674   0.923  0.1945 -0.2513 -0.2653
27293W        W40707   2.550   9.295   2.572 -0.0182 -0.0405  0.1398
27294W        W40708  10.165   3.836   0.017  0.1391  0.2475  0.2498
27295W        W40709   8.528  13.258   4.730 -0.2999 -0.1991 -0.1326
27296W        W40710   9.911   1.194  15.049  0.2720 -0.1218  0.2260
27297W        W40711   7.552   1.637  16.691  0.1652 -0.2437  0.1115
27298W        W40712  13.804   5.467   0.861 -0.0582 -0.1300  0.3246
27299W        W40713   6.673   8.967  16.524 -0.2085 -0.4145  0.2862
27300W        W40714  15.184   6.183  14.600 -0.0767 -0.2253 -0.1347
27301W        W40715   0.725   3.030   6.980  0.3210 -0.0386 -0.2148
27302W        W40716   1.201  10.030  16.493  0.2827  0.0547  0.0565
27303W        W40717  15.395  12.101  14.893  0.1303 -0.1670 -0.1318
27304W        W40718   0.102   1.495  13.105  0.3473  0.0630  0.0255
27305W        W40719  12.869  12.708   1.982  0.0739  0.3346  0.5159
27306W        W40720  10.928   4.197  13.175  0.0109 -0.0790  0.1762
27307W        W40721  15.351   8.091  12.789 -0.2472 -0.2256 -0.0093
27308W        W40722   9.443   3.547  13.183  0.1609  0.0819 -0.2073
27309W        W40723   8.026  11.350   4.283  0.1937 -0.0155  0.3025
27310W        W40724   8.094   1.854  14.884 -0.0773 -0.2342 -0.2106
27311W        W40725   8.422  15.244  10.610 -0.0366 -0.0708  0.0033
27312W        W40726   9.127   6.086   4.101  0.0392 -0.0282 -0.1143
27313W        W40727   2.650   1.057   5.681  0.0398 -0.0195 -0.2016
27314W        W40728  14.443  14.200   0.663 -0.1608  0.2927 -0.0739
27315W        W40729  14.157   7.100   1.061 -0.1150 -0.1492 -0.2236
27316W        W40730  12.866   4.636  11.492  0.0400 -0.1035 -0.0486
27317W        W40731   4.427   1.162  13.504 -0.4098 -0.3756 -0.1120
27318W        W40732  14.243   2.552   2.847  0.0630 -0.0682  0.0931
27319W        W40733  14.910  10.592   2.237  0.0117  0.0933  0.0836
27320W        W40734   8.324  14.481   0.623 -0.1558 -0.4468  0.2003
27321W        W40735  14.598   7.500   2.528 -0.2169 -0.1287 -0.0188
27322W        W40736   9.675   2.132   3.950  0.0623 -0.1983  0.0380
27323W        W40737   9.542   6.300   0.843 -0.1920 -0.1550 -0.0359
27324W        W40738   7.557   2.531  14.174 -0.2780 -0.1993  0.3158
27325W        W40739   2.785  15.885   1.045 -0.0604  0.1489 -0.3292
27326W        W40740  12.540  11.618   5.067  0.2439  0.1519 -0.1933
27327W        W40741   8.334  10.760   4.417 -0.3110  0.3104  0.4234
27328W        W40742  15.476   7.106   2.791 -0.2398 -0.1153  0.0502
27329W        W40743   2.117   3.194   6.323 -0.2261  0.0220  0.1078
27330W        W40744   9.002  12.461  12.619 -0.0067 -0.0254 -0.0191
27331W        W40745  17.673  12.958  13.369  0.2446  0.2079  0.0977
27332W        W40746   5.504  10.331   3.529  0.1797  0.0669 -0.1536
27333W        W40747   4.291  15.618   4.225 -0.0906 -0.0375 -0.2972
27334W        W40748  10.176   8.220   4.083  0.0861  0.0673  0.2326
27335W        W40749   7.161   3.835  14.593  0.0731 -0.1841  0.0811
27336W        W40750  16.745   9.200  15.461 -0.0350 -0.2919 -0.0664
27337W        W40751  17.465   4.535  15.948 -0.0078 -0.1014  0.2392
27338W        W40752  11.744   6.445   5.497  0.1076  0.0150 -0.0204
27339W        W40753  15.459   2.846   4.960  0.0789 -0.2242 -0.0319
27340W        W40754   3.032   3.361  11.761 -0.1717 -0.0562  0.1199
27341W        W40755   3.174   1.896  16.479  0.1088  0.0633 -0.0104
27342W        W40756   3.279  11.233   1.075 -0.2711 -0.1068 -0.0341
27343W        W40757  16.295  12.114   2.390  0.0365  0.0172 -0.2362
27344W        W40758   5.564   1.680  13.653  0.1155  0.1965  0.1815
27345W        W40759  15.921   2.435  11.940 -0.1490 -0.1822 -0.2931
27346W        W40760   8.833   9.685   5.893 -0.0645 -0.1162  0.2216
27347W        W40761   5.505  17.378  11.887 -0.0352  0.3137 -0.1490
27348W        W40762   6.840   7.154   2.266  0.2653 -0.1788  0.0654
27349W        W40763  12.570   5.687  15.621 -0.0197 -0.2726 -0.0408
27350W        W40764  17.414   8.541   5.759  0.0237  0.0787  0.0121
27351W        W40765  13.817  18.043  12.593  0.0827  0.0059 -0.0510
27352W        W40766   2.599  11.776  13.769 -0.0089  0.2943  0.0111
27353W        W40767   1.243   5.476   5.190  0.0997 -0.0399 -0.1289
27354W        W40768   7.049   0.475  13.996 -0.3278 -0.2850 -0.1783
27355W        W40769  14.611  17.340   5.217  0.1020  0.0985 -0.1463
27356W        W40770   4.812   4.766  11.467  0.0387 -0.0198  0.0027
27357W        W40771  10.272  16.431   0.249  0.0643 -0.0440 -0.0847
27358W        W40772  15.842   1.713   5.404 -0.0022 -0.0899  0.1908
27359W        W40773  14.304   3.576   0.718 -0.1340  0.0137  0.0209
27360W        W40774   5.776   6.127   4.769 -0.2104 -0.1334  0.1806
27361W        W40775  16.434   7.237  15.409 -0.0980 -0.0226  0.1136
27362W        W40776  17.713  13.503   2.128 -0.3112  0.0360 -0.1727
27363W        W40777   8.040  14.520   6.123  0.3492 -0.1985  0.0585
27364W        W40778  10.007   2.900   5.601  0.1851 -0.0240 -0.1378
27365W        W40779  17.579  10.737   2.100 -0.0509  0.1047 -0.0280
27366W        W40780  16.971   8.199   4.809  0.1579  0.1380 -0.1661
27367W        W40781  17.780   4.689   2.116  0.0444 -0.0567  0.0289
27368W        W40782   2.942  11.173  15.793  0.0549 -0.0656  0.0005
27369W        W40783   1.749   0.760   0.443 -0.0576 -0.1361 -0.1023
27370W        W40784  11.237  13.739   5.104  0.0614 -0.0105  0.0953
27371W        W40785   0.240  14.477   2.516 -0.0473  0.2102  0.0685
27372W        W40786   0.231   2.803  14.306  0.1403 -0.1500 -0.3063
27373W        W40787   6.207  11.838   2.370  0.1402  0.0767  0.3516
27374W        W40788   5.109  16.346   2.575  0.0777 -0.3818 -0.1707
27375W        W40789   2.935   9.450   1.690 -0.1363  0.1781 -0.0759
27376W        W40790  13.280   6.903   3.724 -0.1079 -0.1577 -0.0921
27377W        W40791   7.941   6.204   2.688 -0.1738  0.0086  0.1442
27378W        W40792   5.142  11.754  11.682 -0.1245  0.1305  0.1686
27379W        W40793  10.625   7.469  13.884 -0.1764 -0.1414 -0.1107
27380W        W40794  13.824   4.931   1.479  0.0858  0.0999 -0.0601
27381W        W40795  12.628   5.963   5.449  0.0488 -0.3731 -0.2068
27382W        W40796   5.133   8.948   0.582  0.3042 -0.1231  0.0131
27383W        W40797   5.020   2.285   0.837 -0.0659  0.1048  0.2826
27384W        W40798  15.585   2.126   4.505  0.2018 -0.1891  0.4729
27385W        W40799   4.113   7.197   2.466  0.4342  0.0882  0.2776
27386W        W40800   0.456  13.164   1.608  0.3653 -0.0915  0.0093
27387W        W40801  11.646  13.420  16.392  0.0639  0.0898  0.2416
27388W        W40802  12.463   0.801   1.538 -0.0499 -0.1397  0.0399
27389W        W40803  15.897  17.401   2.643  0.2386  0.0640 -0.1085
27390W        W40804  16.546   4.048   4.940  0.2281  0.1846 -0.1013
27391W        W40805   3.863   2.850  13.296 -0.1921 -0.1428  0.2258
27392W        W40806   6.735  17.115   3.400 -0.0654  0.2192  0.0397
27393W        W40807   0.090   5.875  13.014 -0.0687  0.1957  0.2415
27394W        W40808   7.483   8.606  10.694 -0.1211  0.1468 -0.0425
27395W        W40809   3.442  17.281   0.804 -0.1696  0.1384 -0.2562
27396W        W40810   0.541  14.123   0.917  0.0015  0.0071 -0.0499
27397W        W40811  17.953  16.820  13.032 -0.1344  0.3425  0.1008
27398W        W40812   2.566   5.110  16.387 -0.0433  0.1005 -0.0660
27399W        W40813  16.868   5.113   2.328 -0.1621 -0.1352 -0.2042
27400W        W40814  17.931   0.986   1.014  0.3232 -0.2724  0.1030
27401W        W40815   9.985  16.792   3.648 -0.0753  0.1284 -0.0169
27402W        W40816   7.561   1.291  12.519 -0.0935  0.1898 -0.0696
27403W        W40817  17.207   8.738  13.911 -0.1932 -0.0211 -0.2020
27404W        W40818   9.074   5.196  11.855  0.0175  0.1067  0.0866
27405W        W40819   2.671   7.741   4.095 -0.0825 -0.0358 -0.1790
27406W        W40820   5.445  16.294  12.886  0.1038 -0.0507 -0.0457
27407W        W40821  15.507   2.579  15.381 -0.0447 -0.0438  0.2301
27408W        W40822  17.571  16.954   2.743 -0.0031 -0.1467  0.0961
27409W        W40823   0.981  11.473   5.910  0.0000 -0.0817 -0.3046
27410W        W40824  13.523  15.623   4.010  0.0153  0.0876  0.3385
27411W        W40825  13.556   9.599  16.233  0.3559 -0.0357 -0.1324
27412W        W40826   4.913   5.334  10.687 -0.0242 -0.0213  0.0958
27413W        W40827  10.652  12.069   3.076  0.0082 -0.0223  0.1281
27414W        W40828   1.807   1.454   5.225 -0.1666 -0.0308  0.1098
27415W        W40829   2.514  15.669  10.818 -0.1745  0.1794 -0.2227
27416W        W40830  15.336  13.642  15.386 -0.0173  0.3482  0.1403
27417W        W40831   3.302   3.643   3.240 -0.2444  0.2797 -0.1239
27418W        W40832  15.593   8.232  11.870 -0.1495 -0.0139  0.3601
27419W        W40833  16.436   9.545   6.255 -0.3076  0.1594  0.1180
27420W        W40834   1.719   5.686  15.969 -0.1691 -0.2702 -0.1876
27421W        W40835  12.422   2.710   5.333 -0.0495 -0.3339  0.2967
27422W        W40836  12.490  15.474   0.963  0.0082  0.1943 -0.1857
27423W        W40837   8.440  11.087  12.660  0.0467  0.0418  0.0632
27424W        W40838   7.155   3.898  11.743 -0.1270 -0.1537  0.1007
27425W        W40839  14.028   4.840   5.352 -0.3735  0.0802  0.2962
27426W        W40840  11.553   9.639   1.806  0.2428 -0.0618  0.1334
27427W        W40841   9.882   4.170   2.310 -0.0448 -0.4600 -0.2189
27428W        W40842  11.305   5.858  15.968 -0.0706 -0.2119 -0.2423
27429W        W40843  16.438   0.697   6.097 -0.0736  0.1820  0.3273
27430W        W40844   0.024   8.681  13.328 -0.2541  0.3643  0.1562
27431W        W40845   7.444  10.316  14.263 -0.0991 -0.2109 -0.1566
27432W        W40846  17.090  12.068  14.781  0.0818 -0.0839 -0.0059
27433W        W40847   2.879   9.801   5.658 -0.1201  0.2603  0.1771
27434W        W40848  12.320   4.092   1.536  0.0088 -0.0679  0.0103
27435W        W40849   9.718   3.530   0.070  0.0106  0.0699 -0.0275
27436W        W40850   6.303  12.103   5.195 -0.1983 -0.1646  0.0778
27437W        W40851   1.309   9.362   0.928  0.0421  0.1011 -0.1843
27438W        W40852   9.558   1.875   4.416 -0.0196  0.0487 -0.1051
27439W        W40853  12.253  16.192  10.667 -0.1025  0.2350  0.1243
27440W        W40854   8.201  13.240  13.841 -0.1831 -0.0481 -0.1606
27441W        W40855   8.212   1.608  12.726 -0.4573  0.1989 -0.0761
27442W        W40856   7.588   6.134  15.759  0.0223  0.0135 -0.0461
27443W        W40857   9.022   9.071   2.067  0.1321 -0.2929  0.1569
27444W        W40858  13.797  15.371  10.615  0.1217  0.0243  0.0987
27445W        W40859  15.178   6.580  13.663  0.1577  0.1059 -0.2697
27446W        W40860   5.533  13.557   4.766  0.1104  0.0607 -0.1823
27447W        W40861   4.861  17.800   0.813 -0.0373  0.0007  0.1642
27448W        W40862  10.418  14.738  10.742  0.1772 -0.0235  0.3869
27449W        W40863  14.247   7.141  12.889  0.0422 -0.0138 -0.0638
27450W        W40864  12.041  16.113  15.418  0.1235  0.0933  0.2498
27451W        W40865   2.407   0.990   1.630  0.1084  0.2214  0.1464
27452W        W40866   9.646   7.977  13.899  0.0853  0.0984  0.3010
27453W        W40867   2.246  14.305  11.786  0.1988 -0.0354 -0.1642
27454W        W40868   8.549   7.971  14.201 -0.0304 -0.0825  0.0482
27455W        W40869   1.916  10.363   4.130  0.2726  0.1242  0.2776
27456W        W40870   3.422   4.184   1.916  0.1734  0.1875  0.3035
27457W        W40871  11.958  15.046   3.748  0.1046 -0.1447 -0.1597
27458W        W40872   4.399   9.556   3.759  0.0480  0.0384 -0.0136
27459W        W40873   3.981   1.918  14.764  0.0474 -0.1159 -0.0224
27460W        W40874  13.615  14.235  11.205 -0.0364  0.0940 -0.1052
27461W        W40875   1.645  14.725   6.201  0.0482 -0.0472  0.1468
27462W        W40876   8.710   8.199  13.473  0.1243 -0.1034  0.5187
27463W        W40877   0.467  17.846  11.505 -0.0264 -0.1088  0.2368
27464W        W40878   8.031  14.048   0.552 -0.1891 -0.1472  0.2080
27465W        W40879  16.864  15.254   1.940 -0.1939 -0.2964  0.0657
27466W        W40880  10.183   6.830  12.977 -0.1445 -0.2605 -0.1188
27467W        W40881   8.099   8.747   2.334 -0.0881 -0.0043  0.1874
27468W        W40882   7.336   6.465   0.332 -0.0198  0.1480 -0.2811
27469W        W40883   9.215   1.661   1.790  0.1827 -0.2145  0.0694
27470W        W40884   0.707   5.852   3.457 -0.1257 -0.1321  0.2415
27471W        W40885   2.315  17.252  11.069  0.0648  0.0205  0.1746
27472W        W40886   6.963  13.421  16.648  0.0258 -0.2026  0.1537
27473W        W40887  12.313   2.699  12.449  0.2173 -0.0309  0.1162
27474W        W40888   3.359   2.447  13.874 -0.0372  0.1221  0.1770
27475W        W40889  10.096  12.297   3.616  0.3178  0.1556  0.2202
27476W        W40890  10.869  16.543  13.217  0.0057  0.1987 -0.1693
27477W        W40891  11.031  14.209  11.557  0.0152  0.0998 -0.2317
27478W        W40892   6.534   4.402  14.838 -0.0168  0.0200  0.0933
27479W        W40893   9.028  13.427  13.306 -0.1271 -0.1006  0.0944
27480W        W40894  11.789   0.226  16.571 -0.3669 -0.0280  0.0992
27481W        W40895   6.430   2.855   3.497  0.0558  0.0010 -0.0696
27482W        W40896   0.178  16.842   5.302  0.1510  0.0522 -0.1662
27483W        W40897   4.725   2.532   4.972 -0.0365 -0.0883  0.2824
27484W        W40898  10.444  15.283   2.770  0.0137  0.0638  0.1459
27485W        W40899  17.542   5.587   1.104 -0.0165 -0.0896  0.2081
27486W        W40900  18.020  10.911  15.492  0.0187  0.0729  0.0144
27487W        W40901   8.539  13.237  13.438  0.0043  0.0467 -0.1125
27488W        W40902   2.492  10.771  14.010 -0.0392 -0.1360 -0.1203
27489W        W40903  10.614   2.211   2.500  0.1880 -0.1297 -0.1786
27490W        W40904   0.407   4.496   2.764 -0.2315 -0.1585 -0.0889
27491W        W40905   7.382   0.144   3.893  0.0880 -0.0300 -0.1792
27492W        W40906   1.412   5.739  15.076 -0.0576 -0.2744 -0.0803
27493W        W40907  11.670   3.094   4.616  0.1738 -0.0025  0.1872
27494W        W40908   5.773  11.809   2.030  0.0504 -0.1317  0.0523
27495W        W40909   6.669   7.137  12.672  0.0377  0.1274 -0.2573
27496W        W40910   0.920   9.608   0.709  0.0496  0.0415 -0.1086
27497W        W40911   7.520   2.504   2.365  0.1371  0.1881 -0.0879
27498W        W40912  16.162   9.408  11.294  0.1745 -0.1115 -0.1367
27499W        W40913  15.789  15.461  15.187  0.0123 -0.0499  0.2265
27500W        W40914  10.577  10.244   6.145  0.0238  0.0097 -0.1621
27501W        W40915  11.667   5.718  12.829 -0.3360 -0.0847 -0.1733
27502W        W40916   8.943   2.881   3.956  0.0884  0.0687  0.1257
27503W        W40917  15.848  16.245   2.008 -0.1355  0.0650  0.0082
27504W        W40918   1.470  13.917   2.169  0.0306 -0.0375 -0.3843
27505W        W40919   6.632  13.845   0.561 -0.1658 -0.1627 -0.0877
27506W        W40920  11.381  15.242  14.798  0.1897  0.1491 -0.1203
27507W        W40921  14.191  12.676  11.660  0.1721 -0.1833  0.0160
27508W        W40922   3.404   2.805   3.367 -0.0036 -0.2701 -0.0867
27509W        W40923   8.860   3.177   0.065 -0.2266  0.0961  0.0930
27510W        W40924   5.103  11.753  12.299 -0.0708  0.1293  0.2508
27511W        W40925   6.616  11.808  15.827  0.0288 -0.1232 -0.0580
27512W        W40926   9.586  13.511   2.615  0.0508 -0.2482 -0.2707
27513W        W40927   9.546  15.567  16.024 -0.1328  0.1823  0.3207
27514W        W40928  14.441   2.336   6.170 -0.1052  0.1448  0.3114
27515W        W40929   1.814  16.079   0.306 -0.0004  0.1359 -0.0708
27516W        W40930   7.918   9.461  16.561 -0.2633 -0.2678 -0.0590
27517W        W40931  11.364  15.271   3.006  0.3555  0.3696 -0.0750
27518W        W40932   8.105  15.521  11.190  0.0643  0.3235 -0.0566
27519W        W40933  15.225   8.080   3.687  0.4540  0.3610  0.0438
27520W        W40934   9.181  13.270   5.715  0.1357 -0.1079 -0.3128
27521W        W40935  16.227   4.728   5.371 -0.1625 -0.0729  0.0442
27522W        W40936   9.773  17.759  16.414 -0.0504  0.1935 -0.1617
27523W        W40937  12.454   1.040  12.613  0.0797 -0.2257  0.0118
27524W        W40938   3.961  17.627   5.550 -0.0967  0.0733  0.1477
27525W        W40939   9.286   2.293   1.811 -0.0496  0.2195 -0.0567
27526W        W40940  14.993   1.741  15.006  0.2835  0.1140  0.0838
27527W        W40941  13.977  15.792   3.649  0.1288 -0.3706  0.0000
27528W        W40942   8.483  12.476  16.347  0.0388  0.3696 -0.2402
27529W        W40943  10.209   4.958  15.435 -0.1953  0.0571 -0.2661
27530W        W40944   0.592  16.846  12.324 -0.0077 -0.0543 -0.0501
27531W        W40945   7.071   3.661  15.107  0.1029  0.4783 -0.0321
27532W        W40946  11.846  14.994   1.104  0.0255 -0.0889  0.2830
27533W        W40947  11.242   6.647   0.401 -0.0966 -0.0646  0.0980
27534W        W40948  13.231   0.649   0.063  0.1092  0.0240 -0.2119
27535W        W40949   3.687   4.807  12.562  0.2165 -0.0693 -0.0203
27536W        W40950  17.328  11.772  10.698  0.0728  0.1927 -0.1865
27537W        W40951   5.827  14.568   6.326 -0.0067  0.2173 -0.0527
27538W        W40952   6.000   1.742  13.992 -0.2984  0.0600 -0.1021
27539W        W40953  10.822  14.514  10.938 -0.0539 -0.2992 -0.0650
27540W        W40954   5.017  11.107  15.338  0.0671  0.1073 -0.1470
27541W        W40955  11.496   5.133   1.506 -0.0334  0.3004  0.3403
27542W        W40956   5.312   3.561   3.718  0.2430 -0.1933 -0.2976
27543W        W40957  15.504  11.915   0.385  0.4008  0.0036 -0.0262
27544W        W40958  13.524   0.182   5.238  0.0157 -0.1491  0.2767
27545W        W40959  16.132   1.860   3.158 -0.0037  0.1151 -0.1779
27546W        W40960   0.909  10.794   5.489  0.3580 -0.3093  0.0297
27547W        W40961  11.628  16.186  15.732 -0.2033  0.1088 -0.2287
27548W        W40962   5.285   5.991  11.704 -0.0089 -0.0279  0.2539
27549W        W40963   4.314  15.515  13.356 -0.3476  0.1705 -0.1126
27550W        W40964  15.756  17.205   3.946  0.1553  0.1090  0.0483
27551W        W40965   0.927  15.597   4.713 -0.1938  0.3858  0.0817
27552W        W40966   1.276  15.493   5.109  0.0464 -0.0890  0.0941
27553W        W40967   8.751  16.792   1.840  0.0528 -0.0679 -0.2352
27554W        W40968  10.766   3.053  14.067 -0.1637  0.0968 -0.1959
27555W        W40969   7.956   8.363  11.337 -0.0961 -0.0350 -0.2325
27556W        W40970   4.148   5.650   5.474  0.0674  0.0311  0.1555
27557W        W40971   6.149   1.127  13.358  0.2716 -0.4163  0.1672
27558W        W40972   0.520   7.015   3.939  0.0478 -0.0023 -0.1059
27559W        W40973  12.681   4.974   6.836 -0.1251 -0.1797 -0.2428
27560W        W40974  14.432   5.315  15.478 -0.0694 -0.0346 -0.0442
27561W        W40975   7.450  12.194   4.097 -0.3021 -0.1425 -0.0462
27562W        W40976   1.056   9.188   1.326 -0.0126 -0.2875  0.1536
27563W        W40977  14.626   9.590  15.795 -0.0311  0.0830  0.1282
27564W        W40978   6.023  12.046  11.710 -0.2354 -0.3738 -0.0734
27565W        W40979   1.891  10.192   1.063  0.0197 -0.3876  0.1648
27566W        W40980   2.563  15.113  11.596  0.0691 -0.4744  0.0478
27567W        W40981   7.471   0.244  12.614 -0.0759 -0.0992 -0.0687
27568W        W40982   6.136   8.643   0.484  0.0455 -0.4011 -0.0970
27569W        W40983   1.825   6.500   5.848  0.0326 -0.3128  0.3933
27570W        W40984  13.367   4.543   3.491  0.3511 -0.0362  0.0744
27571W        W40985   7.260  14.454   0.124 -0.0589  0.0624  0.1225
27572W        W40986   9.857   6.981  10.321 -0.1834 -0.2184  0.0527
27573W        W40987  16.127   0.855   6.477  0.0883 -0.0416  0.3733
27574W        W40988  13.168  13.606   0.293  0.1021 -0.1620  0.2786
27575W        W40989  11.974   2.740  15.406  0.1298 -0.1388  0.0847
27576W        W40990  16.711   5.339  16.678  0.0071 -0.0999 -0.1904
27577W        W40991   8.743  15.096   4.305 -0.1713  0.0341  0.2918
27578W        W40992   3.402  17.531  15.318  0.2316 -0.2542 -0.1797
27579W        W40993  11.933   2.770  16.684 -0.0970 -0.0575  0.0157
27580W        W40994  17.434   0.435  12.800  0.1674  0.1055  0.0553
27581W        W40995   2.391   5.539   1.460 -0.2373 -0.0501  0.0359
27582W        W40996  17.016  15.179  12.529 -0.0936 -0.2441  0.1460
27583W        W40997   0.052   7.686   5.482  0.0639 -0.0032  0.0927
27584W        W40998   2.100   8.202   1.127 -0.1120  0.1776  0.1571
27585W        W40999  14.360  18.005  12.652 -0.0242 -0.2942 -0.1556
27586W        W41000   2.035   4.408  16.430  0.0261  0.1990 -0.2723
27587W        W41001   9.398   5.793   2.977 -0.0007  0.0176 -0.2798
27588W        W41002   3.375  11.667  10.188  0.0299  0.0978 -0.1518
27589W        W41003   9.628   9.714   4.927  0.0326  0.1425  0.0975
27590W        W41004   6.867  15.391   2.934 -0.1318 -0.0343  0.1198
27591W        W41005   0.509  17.683  12.528 -0.2327 -0.2349 -0.2640
27592W        W41006  13.128   2.915   5.017  0.3181 -0.3267 -0.0578
27593W        W41007  10.378   2.680   0.402 -0.0270 -0.0965  0.2665
27594W        W41008   2.650  17.816   6.108 -0.0785 -0.0417 -0.0515
27595W        W41009  18.017  14.220  10.159 -0.0038  0.0431 -0.0663
27596W        W41010   8.838   2.572   1.904  0.0387  0.0388 -0.1751
27597W        W41011  13.871   0.880   4.961  0.0936 -0.1413  0.2363
27598W        W41012  11.039  17.889   2.381  0.2296  0.0514  0.0085
27599W        W41013   1.058  17.316   6.232 -0.1811 -0.0613  0.0257
27600W        W41014   1.752  18.026  12.535  0.0654  0.2294  0.2988
27601W        W41015  10.493   9.112  16.496 -0.0394  0.1293  0.0452
27602W        W41016   9.264  14.914  13.725 -0.1874 -0.1124 -0.0468
27603W        W41017  12.023   8.910   4.738  0.1011 -0.1588  0.1563
27604W        W41018   6.979   7.075   0.048 -0.1090 -0.0113  0.0825
27605W        W41019  13.871  17.178   4.017 -0.1613 -0.0014  0.2467
27606W        W41020   9.194  15.588  11.537 -0.1264 -0.2047 -0.0294
27607W        W41021   9.963   1.677  10.935  0.1259  0.0232  0.0190
27608W        W41022   8.816  14.121   2.806 -0.1565 -0.2797 -0.1681
27609W        W41023   6.745   5.167   1.040  0.1502  0.3135  0.3165
27610W        W41024   1.986  13.972   2.947  0.0591 -0.3903  0.1928
27611W        W41025   5.210   6.571   5.464  0.0155 -0.0446  0.0630
27612W        W41026  11.374   3.730  15.205  0.1213 -0.2480 -0.0541
27613W        W41027   2.254   3.701   3.159  0.1317  0.0324 -0.0993
27614W        W41028  17.112  10.042  15.077  0.1330 -0.1153  0.0252
27615W        W41029  18.030  12.496  12.815 -0.2101 -0.0917 -0.3218
27616W        W41030  10.426  14.480  12.198  0.1464 -0.0254 -0.0867
27617W        W41031   2.932   7.845   1.317  0.0577 -0.2896  0.1846
27618W        W41032  16.538  16.244  11.752 -0.0240  0.0895  0.0540
27619W        W41033   0.735   4.555   6.029 -0.0699  0.0507  0.0083
27620W        W41034  12.918   0.622   1.527  0.2491 -0.1891  0.1238
27621W        W41035   4.756   7.349   0.411  0.0355  0.1797  0.2601
27622W        W41036   4.542   4.817   5.202 -0.0434 -0.0233  0.0443
27623W        W41037   5.721   4.524  13.721 -0.0067  0.1981  0.1645
27624W        W41038   6.477   9.878   2.443  0.2922  0.0782  0.1744
27625W        W41039  12.785   0.803  15.460  0.0787  0.1812  0.1486
27626W        W41040  12.993   3.678   1.593 -0.1758  0.1201  0.0943
27627W        W41041  15.896   3.228   1.581  0.0546 -0.3076 -0.0860
27628W        W41042  16.016  16.710  15.170 -0.1625  0.2468 -0.0368
27629W        W41043  14.158  11.945  11.159  0.1772 -0.1707 -0.1799
27630W        W41044  16.148  16.903  13.513  0.3675  0.1603 -0.0195
27631W        W41045   5.387  15.226   3.607 -0.0376 -0.2066  0.1139
27632W        W41046  14.549   4.163   1.085  0.0288  0.0281 -0.0803
27633W        W41047   9.534  11.226   4.527 -0.2056 -0.3313  0.2178
27634W        W41048  16.379  14.045  12.985 -0.1531  0.3389 -0.0264
27635W        W41049   5.064   7.382  15.628 -0.1227  0.2556 -0.3550
27636W        W41050   4.275   4.869  11.776 -0.0515 -0.0683 -0.0888
27637W        W41051  12.033  17.365   0.579 -0.4337 -0.0945  0.0875
27638W        W41052   9.307   2.030   4.839  0.1237 -0.1606 -0.0838
27639W        W41053   7.008   1.158  11.982  0.1847 -0.0851  0.2064
27640W        W41054  11.019  11.301   1.046  0.1980 -0.1863  0.0097
27641W        W41055   3.249  15.375   6.002 -0.0030  0.2739  0.4942
27642W        W41056   9.327  16.390   4.086  0.0913 -0.3017  0.0199
27643W        W41057  17.059   0.603   0.738  0.2727  0.2658 -0.0067
27644W        W41058   8.889  13.320  16.179 -0.2580  0.1547  0.3731
27645W        W41059  12.807  16.644  10.404  0.0690  0.0665  0.0157
27646W        W41060  15.668   7.925  15.600 -0.0601 -0.0458 -0.2404
27647W        W41061   1.710   7.304   0.637 -0.1667  0.0862  0.0637
27648W        W41062   4.638   9.060   1.918  0.0281 -0.2220  0.3427
27649W        W41063  14.408   3.473  13.878  0.0816  0.0308  0.1528
27650W        W41064  13.797  17.531   2.595 -0.0978  0.2453 -0.1821
27651W        W41065  10.311   8.097   1.366  0.1129  0.0600 -0.0229
27652W        W41066   6.732  14.238   1.827 -0.1474 -0.1532  0.2019
27653W        W41067   1.543   9.562  12.257  0.0260 -0.0182 -0.1814
27654W        W41068   3.418  17.125  14.077 -0.1146  0.0077  0.2264
27655W        W41069   8.293   2.321  11.020 -0.4783 -0.1989  0.1179
27656W        W41070   5.607  12.185   1.215 -0.1066  0.0296 -0.3224
27657W        W41071   9.409  17.666   0.511 -0.0534  0.4501 -0.0703
27658W        W41072  17.964   4.092   4.083  0.0054 -0.0449  0.2280
27659W        W41073   9.465  17.690  13.287  0.2014  0.0625 -0.0704
27660W        W41074   8.535   6.191   3.941  0.1982 -0.0734  0.1061
27661W        W41075   7.072  14.378  13.998 -0.2915 -0.2676 -0.0758
27662W        W41076   3.438   8.695  10.188  0.0186 -0.3504  0.1126
27663W        W41077   9.785  17.241  15.547 -0.1997 -0.2572 -0.1423
27664W        W41078   6.617   0.768   1.755  0.0366  0.2854 -0.1376
27665W        W41079   2.808   5.155  15.945  0.0731 -0.0779  0.0190
27666W        W41080   5.091  14.124  13.412 -0.1157 -0.1458 -0.2056
27667W        W41081  12.116  16.269   4.264 -0.0187  0.0618 -0.1135
27668W        W41082   6.139   3.139   3.191  0.1351  0.0084 -0.1667
27669W        W41083  12.338   3.569  16.308 -0.0028 -0.0624 -0.0878
27670W        W41084   7.687  15.985  15.399  0.1883  0.1622 -0.0604
27671W        W41085  10.446  13.661   1.392 -0.3242  0.1062  0.0062
27672W        W41086  13.576   3.597  12.275 -0.1308 -0.2441 -0.3818
27673W        W41087  11.591   6.189  16.351 -0.0722  0.1047 -0.1003
27674W        W41088  10.268   5.607   3.861 -0.2448 -0.1021  0.3911
27675W        W41089   4.888   6.647   2.865 -0.1016  0.2775 -0.0668
27676W        W41090   6.010  17.439   4.449  0.1487  0.3039 -0.2669
27677W        W41091   8.411  10.048  14.141  0.2525 -0.0157 -0.0640
27678W        W41092   1.766  11.694  14.569 -0.1088  0.0133  0.2869
27679W        W41093   7.731  14.187   4.302  0.0696  0.3437 -0.0949
27680W        W41094   6.109   5.089   5.683  0.1300 -0.0065  0.0721
27681W        W41095   4.137   9.487  13.224 -0.0489  0.1870  0.2837
27682W        W41096   1.531  15.175   4.692  0.0802 -0.2028 -0.0842
27683W        W41097  16.461   5.926   6.289  0.1838  0.2098 -0.0780
27684W        W41098  10.813   3.281   3.410 -0.2103  0.2072  0.0542
27685W        W41099  15.450  10.023   5.178 -0.0919 -0.0817 -0.2512
27686W        W41100   3.967  11.615  11.877  0.3138 -0.0675  0.1220
27687W        W41101  12.512  12.658  15.030 -0.2630  0.0375  0.0714
27688W        W41102   6.516  13.188   2.164 -0.0643 -0.3775  0.0282
27689W        W41103  14.696  17.271  13.973 -0.3478  0.0374  0.3333
27690W        W41104   4.174   8.706   2.303  0.3221 -0.0883  0.1431
27691W        W41105   2.670   4.323   4.133  0.0567 -0.0129 -0.0549
27692W        W41106   3.109   2.233  14.954 -0.1719  0.1238  0.0207
27693W        W41107   8.026   0.388  12.556 -0.2472 -0.0147 -0.0525
27694W        W41108  17.484  13.069   4.278 -0.1205  0.1272 -0.0152
27695W        W41109   3.730  12.299  16.510 -0.1572 -0.0395 -0.1198
27696W        W41110  11.019  16.617  15.095  0.0370 -0.2882 -0.1948
27697W        W41111   5.372   4.557   4.029 -0.1131  0.0230 -0.3053
27698W        W41112  18.044   9.606  12.507  0.1483 -0.1812  0.0129
27699W        W41113  10.691  14.076   1.229 -0.1050 -0.0747  0.1945
27700W        W41114  17.731   8.133  11.975  0.2160  0.0791 -0.1274
27701W        W41115   3.375   8.838  11.215  0.1030  0.0411 -0.0049
27702W        W41116   6.424  11.852   0.819 -0.0877 -0.0503  0.2148
27703W        W41117   5.531  10.499  12.697 -0.0442  0.0692  0.0853
27704W        W41118   3.391   9.368   4.590  0.1282  0.0403  0.2924
27705W        W41119  13.901   1.758   5.841  0.1403 -0.1832 -0.5414
27706W        W41120   3.360   9.480  13.171  0.0333 -0.2370 -0.1945
27707W        W41121  10.494   1.451  10.509  0.0321  0.1153 -0.0800
27708W        W41122  11.018   6.814   4.191  0.1072 -0.0311 -0.0235
27709W        W41123   2.025   6.607   3.529 -0.1426  0.3620 -0.2921
27710W        W41124  16.684   9.566  11.581 -0.0297  0.0295 -0.0021
27711W        W41125  11.962  17.215   3.718 -0.0272 -0.1201  0.0855
27712W        W41126  16.470  14.025  10.868  0.2087 -0.0970 -0.0910
27713W        W41127  15.526  14.501  10.785  0.0961 -0.0591 -0.1159
27714W        W41128  12.475   5.892   6.674  0.0812 -0.3197 -0.0120
27715W        W41129  13.934   1.470   1.928  0.1494  0.1719 -0.0320
27716W        W41130   0.647  13.645  11.195 -0.0668 -0.0693  0.1176
27717W        W41131   6.259  16.273  12.949 -0.2300  0.0893  0.1063
27718W        W41132   4.583   4.342   2.222  0.0027  0.0881 -0.2682
27719W        W41133   4.388   1.931   1.570 -0.0392 -0.0513  0.1133
27720W        W41134   8.011   6.372  12.678 -0.1736  0.0128  0.3057
27721W        W41135   9.491   9.906   1.073  0.1423  0.1724 -0.3634
27722W        W41136   4.868  15.043   2.225  0.2384 -0.3262 -0.0972
27723W        W41137  10.719  16.094   3.943  0.0705  0.0949  0.2789
27724W        W41138  14.156   2.236  13.682 -0.1945 -0.1060 -0.6645
27725W        W41139  15.833   6.396   3.703  0.1497  0.2156  0.2800
27726W        W41140   9.517  14.276   3.072 -0.0202 -0.1109 -0.0151
27727W        W41141   1.494   5.706  11.325  0.0262 -0.2483  0.1456
27728W        W41142  12.555   0.511   0.801  0.1716  0.2765 -0.1917
27729W        W41143  14.116   6.294   3.992  0.2412 -0.1987  0.1273
27730W        W41144  11.683  15.547   2.060  0.0964  0.1914 -0.0348
27731W        W41145  11.584  14.141   2.289 -0.1906  0.2425 -0.0957
27732W        W41146   1.102  14.870   3.106  0.1131 -0.1905  0.1476
27733W        W41147   5.096  15.835   0.610 -0.0163  0.1290 -0.0571
27734W        W41148   2.918  13.820  12.789  0.2233  0.1857  0.0605
27735W        W41149  10.930  12.131  11.423  0.3193 -0.0511  0.2024
27736W        W41150  11.120  14.770   2.993  0.1369 -0.1473 -0.5204
27737W        W41151   2.085   9.749   2.022  0.0383 -0.2176  0.3336
27738W        W41152   4.153  17.505  12.499 -0.0495  0.2239 -0.1622
27739W        W41153  13.640   1.683  16.120 -0.1892  0.1348 -0.1804
27740W        W41154  16.983   0.808  15.944  0.1164  0.1212 -0.0055
27741W        W41155  16.364  13.209   0.782  0.1645  0.2244 -0.0833
27742W        W41156  17.079  11.043   5.160  0.3610  0.2293  0.0011
27743W        W41157  14.640  11.202  12.003  0.1452  0.0700  0.2408
27744W        W41158  14.925   9.300   3.089 -0.0521  0.0681 -0.0076
27745W        W41159  12.297   6.926  13.961  0.1813 -0.3436 -0.2630
27746W        W41160  11.142   1.269  12.124  0.0880  0.2384  0.1374
27747W        W41161   8.177  13.837  10.683 -0.1581 -0.2949 -0.0263
27748W        W41162  13.571  10.949   5.684 -0.0742 -0.0065 -0.0250
27749W        W41163   3.329  11.606   3.029  0.1106 -0.0613 -0.1285
27750W        W41164   4.266   4.075  13.886  0.0187  0.1078 -0.2051
27751W        W41165  14.058   7.108  11.966 -0.0873  0.2095  0.1071
27752W        W41166  11.826  10.570   4.345  0.0432  0.2409  0.1249
27753W        W41167   8.641   1.880   5.369 -0.1439  0.0766  0.0658
27754W        W41168   4.163   0.407  12.272  0.0570  0.0546 -0.0117
27755W        W41169  17.301   4.848  14.644  0.4060 -0.1827  0.1075
27756W        W41170   7.433   3.505   0.972 -0.1492 -0.1356 -0.0655
27757W        W41171  15.924   5.398   2.527 -0.0961 -0.3925 -0.1475
27758W        W41172   5.798  14.194   0.427 -0.2789 -0.0418  0.4200
27759W        W41173   6.330   1.104   5.218  0.1002 -0.0320 -0.0568
27760W        W41174   6.920   2.711  13.609 -0.2748  0.0740 -0.1309
27761W        W41175  13.314   0.325  10.755  0.0374 -0.1216  0.2070
27762W        W41176   8.079  17.732  16.264  0.0948  0.0889 -0.0009
27763W        W41177   6.228  15.373   5.509  0.1226  0.4528  0.1053
27764W        W41178  12.540   6.208  11.605  0.0222 -0.3810 -0.1772
27765W        W41179   8.992   5.300  11.218 -0.0389  0.0766  0.2344
27766W        W41180   9.866  16.910  11.676 -0.1384 -0.1516  0.0655
27767W        W41181   3.111   8.734   2.430 -0.0665 -0.4848  0.2122
27768W        W41182  12.194  13.849   4.180 -0.0245 -0.4505  0.0557
27769W        W41183  11.547   7.636  10.373  0.1853 -0.2474  0.3007
27770W        W41184   7.725  15.161  12.619  0.1394  0.1840  0.2135
27771W        W41185  12.332   4.269   0.554 -0.0579 -0.0192 -0.0307
27772W        W41186   1.359  15.530  13.041 -0.1695  0.0711  0.1056
27773W        W41187   7.641  11.678  13.837  0.0613  0.1227  0.0419
27774W        W41188  14.472   1.720  12.465 -0.2761  0.0116  0.1362
27775W        W41189  17.920  11.129   2.132 -0.1436 -0.0163  0.1263
27776W        W41190   3.697   1.659  12.782  0.0810 -0.0231  0.0836
27777W        W41191   3.348  16.742   4.810 -0.3585  0.0629  0.1309
27778W        W41192  14.074   9.869   0.904 -0.1575 -0.0418  0.1364
27779W        W41193   9.146   1.479   2.272  0.3231  0.2604 -0.0765
27780W        W41194   2.061   4.025  12.416  0.1721  0.1223  0.0076
27781W        W41195  17.365  16.209  14.611  0.0083 -0.1183  0.0568
27782W        W41196  16.173   1.718  15.865  0.2615 -0.2054 -0.0935
27783W        W41197   6.937   2.065  11.606  0.0068 -0.1931  0.4575
27784W        W41198  11.773   9.261   2.127  0.2284  0.1547  0.1300
27785W        W41199  17.896   6.062  16.611 -0.0746  0.0522 -0.2103
27786W        W41200   8.453  12.336  13.877  0.0154 -0.1140  0.0406
27787W        W41201  14.096   7.721   3.751 -0.0780 -0.1932 -0.0131
27788W        W41202  17.072  11.194  12.375 -0.1734  0.2334  0.2504
27789W        W41203   0.212  16.639   3.333 -0.0117 -0.0774  0.0667
27790W        W41204   6.294   4.782   5.190  0.1442 -0.0111 -0.0540
27791W        W41205  15.088  10.310  11.063 -0.0563  0.1550 -0.0397
27792W        W41206   3.870  16.417  10.297 -0.1236  0.1451 -0.2633
27793W        W41207  17.742   4.194   5.525 -0.1809  0.0123 -0.0335
27794W        W41208   0.810   4.593   3.782 -0.0505  0.1010  0.0286
27795W        W41209  13.260   7.081   5.664  0.0459 -0.0950 -0.0126
27796W        W41210  14.835  15.531  12.433 -0.1801  0.3621 -0.2199
27797W        W41211  10.963   0.467   1.102  0.3081 -0.1808  0.3208
27798W        W41212  16.732   7.773   3.974  0.2469 -0.1360 -0.2658
27799W        W41213  11.458  14.451   1.276  0.0452  0.2183 -0.2278
27800W        W41214   8.157  11.030   0.316  0.2059 -0.1629 -0.0147
27801W        W41215   8.724  14.990  11.561  0.3562 -0.1734  0.0667
27802W        W41216  13.747   6.194   0.034 -0.4609  0.1232  0.1487
27803W        W41217  10.186  15.388   5.563  0.0501  0.1730 -0.3290
27804W        W41218   6.129   6.534   2.499  0.0848 -0.0395  0.1123
27805W        W41219  15.086   6.236   0.839 -0.0082 -0.0496  0.0900
27806W        W41220  16.965  14.679   5.779 -0.0410  0.1557 -0.0305
27807W        W41221  12.990   0.398   6.521  0.1222 -0.0882  0.2142
27808W        W41222  12.859   5.198  13.537 -0.1894 -0.0072  0.3433
27809W        W41223  16.201  10.642  16.138 -0.0222 -0.1492 -0.3045
27810W        W41224   6.590   7.368   0.187  0.0184  0.1122  0.1474
27811W        W41225  14.526  14.711   3.778 -0.3121 -0.1237  0.3101
27812W        W41226  17.537   2.052   2.733 -0.1250 -0.1332 -0.0541
27813W        W41227   6.905   3.275   1.726  0.0582 -0.1644  0.0464
27814W        W41228  16.348   8.615   4.362 -0.2708 -0.3318 -0.1366
27815W        W41229   0.145  16.392  14.218 -0.1453  0.1834  0.2674
27816W        W41230  11.727  17.120  10.358  0.0746  0.2713  0.2445
27817W        W41231  14.752  11.871   4.131  0.2839  0.1438 -0.1110
27818W        W41232   0.365  11.360  13.289  0.0554 -0.0815  0.0876
27819W        W41233  11.270  11.676   5.229 -0.0705  0.0158  0.0377
27820W        W41234   2.268  15.219  15.287  0.0304 -0.2226 -0.1286
27821W        W41235  14.419  16.204  15.640  0.1727 -0.2277 -0.0085
27822W        W41236   7.205   8.659  16.008  0.3035 -0.1079  0.0265
27823W        W41237   1.332   1.165  16.380  0.2042  0.0423 -0.1202
27824W        W41238  10.275   6.906   0.146 -0.0029  0.0806  0.0886
27825W        W41239   5.295   2.613  11.660  0.1172  0.2128  0.0434
27826W        W41240  10.080  17.423  11.848  0.1749 -0.1546  0.3004
27827W        W41241   5.965  16.617  11.980 -0.2359 -0.0605  0.1359
27828W        W41242  11.547  10.857  16.253 -0.0406  0.1051  0.0342
27829W        W41243  14.406   4.523   4.684 -0.1247 -0.3090 -0.0342
27830W        W41244  12.931  13.597  14.298 -0.1224  0.0696  0.3211
27831W        W41245   4.531   4.966  10.719 -0.1581 -0.3396 -0.4514
27832W        W41246   0.719   1.368   6.190  0.0111 -0.0225 -0.1944
27833W        W41247  10.491  16.962   2.658  0.0053  0.2041 -0.0231
27834W        W41248   9.718   8.362   4.301  0.0257 -0.0054 -0.0102
27835W        W41249  16.950   2.659   6.129  0.0037 -0.5156  0.2143
27836W        W41250   9.375   0.753   1.541  0.1622 -0.0417  0.0245
27837W        W41251   7.184  11.400  13.197  0.0728  0.0174  0.1130
27838W        W41252   7.657  16.248   3.304  0.3941 -0.0094  0.0774
27839W        W41253   3.891   7.386  12.882 -0.0654 -0.3454 -0.0095
27840W        W41254  11.777   8.348  15.781 -0.1117  0.0534  0.1063
27841W        W41255  12.187  15.250   0.670 -0.1392 -0.0748 -0.0320
27842W        W41256  16.279   6.112   2.796 -0.0786  0.1888 -0.1240
27843W        W41257   4.635  10.000   5.712  0.0619 -0.3178 -0.0991
27844W        W41258  16.639  12.456   3.134 -0.2227 -0.2911 -0.1098
27845W        W41259  10.813   1.389   1.149  0.2441  0.4021 -0.0847
27846W        W41260  12.277   7.226  15.207 -0.0770 -0.2135 -0.2088
27847W        W41261   9.356   4.226   9.946  0.2060 -0.0468 -0.0529
27848W        W41262  11.541  10.223   4.547  0.0451  0.0229  0.2872
27849W        W41263   1.259  17.668  13.751  0.0464 -0.0456 -0.0471
27850W        W41264  16.189   2.796  14.123 -0.1501 -0.1263 -0.0223
27851W        W41265   5.122  13.305   3.318  0.0260  0.0357 -0.1777
27852W        W41266  17.276   4.964   5.387  0.0559  0.2202  0.2258
27853W        W41267   7.004  17.613  14.509 -0.1518 -0.0164  0.0586
27854W        W41268  17.769  11.789   4.054  0.0358 -0.0592 -0.2174
27855W        W41269   3.705  10.287  12.922  0.1024  0.3271 -0.0552
27856W        W41270  15.460  14.063   1.606 -0.1003 -0.2481 -0.1784
27857W        W41271   6.456   9.491  15.833  0.0501 -0.0509  0.1893
27858W        W41272   4.501   8.411  14.559  0.0949 -0.1545 -0.0540
27859W        W41273   7.878   2.590   2.802 -0.0617  0.0501 -0.0693
27860W        W41274   4.594  10.707   5.249  0.0195  0.2248  0.1082
27861W        W41275  15.374   2.102  11.417 -0.1657 -0.0115  0.1180
27862W        W41276   4.033  17.253   0.340 -0.0263 -0.1288  0.1250
27863W        W41277   2.935  13.789  12.253 -0.0516 -0.0271 -0.0938
27864W        W41278  15.916   0.366   2.734 -0.0470  0.0080  0.1437
27865W        W41279  12.006   3.997  14.804  0.2119  0.2655  0.0249
27866W        W41280   4.755   6.437  13.926  0.0573 -0.1496  0.1565
27867W        W41281   4.738   3.987  12.952 -0.2323 -0.3773 -0.1349
27868W        W41282  17.559   6.362   1.334  0.0586 -0.1886 -0.0140
27869W        W41283  14.472   8.241  11.035 -0.1367 -0.1439  0.0334
27870W        W41284  13.851   5.440  12.648 -0.0219 -0.2661  0.3695
27871W        W41285   7.966  11.425   0.007 -0.2268 -0.0796  0.0444
27872W        W41286   4.567  10.671   4.764  0.3333 -0.2234 -0.1880
27873W        W41287   7.772  10.280   0.039 -0.0462  0.1367  0.0066
27874W        W41288   5.063   5.836   5.627  0.2963  0.0037  0.1453
27875W        W41289  11.810   4.857   6.650  0.1605 -0.1362  0.0869
27876W        W41290   9.359   2.825  11.886  0.2499  0.1966 -0.1116
27877W        W41291  16.229  14.373  11.143 -0.4861 -0.2095  0.2358
27878W        W41292  11.228   1.152   4.618 -0.2590  0.1813 -0.1412
27879W        W41293   1.958   5.196  13.763  0.0183 -0.0902  0.1364
27880W        W41294  11.081  11.499  14.165  0.1256 -0.0222 -0.2401
27881W        W41295   8.506   9.988   5.661 -0.0174 -0.0682  0.2118
27882W        W41296   3.653  12.844   6.128  0.1501 -0.0164  0.2663
27883W        W41297   7.092  11.252  11.183  0.2757 -0.0578 -0.0101
27884W        W41298  12.433  10.942  11.827  0.0515 -0.1179 -0.3291
27885W        W41299   6.478   9.897  10.095  0.1501  0.1556  0.1334
27886W        W41300   8.639   4.953  14.493  0.3659  0.0007  0.1236
27887W        W41301   8.872  14.354  12.106 -0.0278  0.0254 -0.1550
27888W        W41302  11.522   0.244  15.389 -0.2002  0.1171 -0.2295
27889W        W41303   9.478  13.498  11.130 -0.2210 -0.0309 -0.0500
27890W        W41304  16.730   5.185   1.458 -0.3784 -0.1721 -0.1695
27891W        W41305  14.996  15.915   4.159  0.0114  0.1646  0.0931
27892W        W41306  12.330   7.864  12.421 -0.2171  0.4850  0.2995
27893W        W41307  14.097   8.704   0.331  0.2873  0.0379 -0.0085
27894W        W41308   6.938   7.951   1.210 -0.0995  0.2502  0.1361
27895W        W41309   3.772   1.482  12.101  0.0778 -0.0128 -0.1690
27896W        W41310   3.500   4.825   0.707 -0.2554 -0.0315 -0.2430
27897W        W41311  16.500  12.801  15.643  0.0094  0.2734 -0.0019
27898W        W41312   4.144   8.032   5.005  0.1155  0.0391 -0.0381
27899W        W41313   1.533   4.878  12.516 -0.0797  0.4234 -0.0903
27900W        W41314   6.229   8.357   3.422 -0.1465  0.0529  0.2888
27901W        W41315  15.599  10.463   3.719 -0.0697 -0.0933  0.2610
27902W        W41316   7.182   9.716   0.871 -0.1217  0.1783 -0.1215
27903W        W41317   4.441   0.356   3.354  0.0655 -0.2372 -0.2742
27904W        W41318   2.993   6.274   0.754  0.1721 -0.0207  0.3062
27905W        W41319   1.294  12.143  16.575 -0.2313  0.0316 -0.2552
27906W        W41320   4.330  10.444  13.595  0.0169 -0.1079 -0.0286
27907W        W41321   1.185  11.455  16.174  0.0351  0.0878 -0.1703
27908W        W41322   4.841  17.883   5.550 -0.3015 -0.0867 -0.1534
27909W        W41323  14.362  13.886   3.802  0.4791  0.0263  0.2061
27910W        W41324  15.362   8.066   5.118  0.2645  0.1957 -0.0414
27911W        W41325  16.708  15.213   0.808 -0.1621 -0.2318 -0.2250
27912W        W41326   5.769  11.851   3.375  0.0130  0.1934  0.4094
27913W        W41327   6.445  15.077   1.058  0.0295  0.0499 -0.0213
27914W        W41328   4.191   8.737   0.106 -0.0881 -0.1667 -0.1299
27915W        W41329   6.231  10.320  11.294  0.1194 -0.3086  0.0161
27916W        W41330   3.284   1.602   2.668 -0.1410 -0.0373  0.1334
27917W        W41331   3.229   7.666  13.560 -0.2806  0.1086  0.1182
27918W        W41332  17.073   6.860  12.912 -0.2164  0.2124 -0.0216
27919W        W41333   4.221   9.012  12.014  0.1803  0.1226  0.1495
27920W        W41334  14.123   3.868  13.087  0.1456  0.0176 -0.1552
27921W        W41335  11.649   1.257   3.533  0.0809 -0.1276  0.2126
27922W        W41336   0.271   7.899  13.034  0.0073  0.0412  0.0793
27923W        W41337   7.515  17.738   2.290  0.1500  0.3160 -0.0100
27924W        W41338   6.070   8.263   5.000 -0.2496  0.1856  0.4612
27925W        W41339  15.301  11.569  12.351 -0.2875  0.1027 -0.1984
27926W        W41340  10.326   8.014  12.698  0.1770  0.0512  0.2201
27927W        W41341  16.010   1.549  14.204 -0.2788  0.1019 -0.0061
27928W        W41342   2.349   2.909   4.243  0.1218 -0.0056  0.1395
27929W        W41343  15.048   6.861   5.385 -0.2548 -0.2945 -0.0205
27930W        W41344  12.762   4.943   2.182 -0.0191  0.1234 -0.0915
27931W        W41345   0.193  16.633   1.172  0.0220  0.2327  0.1638
27932W        W41346  16.652   5.702   3.741  0.1364  0.0868  0.5312
27933W        W41347   4.222   5.650  10.126 -0.1801 -0.0192  0.1133
27934W        W41348   5.301  14.662  15.100  0.1697  0.1559  0.0677
27935W        W41349   8.920   1.081  13.747  0.0219 -0.1691 -0.0522
27936W        W41350  17.759   2.145  14.601 -0.1735  0.1775 -0.1762
27937W        W41351   2.661   7.570   1.594  0.0662  0.1295  0.0503
27938W        W41352   9.139  12.697   1.678 -0.0165  0.1080 -0.2131
27939W        W41353   3.854  14.831   5.490 -0.0024  0.3143  0.0350
27940W        W41354   1.841  13.990  14.747  0.2320 -0.1447 -0.2160
27941W        W41355  14.440  16.240   1.823  0.1251 -0.0310 -0.0989
27942W        W41356  10.130  10.002  10.501  0.0374 -0.2453 -0.0204
27943W        W41357  12.198   2.812   4.023 -0.0553  0.0702 -0.0808
27944W        W41358   0.040   0.363  13.553  0.2200  0.4831 -0.3130
27945W        W41359  16.970   1.736   4.052  0.2002  0.2476 -0.2089
27946W        W41360  13.099  16.881  11.316  0.0532  0.1163  0.1160
27947W        W41361   7.744  14.203   0.142  0.0028 -0.2824  0.1466
27948W        W41362   9.575  12.031   5.106 -0.2028  0.3605 -0.1076
27949W        W41363   9.325   4.878  13.258 -0.0806 -0.3684 -0.0313
27950W        W41364   5.510   2.767  13.088  0.1192  0.0944  0.0268
27951W        W41365  12.164  17.156  10.537  0.1281  0.2694 -0.0730
27952W        W41366  12.754  16.520  16.479 -0.2508 -0.5081 -0.2173
27953W        W41367   9.070   6.655  16.559 -0.1545  0.1859 -0.2295
27954W        W41368   9.752   6.737  12.506 -0.1176 -0.0148 -0.0568
27955W        W41369   0.990   1.192   3.315  0.0214 -0.0722  0.1950
27956W        W41370  15.091  14.824  15.507  0.0799  0.0548  0.1623
27957W        W41371  17.382   3.846   0.372 -0.1875 -0.2025  0.1303
27958W        W41372  16.205  12.045  14.484  0.0956  0.2714 -0.3407
27959W        W41373  10.397   5.690   2.841 -0.3207  0.0438  0.1197
27960W        W41374  16.067   2.414   5.282  0.1033  0.0319  0.1569
27961W        W41375   1.673  14.314  13.573 -0.0127  0.0437 -0.1564
27962W        W41376   5.946   4.179   2.834  0.4927 -0.0974 -0.0120
27963W        W41377   3.369  10.352  13.726 -0.2097  0.1974 -0.1073
27964W        W41378  11.347  15.686   2.718  0.4445 -0.5192 -0.0299
27965W        W41379  17.091   1.277  15.882 -0.1717  0.0107  0.2057
27966W        W41380   3.145   0.345  12.631 -0.0198 -0.1751 -0.1834
27967W        W41381   3.001  12.915   4.764 -0.1036  0.0065 -0.0402
27968W        W41382   7.443   6.178   6.071 -0.0044 -0.1456  0.0052
27969W        W41383   0.100   9.900   1.790 -0.1044  0.3023 -0.2822
27970W        W41384   0.802  12.567  13.604 -0.0397 -0.1027 -0.0110
27971W        W41385  16.299   7.649   3.770  0.0668  0.1914  0.1559
27972W        W41386   4.987   3.507   2.694 -0.0491  0.4309  0.1002
27973W        W41387   6.801   2.066  16.471 -0.0006 -0.1084 -0.1118
27974W        W41388   2.966  12.211  12.339  0.0101  0.0907 -0.0262
27975W        W41389   8.487  11.017   2.419 -0.1076  0.1552 -0.0610
27976W        W41390  15.998   1.187   5.471  0.2852 -0.0248  0.2726
27977W        W41391   6.347   2.496   5.029  0.0597  0.0742 -0.1138
27978W        W41392   0.408   5.973   7.044  0.0802 -0.2452 -0.2031
27979W        W41393   6.672   1.649   1.512  0.3953 -0.4065 -0.2783
27980W        W41394  16.169  12.236   1.038 -0.0966  0.2861 -0.4007
27981W        W41395  17.341  10.906   1.670 -0.0900 -0.5471  0.1714
27982W        W41396   8.751   9.101   4.640  0.2195 -0.0767  0.1988
27983W        W41397   6.030  17.694   4.867  0.2981  0.2659 -0.2085
27984W        W41398   3.011   1.401  13.279 -0.1905  0.0275  0.0506
27985W        W41399   6.752  17.441  13.274 -0.0281  0.2786 -0.3337
27986W        W41400  10.511   0.086   5.305  0.1055 -0.2431  0.1132
27987W        W41401   7.041   9.298  10.682 -0.0428  0.0342  0.1714
27988W        W41402   3.779  12.153  13.967  0.0225 -0.2019 -0.0624
27989W        W41403  14.965  16.709   6.169  0.3191 -0.4732  0.1616
27990W        W41404   9.451  13.553   4.150  0.0530 -0.0471 -0.0279
27991W        W41405   1.547   9.168  13.316 -0.2271 -0.3722 -0.0389
27992W        W41406  15.457   3.415   1.830 -0.3718  0.1418 -0.1124
27993W        W41407   9.395  15.088   5.604 -0.2451 -0.2755 -0.1139
27994W        W41408  15.490   9.720  12.173 -0.0887 -0.1623 -0.0087
27995W        W41409  16.898   0.635   1.322  0.0989  0.0949  0.2156
27996W        W41410  10.349   2.478  15.889  0.0256  0.2422 -0.3778
27997W        W41411  10.585  17.420   0.876 -0.2581 -0.1022 -0.1369
27998W        W41412   6.855   7.130   4.355 -0.0993 -0.2197 -0.2356
27999W        W41413   6.614  14.404  12.089  0.0213  0.0582  0.0111
28000W        W41414  14.173   6.552   5.790  0.1248  0.1017  0.0727
28001W        W41415  13.266  17.954   0.860 -0.0688  0.1216 -0.0203
28002W        W41416  14.559  15.685   4.863 -0.0846 -0.2858 -0.1436
28003W        W41417  11.899   6.468   3.959 -0.1542 -0.1346  0.2446
28004W        W41418  15.939  11.266  10.739 -0.2488 -0.1340 -0.0152
28005W        W41419   9.581   6.068   1.578  0.0067  0.0154  0.2845
28006W        W41420   4.767  14.375  10.697  0.1172  0.1277 -0.0567
28007W        W41421  11.520  13.419   4.687 -0.1539  0.0698  0.0542
28008W        W41422   1.322   6.073  15.968 -0.3322  0.0397  0.1536
28009W        W41423   7.560   9.077   1.174 -0.1399  0.1119  0.0556
28010W        W41424   2.959   8.284   2.693  0.0273 -0.3924  0.0616
28011W        W41425   5.738  17.386   4.038  0.1468  0.0211 -0.0802
28012W        W41426   1.248   1.427  12.696 -0.0779 -0.2876  0.2505
28013W        W41427  16.717   0.025  11.876  0.2769  0.3494  0.0037
28014W        W41428  14.576  13.065  15.519  0.1654  0.1259  0.0229
28015W        W41429  11.225   6.078   2.465  0.0871  0.0599 -0.0710
28016W        W41430  15.112  12.736  14.248  0.5334 -0.1899 -0.1546
28017W        W41431   7.102  16.740  13.329  0.1506 -0.3080  0.1611
28018W        W41432   8.413  11.612  16.382  0.0178 -0.1324 -0.0808
28019W        W41433  10.028  14.149   3.102 -0.1438 -0.0353  0.0274
28020W        W41434  17.952   3.145   2.119  0.1664  0.2131 -0.0584
28021W        W41435  12.387   2.697   1.865  0.1729  0.1433 -0.2659
28022W        W41436  15.989   6.034  16.679 -0.2084  0.0015 -0.0986
28023W        W41437   8.414   5.011  12.512 -0.1400  0.5146  0.1589
28024W        W41438   2.579  15.316   4.113  0.0518 -0.2416  0.1356
28025W        W41439  13.368  12.229  12.958 -0.0535  0.0519  0.0863
28026W        W41440   8.543   1.150   4.980 -0.1494  0.0671  0.0007
28027W        W41441   1.735   9.165   3.722  0.2858  0.1403 -0.1827
28028W        W41442   8.925   6.076  15.243  0.1530  0.1158  0.0300
28029W        W41443   7.114   8.793  11.472 -0.0152 -0.0410  0.1661
28030W        W41444   1.412   4.079  12.188 -0.0938 -0.1999 -0.1374
28031W        W41445   4.609   0.648  16.352  0.2390  0.1104  0.0951
28032W        W41446   5.539   2.128   1.489  0.0848  0.0495 -0.0034
28033W        W41447  16.711   3.078  14.316 -0.1566 -0.0717  0.0428
28034W        W41448   7.011  16.784   2.581  0.1030 -0.0704  0.1229
28035W        W41449  10.254   6.832  16.277  0.6133  0.1554  0.0710
28036W        W41450  10.388   7.832   0.450  0.0795  0.0124  0.1669
28037W        W41451   9.661   8.844  12.829 -0.0198 -0.0229 -0.0014
28038W        W41452  10.707   0.278  13.082 -0.0459  0.2210  0.0974
28039W        W41453   1.062  13.571  11.711  0.1216 -0.0568 -0.0047
28040W        W41454   7.712  13.379  13.812 -0.0556 -0.1550 -0.1341
28041W        W41455   1.063   3.271   4.901 -0.1224  0.0876  0.0566
28042W        W41456  15.197   9.812  15.780 -0.1366 -0.1922 -0.1203
28043W        W41457  14.399   2.116  15.452  0.0712 -0.1440  0.1827
28044W        W41458   1.405  14.050  13.170 -0.3544 -0.2690 -0.2412
28045W        W41459  14.783  10.209  15.864  0.0157  0.0230  0.0265
28046W        W41460   8.458  10.076  12.848  0.1085 -0.1443  0.3705
28047W        W41461   2.487   5.528  12.117  0.0538  0.1050  0.0367
28048W        W41462   6.147  14.009  14.736  0.0757 -0.0412 -0.2321
28049W        W41463   7.401   1.596   2.309  0.0966 -0.3579 -0.2401
28050W        W41464   5.904  11.266   0.902 -0.0543 -0.0359  0.6100
28051W        W41465  15.739   1.287   2.341  0.0826  0.1130  0.0288
28052W        W41466   9.969  12.711   5.583 -0.1181  0.1620  0.0507
28053W        W41467  15.177   7.726  13.139 -0.4192 -0.0241 -0.2679
28054W        W41468   1.444   2.201   0.211 -0.0145 -0.1311 -0.4847
28055W        W41469  12.112   1.289  11.425 -0.0497 -0.0314  0.0485
28056W        W41470  12.073  15.390  15.527 -0.0624  0.1796  0.2217
28057W        W41471  15.796   5.963   4.862 -0.5452  0.3857  0.1356
28058W        W41472   1.645   5.215   4.314  0.2753 -0.0903 -0.1191
28059W        W41473  13.339  14.191  15.877  0.0898  0.0619 -0.1105
28060W        W41474   1.380  11.662   3.534  0.1173 -0.1480 -0.0108
28061W        W41475   6.772  16.646   5.252  0.0129 -0.2340 -0.1011
28062W        W41476  17.647   9.992  15.911 -0.2017  0.0697  0.0343
28063W        W41477   9.545  10.076  15.291 -0.3092 -0.3204  0.1738
28064W        W41478   1.750   8.092   0.044 -0.2713  0.2431  0.1963
28065W        W41479   3.014  10.879   1.863 -0.2629  0.0137 -0.0587
28066W        W41480  16.887   8.738   3.545 -0.1150 -0.2643  0.0956
28067W        W41481  15.739   5.243   2.077  0.0559 -0.0312 -0.0350
28068W        W41482   9.137  16.533  12.065  0.0568  0.1702 -0.0157
28069W        W41483   4.804   1.916  15.501 -0.1483  0.4842 -0.0658
28070W        W41484   1.842  14.121   0.392  0.0799 -0.1540  0.1702
28071W        W41485  13.140  15.604   2.690 -0.1369  0.0711 -0.0419
28072W        W41486   2.487   6.997   0.169 -0.1611  0.0824 -0.1086
28073W        W41487  12.427  17.426  12.454 -0.0197 -0.3296 -0.1373
28074W        W41488  12.324  13.371  12.093  0.1250  0.0425 -0.0669
28075W        W41489  14.762   8.886  11.318  0.2488 -0.1929 -0.1753
28076W        W41490  13.817  12.371   0.557 -0.0111 -0.1917  0.0074
28077W        W41491   0.426  16.760  16.428 -0.0562  0.0631  0.0857
28078W        W41492  10.600   5.295  11.796  0.1861 -0.3171 -0.0179
28079W        W41493   1.535  13.322  15.430  0.0244 -0.0089  0.1686
28080W        W41494  12.968   7.670  11.686  0.1743 -0.1009  0.1231
28081W        W41495   8.254   4.110  10.879 -0.0308  0.0021  0.1142
28082W        W41496   7.792   1.106  13.248  0.0942  0.0608  0.0115
28083W        W41497  13.812   6.597  11.981  0.0004  0.3596 -0.1499
28084W        W41498  14.754  14.314   3.938 -0.1975  0.4140 -0.2165
28085W        W41499   2.100   5.724   2.113  0.0454  0.4572  0.0004
28086W        W41500   1.004   6.993   5.359 -0.2585 -0.0329  0.0632
28087W        W41501  16.046   8.107   3.724 -0.0428 -0.0461 -0.1219
28088W        W41502   0.797   4.007   0.189  0.2372 -0.3043  0.0577
28089W        W41503  17.889   0.374  15.655  0.2827  0.0818  0.1505
28090W        W41504   8.045   5.597   1.132 -0.2481  0.2096 -0.0884
28091W        W41505  12.342  14.045   4.744  0.1842 -0.0747  0.0808
28092W        W41506  11.722  16.029   0.481  0.0175  0.0185  0.3498
28093W        W41507   1.842  10.463   2.415 -0.2573 -0.0327 -0.0767
28094W        W41508  14.484   6.689  15.137  0.1139  0.2084 -0.3026
28095W        W41509   0.975   4.727  15.014 -0.0928  0.3346  0.2750
28096W        W41510   1.769   4.897  16.544 -0.0660  0.0442  0.0302
28097W        W41511  10.018  16.534  14.376  0.0164 -0.2845  0.0058
28098W        W41512   2.597   4.488  10.317 -0.2551 -0.2581 -0.0832
28099W        W41513  15.387   0.417  15.008 -0.2177 -0.1888 -0.2651
28100W        W41514   7.706   0.086  14.882  0.0045  0.0097  0.1186
28101W        W41515  10.184  12.805   0.749  0.1453 -0.1291 -0.0501
28102W        W41516   5.094  10.508  12.330 -0.0299 -0.3861  0.1270
28103W        W41517   9.916   2.204   1.868  0.2540 -0.0267  0.2014
28104W        W41518  12.567  17.895  12.099  0.2197  0.0360  0.1816
28105W        W41519   8.280   4.543  12.660  0.0089  0.0541  0.0496
28106W        W41520  12.156   4.690  15.655  0.1512  0.2313 -0.2107
28107W        W41521  10.868  16.008  11.710  0.3141 -0.4654  0.0896
28108W        W41522  16.824  14.861   5.312 -0.0824 -0.1097  0.1805
28109W        W41523  14.869  15.325  11.545  0.0586  0.2116 -0.0652
28110W        W41524   5.355   3.462   3.152  0.0621 -0.1273 -0.2317
28111W        W41525  16.431   5.837  12.118  0.1207  0.1186 -0.1045
28112W        W41526  13.830  10.403   4.509 -0.0517 -0.1191  0.2396
28113W        W41527   0.358   1.664   1.277  0.1345  0.2528  0.0665
28114W        W41528   0.098   3.245  14.438  0.1262  0.1273  0.0219
28115W        W41529   8.544   7.096   4.875 -0.1350 -0.4398  0.1513
28116W        W41530  10.313  13.391  15.172 -0.1620  0.0388  0.0447
28117W        W41531  10.417  14.533   1.304 -0.2234 -0.3148  0.2275
28118W        W41532   6.795  16.433  16.286  0.1990  0.1717 -0.1601
28119W        W41533   3.402  13.663   1.210 -0.2155 -0.1244 -0.3594
28120W        W41534  13.901  12.054   0.941 -0.3027  0.1170  0.0634
28121W        W41535   6.013   9.202   2.073  0.0533  0.3297  0.1759
28122W        W41536   5.412   2.225   6.133 -0.0712 -0.1963  0.2113
28123W        W41537   6.127   9.799  13.549 -0.3184  0.0576 -0.1369
28124W        W41538   3.516   3.300   1.555  0.3512  0.1316  0.0760
28125W        W41539  12.419  13.536  16.041 -0.0101  0.3721 -0.1619
28126W        W41540   4.087   5.216   1.889 -0.0683 -0.1832  0.0005
28127W        W41541  14.064  16.507   6.084  0.2064 -0.1479 -0.4201
28128W        W41542  10.505   7.412   1.715 -0.2841  0.2642  0.2259
28129W        W41543  12.581   7.296  14.834  0.0169  0.0223  0.4170
28130W        W41544  12.553  17.087   6.317 -0.2160 -0.1965  0.0234
28131W        W41545  11.431   1.147  15.989  0.0448 -0.0424  0.0026
28132W        W41546   0.825   2.422   5.776  0.0155 -0.0728  0.3286
28133W        W41547  17.227   5.687  11.497 -0.4228  0.1461 -0.1740
28134W        W41548  14.329  18.043  15.219  0.0386 -0.0482  0.0952
28135W        W41549   4.976  10.513   4.456  0.1525  0.2625 -0.0800
28136W        W41550  12.757  14.988  10.313  0.0712  0.1093  0.2448
28137W        W41551  14.976  11.677   3.676 -0.3874  0.1056  0.3418
28138W        W41552   4.928   0.395   5.686  0.2979 -0.0316 -0.0520
28139W        W41553  13.009  10.450  15.045 -0.1761  0.2879 -0.1497
28140W        W41554   5.443  12.920   3.333 -0.2572 -0.0520 -0.2484
28141W        W41555   1.290   8.067   0.387  0.2606  0.1992 -0.1101
28142W        W41556  11.103  15.289   4.762 -0.0191 -0.1669  0.3384
28143W        W41557   6.511  16.567   4.788 -0.0193  0.2779 -0.2283
28144W        W41558  11.427   7.387  12.805  0.1850  0.0099  0.1184
28145W        W41559  17.589  12.870   2.920  0.1597  0.0759  0.2985
28146W        W41560   0.203  14.394  12.249 -0.1934 -0.2761  0.1116
28147W        W41561   4.406  17.393  11.660  0.2039  0.1533  0.1178
28148W        W41562   9.262   0.034  11.179 -0.1321  0.0585  0.0447
28149W        W41563   4.835   6.355   5.675  0.0516 -0.1588  0.0326
28150W        W41564   8.946  11.827   5.794 -0.2219 -0.4635  0.0866
28151W        W41565   8.435  12.842  14.011 -0.2592  0.0935  0.1461
28152W        W41566  16.993   7.210  15.338 -0.4094  0.3256 -0.0336
28153W        W41567  14.660  14.913  11.013 -0.0184  0.0333  0.0267
28154W        W41568   8.308  15.486  13.067  0.2822  0.2326 -0.0346
28155W        W41569   6.964  10.588   2.515  0.4617  0.1098 -0.2989
28156W        W41570   8.877   5.160   0.719 -0.1140  0.1225 -0.0540
28157W        W41571   5.842   8.821  16.117  0.1440  0.0765  0.0396
28158W        W41572  11.986  12.071  15.864 -0.2388 -0.0835 -0.0417
28159W        W41573  10.114   3.225   4.735  0.1164  0.2030  0.1194
28160W        W41574  16.583  12.338  13.503  0.0528  0.0279  0.1083
28161W        W41575  15.600  10.633   4.640  0.1135 -0.0900  0.0855
28162W        W41576   3.162  15.872   6.086 -0.5659  0.0753 -0.2735
28163W        W41577   1.035  12.454  13.127 -0.1050 -0.1332 -0.2741
28164W        W41578   0.822  11.328   4.155  0.0051 -0.0558 -0.1410
28165W        W41579   9.083  12.299   5.856  0.0397  0.2785 -0.2211
28166W        W41580   7.866  10.085   1.961 -0.0898  0.1540  0.1176
28167W        W41581   7.288  15.698  16.109  0.2689  0.0197  0.1618
28168W        W41582   5.224   6.109  10.827  0.2052 -0.0083 -0.1757
28169W        W41583   0.528   9.728  12.481 -0.1392  0.0869  0.1567
28170W        W41584  16.307  14.957  13.753  0.2423  0.1635 -0.2613
28171W        W41585   8.962   8.109  10.886  0.1450  0.2481  0.0158
28172W        W41586   6.877   7.091  13.989  0.0173 -0.2274  0.0178
28173W        W41587  11.281   2.660  10.534 -0.3446 -0.0924  0.0311
28174W        W41588   2.646   6.651  14.040  0.0307 -0.0819 -0.1357
28175W        W41589  15.694  10.923   3.466  0.0161  0.0360  0.0999
28176W        W41590  14.152  17.149  13.083  0.0953  0.2262 -0.1465
28177W        W41591   9.122  11.213  16.177  0.1331 -0.1166 -0.2101
28178W        W41592   7.517  16.142   3.759 -0.1683 -0.3833 -0.0165
28179W        W41593   3.717   8.490   3.577  0.3250  0.0004  0.1178
28180W        W41594   3.831   3.984  14.181  0.0077  0.0790 -0.0923
28181W        W41595   4.097  14.791   5.030 -0.2064 -0.0619 -0.2499
28182W        W41596  17.255   5.270  14.914  0.2701  0.4070 -0.0056
28183W        W41597   6.108   8.793   5.356  0.2021 -0.1119  0.0294
28184W        W41598   7.470  15.222  16.586  0.2806  0.3014  0.1112
28185W        W41599  16.745  12.654   4.093  0.0507 -0.2294  0.2158
28186W        W41600   0.417  12.705   3.943 -0.2802  0.0870 -0.2648
28187W        W41601   3.496   6.428   6.159 -0.0423  0.1728 -0.1784
28188W        W41602  15.205  10.750   4.926  0.1655 -0.0857  0.0020
28189W        W41603   6.458   6.792  13.892 -0.2054  0.1568  0.1119
28190W        W41604   9.782   4.771   3.965  0.0948 -0.2224 -0.0004
28191W        W41605   7.281  14.890  13.471  0.1111 -0.0280 -0.1688
28192W        W41606   0.586   4.466   5.164 -0.1774  0.0023 -0.0072
28193W        W41607   0.205  13.307   4.033  0.3454 -0.2441  0.0777
28194W        W41608   2.650  10.404   1.946 -0.1582  0.1722  0.0961
28195W        W41609  17.697  10.717  13.004  0.0199 -0.0039 -0.1313
28196W        W41610   9.699  12.504  14.505  0.1660  0.2710  0.2253
28197W        W41611  12.650  12.400   2.734  0.0337 -0.2125 -0.0998
28198W        W41612  17.564  11.441   0.776  0.0885  0.0134 -0.1720
28199W        W41613  13.913   2.752  16.337 -0.1320 -0.2219 -0.0065
28200W        W41614  12.292  14.739  11.884  0.1868 -0.1260  0.0008
28201W        W41615  14.192   6.316  15.552  0.1891  0.1082 -0.0189
28202W        W41616   1.320   2.943  13.689  0.0666  0.1237 -0.0247
28203W        W41617  15.809   0.346   5.487  0.0792  0.0007  0.0960
28204W        W41618  15.908  13.028   3.225  0.1032 -0.0192 -0.1298
28205W        W41619  16.019  12.499  14.301  0.0093 -0.4066 -0.1010
28206W        W41620  15.223   2.709   3.548  0.0792  0.3051 -0.1781
28207W        W41621   9.231   8.553   4.392  0.1337 -0.0007 -0.2304
28208W        W41622  16.752  17.021   2.348 -0.1483  0.2596  0.0636
28209W        W41623   4.471   7.428  16.547  0.0671  0.1623  0.2109
28210W        W41624  13.395  14.461  12.671 -0.3238  0.1810 -0.2721
28211W        W41625   5.681  15.976   3.252 -0.0964  0.2053 -0.1247
28212W        W41626   7.429  10.192  13.236  0.0104  0.0897  0.1589
28213W        W41627   3.718  17.832  15.047  0.3466 -0.0910 -0.2497
28214W        W41628  14.230   4.572   5.683 -0.0557  0.0838  0.0313
28215W        W41629  14.439  11.403  13.931  0.3693 -0.2231 -0.0266
28216W        W41630  12.194  12.308   1.002  0.0363 -0.1184  0.0311
28217W        W41631  17.590   7.715  12.846  0.1935 -0.0032  0.0330
28218W        W41632   0.320   9.498  16.130  0.1122 -0.0307 -0.0724
28219W        W41633  18.052  11.518  12.003  0.0369 -0.2688 -0.5128
28220W        W41634   4.163   9.442  14.274 -0.1595  0.0578 -0.1166
28221W        W41635   6.921   1.266  10.788 -0.0604 -0.2663 -0.2006
28222W        W41636   7.733   4.195  14.605 -0.2554 -0.1954  0.1773
28223W        W41637  17.463   0.639  14.302  0.3215 -0.1936 -0.3171
28224W        W41638   0.576  15.908   0.238 -0.0416 -0.0406  0.2934
28225W        W41639   2.093  11.150  16.652  0.0810 -0.4868  0.2253
28226W        W41640  12.070  17.509  11.011  0.1043  0.1735 -0.0703
28227W        W41641  16.428   0.154   2.427 -0.3917  0.0655 -0.4440
28228W        W41642   6.172   9.863  14.454 -0.0772 -0.1686  0.2109
28229W        W41643   6.956   5.416  12.671 -0.0020 -0.0691  0.0005
28230W        W41644   1.092  15.017   4.853 -0.0020  0.0282 -0.0721
28231W        W41645   0.314   5.215   5.224  0.1540 -0.1807 -0.0829
28232W        W41646   4.407  15.825   4.810  0.0332 -0.1481  0.0666
28233W        W41647  10.993   1.997  13.157  0.0255 -0.1933  0.1736
28234W        W41648   9.621  14.698  13.332 -0.1594  0.0751 -0.0078
28235W        W41649   6.920  13.267   1.154 -0.0293  0.1504  0.1470
28236W        W41650  13.871  15.520  15.230  0.1731 -0.2538 -0.5989
28237W        W41651   5.832   0.976   9.981 -0.1559 -0.0202  0.1927
28238W        W41652  11.881   9.300   4.379 -0.0690 -0.1685  0.1477
28239W        W41653   2.172  14.762  14.836 -0.2056  0.0210 -0.0136
28240W        W41654   7.011  11.241  14.527 -0.0668  0.1734 -0.0143
28241W        W41655   1.879  10.252  10.388  0.2186  0.1088 -0.2038
28242W        W41656   5.586  12.924  13.471  0.1195 -0.0719 -0.1928
28243W        W41657   8.952  11.600  13.690 -0.2602  0.2170 -0.0358
28244W        W41658   4.338  13.687  12.976 -0.0164  0.1629  0.1208
28245W        W41659  13.784   0.637   0.509 -0.1730 -0.0048  0.0025
28246W        W41660   8.047   8.476   1.817  0.0073  0.0630  0.2530
28247W        W41661   8.833  17.591   2.231 -0.1373  0.0103 -0.3929
28248W        W41662  14.306   1.252  15.641 -0.1256 -0.1463  0.0091
28249W        W41663   7.804  12.123   5.774 -0.1805 -0.3951  0.0117
28250W        W41664  11.244   7.020  16.647  0.1235 -0.0994  0.1373
28251W        W41665   6.482   3.013   1.532  0.0809  0.2489  0.0160
28252W        W41666   5.823   1.018   5.237 -0.1134 -0.1048 -0.0536
28253W        W41667  12.448   2.704  15.737  0.1480 -0.0175  0.1607
28254W        W41668  15.922   0.230   1.317  0.1671  0.3962 -0.2866
28255W        W41669   1.075   7.796  12.673 -0.1272 -0.0481  0.1660
28256W        W41670   7.571  15.280  13.480 -0.2008  0.1041  0.0442
28257W        W41671   2.622   5.111   1.481 -0.0129 -0.1918  0.0350
28258W        W41672   0.199   5.687   3.540 -0.1900  0.0213  0.1329
28259W        W41673   2.055  12.044  14.196 -0.1784 -0.2060 -0.2669
28260W        W41674  16.865   9.697  16.410  0.0626 -0.1685 -0.0510
28261W        W41675   7.814   7.142   5.892 -0.0373 -0.2113 -0.0712
28262W        W41676   4.091   9.914   5.063  0.0153  0.3542 -0.0870
28263W        W41677   0.220   1.265   1.607 -0.0612 -0.0023  0.0140
28264W        W41678   2.559  17.014   2.479 -0.1111  0.1815  0.0822
28265W        W41679  15.146  11.273  11.192  0.1354 -0.1941 -0.0201
28266W        W41680  10.705  12.776  13.119 -0.0984 -0.2235 -0.3466
28267W        W41681  11.563  11.448  13.830  0.1174 -0.0406 -0.0433
28268W        W41682   3.279  17.889   0.216  0.2654 -0.0819  0.0289
28269W        W41683  15.782  11.425  12.392  0.0410 -0.2942  0.1924
28270W        W41684   2.061  13.512  12.610 -0.0459 -0.0831 -0.2680
28271W        W41685  16.051   0.989  12.253 -0.0849 -0.3494  0.0044
28272W        W41686   0.543  14.103  12.093  0.0153  0.1021 -0.0418
28273W        W41687   3.196   8.816  15.382 -0.2194  0.0202 -0.1382
28274W        W41688   4.868  13.121   5.260  0.0115  0.1595 -0.0124
28275W        W41689   7.005   1.532   0.481  0.0628 -0.0301  0.0426
28276W        W41690   8.532  11.322  12.203 -0.0231 -0.1566  0.3004
28277W        W41691   2.424  11.970   3.501  0.1132  0.0978  0.0585
28278W        W41692   8.815   2.410   1.405  0.2228  0.1473 -0.1454
28279W        W41693  15.315   6.371  12.486  0.0940  0.3102  0.2505
28280W        W41694   9.680   5.658  12.674 -0.0923  0.0973  0.1453
28281W        W41695  14.603   7.068  13.275  0.1735 -0.1501  0.1116
28282W        W41696   8.081  10.325   4.212  0.1214 -0.1405 -0.2254
28283W        W41697   0.174  14.135  11.778  0.4293  0.4641 -0.3795
28284W        W41698   8.059   6.949   6.244 -0.1970  0.2203  0.2963
28285W        W41699   7.543   8.667  11.609 -0.0613  0.1354  0.1684
28286W        W41700   3.020   6.022   0.220  0.3821 -0.2396 -0.0958
28287W        W41701  11.438  11.474   4.745 -0.0485 -0.3557  0.2240
28288W        W41702   0.812  15.639  15.578 -0.0595  0.1836 -0.0593
28289W        W41703   4.433   1.297  12.937 -0.0071  0.2417 -0.2215
28290W        W41704  13.622   9.345  12.475 -0.0138  0.1489  0.1129
28291W        W41705  13.761  17.016  14.703 -0.1509 -0.2101  0.1090
28292W        W41706   8.593  11.470   2.696 -0.0400  0.0806  0.2900
28293W        W41707   3.056   1.271   0.373  0.0251  0.0286 -0.0308
28294W        W41708  14.605   5.419  11.666  0.0721 -0.1830 -0.1446
28295W        W41709   0.853  15.091   0.627  0.1842  0.2009  0.0229
28296W        W41710  17.087   4.338  14.559 -0.4133 -0.1824 -0.0658
28297W        W41711  10.315   4.374  12.021  0.1844 -0.0449  0.2703
28298W        W41712   4.214   1.146   3.595  0.2652  0.3678 -0.1281
28299W        W41713   7.708   2.079  13.513 -0.0627  0.0407  0.1037
28300W        W41714   9.098   4.432  10.881 -0.1465 -0.1999  0.2127
28301W        W41715  16.770   1.970  10.561  0.0097 -0.1002 -0.0686
28302W        W41716  15.221  10.462  16.607 -0.2902  0.0050 -0.4279
28303W        W41717   5.841   7.849  16.633 -0.0406  0.2589  0.0208
28304W        W41718   4.680   7.522   5.296 -0.0133 -0.3721  0.0589
28305W        W41719  17.612  11.354  11.736  0.2843  0.0046 -0.0839
28306W        W41720  10.535   2.370   4.942 -0.0751 -0.2365 -0.1009
28307W        W41721  11.012  14.995  11.613 -0.2266 -0.1059 -0.1014
28308W        W41722   0.359  10.051   2.899 -0.2589  0.0694 -0.2251
28309W        W41723   6.400  12.029  14.143 -0.3258 -0.3620 -0.1764
28310W        W41724  11.712   5.314  14.504 -0.2190 -0.1842  0.0394
28311W        W41725   3.862   1.771   2.643  0.1960 -0.4339  0.0835
28312W        W41726   6.040   0.819   1.509  0.1813 -0.2746  0.3754
28313W        W41727  14.539   0.214   0.254  0.1238  0.1548  0.2928
28314W        W41728  17.203   7.104   4.544 -0.0077  0.4611 -0.1993
28315W        W41729  14.819   2.473   1.838 -0.0259 -0.4283 -0.1775
28316W        W41730  14.875   4.459  12.602 -0.1337 -0.2390 -0.0442
28317W        W41731  16.310   0.290   1.851  0.0763  0.0216 -0.0722
28318W        W41732  11.780  13.498   1.509  0.1170  0.1754 -0.2702
28319W        W41733   0.763  18.046   4.869 -0.1441  0.2298 -0.2334
28320W        W41734  13.967   8.733  16.523 -0.1011  0.0802 -0.1589
28321W        W41735  10.874  11.717   4.819  0.0438  0.1765 -0.1724
28322W        W41736   5.535   5.266  15.308 -0.0719 -0.2114 -0.1609
28323W        W41737   0.457   1.321   6.634  0.2935  0.1881  0.1746
28324W        W41738  13.856   8.878  15.613  0.0325  0.1308 -0.1604
28325W        W41739  17.730  15.036   5.097 -0.1022 -0.1029 -0.2115
28326W        W41740  17.014   3.229   6.864 -0.0995  0.2618  0.2628
28327W        W41741   9.484   1.612   1.228 -0.0860 -0.1801 -0.0813
28328W        W41742   7.677   0.422  12.182  0.0784 -0.1979  0.0028
28329W        W41743   0.775  17.764  13.521  0.0810  0.3247 -0.2324
28330W        W41744  17.969  14.547  13.333 -0.0074 -0.0328  0.2193
28331W        W41745  13.772   6.398   2.286 -0.0498  0.0708  0.2482
28332W        W41746  10.839  13.352  13.077  0.0347 -0.1579  0.1593
28333W        W41747  17.219   9.776  15.585  0.1168  0.3089 -0.0103
28334W        W41748   0.523  12.440   1.023 -0.2270 -0.0880 -0.2270
28335W        W41749   6.371  12.479  15.721 -0.1793  0.1571 -0.0687
28336W        W41750   4.893  10.370   5.536  0.0273 -0.2276  0.2807
28337W        W41751   2.715  16.187   3.814 -0.0662 -0.2855  0.0892
28338W        W41752  12.882   7.304  11.314 -0.0350  0.2789  0.1204
28339W        W41753   0.477   3.243  15.155 -0.0546  0.1851 -0.2100
28340W        W41754   4.491   7.055   0.184  0.3031 -0.1747 -0.0224
28341W        W41755   3.645   1.671   2.202  0.0517 -0.3194  0.0116
28342W        W41756   5.570  10.293  14.375 -0.2477 -0.1429 -0.1631
28343W        W41757  17.809  11.451  14.807  0.4849  0.0880  0.0421
28344W        W41758   3.955  11.700  14.802  0.1386  0.0594  0.1436
28345W        W41759  13.390  17.492   0.032 -0.1060  0.3623  0.1503
28346W        W41760   9.170   8.190   3.537  0.1703 -0.0867 -0.2122
28347W        W41761   8.065   7.232  15.281 -0.1076  0.1999 -0.1875
28348W        W41762  12.305   1.110  16.225  0.0270 -0.0364 -0.2051
28349W        W41763   6.211   5.714   3.172 -0.1286  0.1238 -0.3424
28350W        W41764  12.581   9.132   2.494 -0.1069  0.3358 -0.2557
28351W        W41765   2.755  13.749   2.530 -0.2335  0.0686  0.0513
28352W        W41766   7.199  12.273   0.847  0.1577  0.1018  0.1588
28353W        W41767   8.414   9.706  14.615  0.3232  0.1425 -0.1351
28354W        W41768   8.029  11.467  15.223 -0.0109 -0.2299  0.0981
28355W        W41769  17.200  16.025  16.183  0.0309  0.1898  0.2251
28356W        W41770  11.129  11.464  12.965 -0.0757 -0.2654  0.0088
28357W        W41771   5.872   3.874  15.495 -0.1751 -0.1144  0.2897
28358W        W41772  14.261   7.305   2.170 -0.1435 -0.1805  0.0239
28359W        W41773  15.424  13.125  12.079  0.2336  0.0796  0.1503
28360W        W41774   1.589  11.771   1.721 -0.0935 -0.1034  0.2154
28361W        W41775   2.179   9.241   0.233 -0.1586  0.1148 -0.0802
28362W        W41776   5.240  12.889   2.828  0.0287 -0.0072  0.3018
28363W        W41777   7.620  12.866   1.155  0.2780 -0.1818  0.2530
28364W        W41778   2.755  11.526   5.196 -0.0051 -0.0809 -0.0300
28365W        W41779   6.951  11.311   0.502  0.0114 -0.0956  0.0869
28366W        W41780   1.906   2.348   0.593  0.0866  0.1303 -0.0070
28367W        W41781  17.482  17.394   1.185  0.1330 -0.3899 -0.1727
28368W        W41782   5.819   3.976  11.938 -0.0604  0.1232  0.1983
28369W        W41783  15.854   7.124   2.379 -0.0835 -0.0887 -0.0016
28370W        W41784  13.746   3.916   3.045 -0.0293  0.0669  0.1996
28371W        W41785   3.400  17.122  13.335  0.3002  0.1841  0.0708
28372W        W41786  13.743  15.963   3.211 -0.0120 -0.0939  0.1761
28373W        W41787   6.035  10.574  16.141  0.0003 -0.1557 -0.2425
28374W        W41788  14.970  14.716  16.001 -0.1038  0.2219  0.1690
28375W        W41789  15.809   7.714  10.449 -0.2284  0.0145  0.1321
28376W        W41790   6.006   1.513   3.999  0.0925  0.1937 -0.0148
28377W        W41791   8.035   7.010   1.472 -0.2498 -0.1113  0.0420
28378W        W41792   4.982  12.164  10.951  0.0350  0.1985 -0.1429
28379W        W41793   4.898  16.898   6.780  0.0300 -0.0407 -0.1754
28380W        W41794  15.235  10.145  13.709  0.2544  0.1006 -0.0382
28381W        W41795  13.944  15.333   6.457  0.0306 -0.3173  0.0690
28382W        W41796   9.583   7.748  10.724  0.1707  0.1252 -0.2450
28383W        W41797   9.520  13.923   4.546 -0.0677  0.0998 -0.3327
28384W        W41798  10.539   9.686   1.608  0.1253 -0.1884  0.0481
28385W        W41799   2.440   9.101  10.421  0.0285 -0.1670  0.1099
28386W        W41800   3.517   7.575   3.124  0.0944 -0.0568  0.3551
28387W        W41801   5.841  13.632  11.885  0.0369 -0.0608  0.1584
28388W        W41802  15.819   5.881   1.232  0.1646 -0.0908 -0.0532
28389W        W41803  10.481   1.389   0.733 -0.0476 -0.2956  0.0024
28390W        W41804  16.774  17.864   0.567 -0.2140  0.2221  0.2632
28391W        W41805   3.237   7.363   6.738 -0.0870  0.1230  0.0263
28392W        W41806   4.053  15.849  15.970 -0.0180  0.2476  0.0826
28393W        W41807  15.937  12.578   4.311 -0.0225  0.0648 -0.0416
28394W        W41808   6.766  15.838   2.608 -0.0312 -0.2472  0.0708
28395W        W41809   1.236   2.100   2.602  0.0076 -0.0920 -0.0356
28396W        W41810   7.167  17.732   5.724 -0.2968 -0.1116  0.3298
28397W        W41811   9.843  11.429  14.136 -0.2152 -0.1792  0.0602
28398W        W41812  16.504  11.654   5.483 -0.5242 -0.0673 -0.2837
28399W        W41813  14.380   8.183   3.714  0.0763 -0.1278  0.0539
28400W        W41814   9.288   7.924  15.186  0.0336  0.0787 -0.0617
28401W        W41815   5.410  17.692   0.646  0.2228 -0.1605  0.1983
28402W        W41816  14.788   1.867   0.337 -0.1094 -0.0232  0.2007
28403W        W41817   9.224  16.879   4.223 -0.1874 -0.1550  0.1350
28404W        W41818   9.121   1.582   0.297  0.0164  0.0206 -0.1258
28405W        W41819  12.774   0.241  11.629 -0.3299 -0.1382  0.0614
28406W        W41820   2.057  11.857   1.129 -0.1348 -0.0119 -0.0138
28407W        W41821   2.806   4.321   1.142  0.0585  0.2633  0.1388
28408W        W41822   2.046   2.430   4.752 -0.0639 -0.0796  0.2419
28409W        W41823  14.582   3.920  15.728 -0.0101  0.0386 -0.2875
28410W        W41824   2.978   9.081   3.765 -0.1922  0.1269  0.0359
28411W        W41825   7.377   2.873   2.887  0.1552 -0.0705  0.1331
28412W        W41826   0.694  13.381  15.947  0.2409  0.0774  0.2774
28413W        W41827  15.727   5.419  10.483  0.1498 -0.1267  0.2726
28414W        W41828   4.646   0.953   1.710  0.2046 -0.0977 -0.0892
28415W        W41829   5.119   8.079   2.938 -0.2142  0.1481 -0.2711
28416W        W41830   3.424   1.323   1.891  0.2492  0.1845  0.1896
28417W        W41831  16.089   5.186   3.745  0.0214  0.0512  0.0186
28418W        W41832  17.722   9.920  14.232  0.0248 -0.0168 -0.4118
28419W        W41833   5.765  15.314  16.627 -0.1360  0.1581 -0.0251
28420W        W41834   1.131   3.448   0.046  0.2584 -0.0447 -0.2719
28421W        W41835  16.323  13.163  10.488  0.1168  0.3208  0.1970
28422W        W41836   6.194  15.338   3.267  0.3361  0.1254  0.2309
28423W        W41837   2.211   6.409  15.940 -0.0640  0.0594 -0.1974
28424W        W41838   8.196  12.085  16.294 -0.2654 -0.2526 -0.1081
28425W        W41839  13.920  15.160   0.771  0.0026  0.0159 -0.2864
28426W        W41840  17.489   1.053   4.381  0.1854 -0.1460 -0.3945
28427W        W41841   0.700   1.859  14.800  0.1951 -0.1003  0.0065
28428W        W41842  16.043  17.676   1.634  0.0085  0.0710 -0.2070
28429W        W41843   9.709   4.518  15.179 -0.3064 -0.1995 -0.0871
28430W        W41844   0.882   2.549   2.539 -0.0476  0.1479 -0.2085
28431W        W41845   0.402  13.552   5.715 -0.0826 -0.1300 -0.2109
28432W        W41846  10.683   1.402  11.897 -0.0916 -0.0688 -0.2069
28433W        W41847   3.414  14.049  10.670 -0.2708 -0.2166  0.1067
28434W        W41848  18.043  15.282   0.838 -0.4441 -0.1273  0.3681
28435W        W41849  14.524   2.603  15.472  0.1037  0.1916  0.1309
28436W        W41850  14.245   5.106  12.759 -0.2661  0.1646 -0.1233
28437W        W41851   8.492  13.933   0.789  0.1003 -0.0596  0.0578
28438W        W41852   4.718   6.771   0.542  0.1361 -0.1818  0.1391
28439W        W41853  13.773   2.982   5.290 -0.1658  0.0562  0.1007
28440W        W41854  15.662   7.552   6.379  0.1524  0.0071  0.0507
28441W        W41855  14.954   4.967   6.464  0.1632  0.1769  0.2657
28442W        W41856  13.783  12.363  10.684 -0.1894  0.0174  0.0985
28443W        W41857  13.670  12.095  11.120 -0.1768  0.0582  0.0971
28444W        W41858  12.888   1.625   1.854  0.1435  0.1696  0.3321
28445W        W41859  14.994   3.958  13.140 -0.0998 -0.1733 -0.0076
28446W        W41860  13.836   1.282   4.565  0.1807  0.1797  0.1471
28447W        W41861  11.436  11.120  14.259  0.0773  0.0528  0.0860
28448W        W41862   0.805  11.806   2.729 -0.0328 -0.0854  0.1587
28449W        W41863  17.678  12.993   2.122  0.0247 -0.2426 -0.0914
28450W        W41864   2.925  16.714   2.351  0.5053 -0.2109 -0.0903
28451W        W41865  15.285  17.845   0.239 -0.0955  0.0549  0.2081
28452W        W41866  11.490  13.944  15.015 -0.1064 -0.2469  0.0669
28453W        W41867  12.334  11.159   4.925 -0.2888  0.2777  0.0989
28454W        W41868  17.379  10.725   3.436 -0.2079 -0.3791 -0.2350
28455W        W41869   9.814  14.055   1.926  0.1803 -0.2051  0.2243
28456W        W41870   6.104   8.183  13.803 -0.1252  0.0904  0.1246
28457W        W41871  11.300   4.767   4.233 -0.2364 -0.1334 -0.0243
28458W        W41872  14.048   5.364   5.270  0.1584 -0.1822 -0.1465
28459W        W41873   8.059  10.925  12.367 -0.1671 -0.2597  0.1803
28460W        W41874   1.834   7.765  13.485 -0.0886  0.0078 -0.0639
28461W        W41875   1.914  13.170  10.486  0.2079 -0.3114  0.0889
28462W        W41876   5.908   9.475  11.693 -0.1814 -0.0122  0.2223
28463W        W41877   8.118  11.832   4.438  0.0253 -0.2018 -0.2279
28464W        W41878  14.229   9.703   1.443  0.2865  0.0852 -0.2142
28465W        W41879   5.479   6.922  13.492 -0.1255  0.0443 -0.2019
28466W        W41880  16.928  12.833  13.531  0.0961  0.4481 -0.2845
28467W        W41881  14.717  16.920   4.921  0.0747  0.0396  0.0590
28468W        W41882   8.207  13.735   5.447 -0.0707  0.3452 -0.0391
28469W        W41883  14.381   4.282   3.362 -0.2941  0.3683 -0.0222
28470W        W41884   5.431  12.761  11.541  0.0407  0.2409 -0.1104
28471W        W41885   9.531   0.931   4.194  0.1087  0.1798 -0.0940
28472W        W41886  12.084  11.562  15.641 -0.3810 -0.1910  0.2507
28473W        W41887  11.661  15.409  13.455 -0.1219  0.0326  0.0212
28474W        W41888   0.413  10.091   5.167  0.0229 -0.3046  0.0156
28475W        W41889   6.242   9.356  12.271  0.1124 -0.1091  0.0582
28476W        W41890   0.952   9.751   0.181  0.0072  0.0262 -0.0397
28477W        W41891   6.295   2.465  13.379 -0.0778 -0.2940 -0.3983
28478W        W41892  13.674  13.716  16.307  0.0548 -0.1979 -0.4807
28479W        W41893   6.194   3.096   4.697  0.0826  0.0691  0.1688
28480W        W41894  14.310   0.807   4.861 -0.2578  0.0831 -0.0572
28481W        W41895   5.843   3.632  12.545  0.1497 -0.0648  0.1973
28482W        W41896   2.996  17.344   5.262  0.3816 -0.5195 -0.4490
28483W        W41897   7.560   6.614   2.307 -0.2675 -0.0751 -0.2123
28484W        W41898   0.126   1.564   0.326 -0.2027 -0.0346  0.2621
28485W        W41899   8.119  11.621   1.868 -0.0622  0.1452  0.0413
28486W        W41900   9.652   2.415   4.449 -0.1341 -0.0504 -0.1145
28487W        W41901  13.424   7.939   0.683  0.2029  0.0513  0.0699
28488W        W41902   6.680  15.071  13.381  0.3240 -0.2823  0.0527
28489W        W41903   9.567  17.592   4.610 -0.0592  0.0781 -0.0436
28490W        W41904   7.303   2.381  11.835 -0.0585  0.2605  0.0166
28491W        W41905   1.564   3.037  14.762  0.0504 -0.1768 -0.4368
28492W        W41906   6.197  15.804   3.527  0.0247 -0.0527  0.0728
28493W        W41907   3.266   1.749  12.524 -0.0238 -0.1218 -0.0712
28494W        W41908  15.747  16.118  13.399 -0.1228 -0.1732  0.0984
28495W        W41909  17.626   2.262   7.186  0.2566  0.0441  0.0405
28496W        W41910   3.250  13.264  14.798 -0.0093 -0.0854 -0.1526
28497W        W41911   3.333   0.453  15.753 -0.0120 -0.0951 -0.2559
28498W        W41912  17.006  16.486  14.219 -0.0848  0.4589 -0.4047
28499W        W41913   3.617  16.389   1.952  0.0914 -0.0152 -0.1487
28500W        W41914  15.590   6.425  16.257  0.3164  0.0329  0.1496
28501W        W41915   1.333   5.143  12.113 -0.0555 -0.0789  0.0613
28502W        W41916  11.136   8.611   1.862  0.1091 -0.1067 -0.3626
28503W        W41917   7.792   4.883   3.805  0.1719 -0.2279 -0.1037
28504W        W41918   2.013  10.353   0.117 -0.1985  0.1536 -0.3231
28505W        W41919   7.371  10.764  16.595 -0.0372  0.0050 -0.1678
28506W        W41920   8.256   6.863   0.098 -0.2140 -0.0069 -0.3533
28507W        W41921   9.997   4.918  12.684  0.0384  0.3063 -0.0797
28508W        W41922  10.641  17.895  12.561  0.1444 -0.0402  0.0449
28509W        W41923   3.966   9.576  11.236  0.0349 -0.0444 -0.3945
28510W        W41924  12.444  10.956  12.751 -0.2067  0.0384  0.1945
28511W        W41925   0.250  13.021   0.256  0.0898  0.0281  0.0295
28512W        W41926  13.451   3.995   3.748  0.2598 -0.1777  0.1957
28513W        W41927   7.057   4.510   0.130 -0.2337 -0.2277  0.1295
28514W        W41928   7.375   2.806   3.561  0.2182  0.3135  0.0284
28515W        W41929   0.457   4.267   1.366 -0.0949 -0.1970  0.0826
28516W        W41930   7.249   0.736  14.353 -0.0266 -0.4118 -0.0054
28517W        W41931   1.609   6.944   6.004  0.1332 -0.0217  0.0074
28518W        W41932   4.812  12.799   2.185  0.0993  0.1779  0.2392
28519W        W41933   5.481  13.396  13.307  0.1976 -0.1532 -0.1410
28520W        W41934  17.177  17.851   1.784 -0.2775 -0.1871 -0.0217
28521W        W41935  15.632   6.671   0.713 -0.1689 -0.0889  0.3709
28522W        W41936  13.669   8.368  11.756 -0.3386 -0.0742 -0.0293
28523W        W41937  13.664  13.921   2.731  0.1959  0.1453  0.3933
28524W        W41938   8.111  13.545   0.820 -0.0247 -0.3313 -0.1693
28525W        W41939  16.122   0.058   3.687  0.1436  0.0847 -0.1355
28526W        W41940  13.250  13.747   5.251 -0.1399 -0.4764  0.0348
28527W        W41941  14.024  16.199  10.308 -0.0863  0.0264  0.1669
28528W        W41942   8.642   7.479   0.672 -0.0704 -0.1059  0.0844
28529W        W41943  15.428   4.026   1.037 -0.2471  0.0494  0.0245
28530W        W41944  17.534   3.074   1.290 -0.2003 -0.2683  0.1873
28531W        W41945   6.597   6.670  15.256  0.1223  0.1367 -0.1147
28532W        W41946   8.038   4.203  15.967  0.2172 -0.2704 -0.1232
28533W        W41947   2.579  12.199   2.117 -0.0132  0.0654  0.4976
28534W        W41948  10.425   7.935   3.384 -0.1360  0.0472 -0.0449
28535W        W41949  10.034  17.094   0.096  0.0728 -0.0137  0.2431
28536W        W41950  14.387   5.226  14.319 -0.0937  0.2460 -0.0375
28537W        W41951   6.418   6.354   2.026 -0.1184  0.3207  0.1380
28538W        W41952  11.367  13.006   2.939  0.1124  0.4120  0.1805
28539W        W41953   3.255  14.966   9.565  0.1180  0.0275 -0.3407
28540W        W41954   6.199   2.028   0.438  0.2496  0.0181  0.5109
28541W        W41955  14.740   4.498   0.523 -0.0418  0.1846 -0.1986
28542W        W41956  17.289   3.000   2.218 -0.1538 -0.2722 -0.1923
28543W        W41957   0.611  15.831  13.481 -0.0730  0.3750  0.1354
28544W        W41958  12.120   3.383   4.046  0.0468 -0.0447  0.3113
28545W        W41959  14.624   6.815   3.991 -0.0132  0.0427  0.3184
28546W        W41960  12.584  16.246  14.519 -0.3422 -0.4107 -0.2361
28547W        W41961  10.454   7.316  15.935  0.5332 -0.0897  0.0810
28548W        W41962   6.000  13.049   1.606  0.0591 -0.1489 -0.1092
28549W        W41963  16.436  10.653   4.627 -0.1288  0.4365 -0.0745
28550W        W41964   6.083  11.667   3.710 -0.2058  0.1597  0.0200
28551W        W41965   6.128  13.083  12.669  0.2688 -0.1743 -0.0166
28552W        W41966  15.931  12.885  10.392  0.0393  0.0933  0.4216
28553W        W41967   3.407   1.758   5.542 -0.2242 -0.1259  0.1167
28554W        W41968  15.135   0.806   0.063  0.0456  0.2227 -0.1791
28555W        W41969   1.988   9.945   3.891  0.1161  0.1266  0.2495
28556W        W41970   1.751  16.889   0.979 -0.1071 -0.2387 -0.0163
28557W        W41971  10.791  10.753   4.489  0.1833  0.1308  0.2078
28558W        W41972   5.910  10.135   4.695 -0.0811 -0.0343  0.2693
28559W        W41973  10.984   1.751  13.832  0.1082 -0.2377 -0.1040
28560W        W41974  11.841   3.950   2.348  0.0860  0.1267 -0.1063
28561W        W41975  13.303  10.569   5.481  0.1803 -0.1692 -0.2627
28562W        W41976  12.255   4.959  15.196  0.0760  0.0339 -0.1047
28563W        W41977   5.298  10.928  13.641 -0.0373 -0.0085 -0.1672
28564W        W41978  11.349   5.668  11.304 -0.0499 -0.0356  0.0063
28565W        W41979   4.943  13.502  15.698 -0.0172 -0.1551  0.2445
28566W        W41980   9.447  12.938   5.401  0.0909  0.1365 -0.1109
28567W        W41981  13.806  10.244  12.567 -0.1358 -0.2001  0.1172
28568W        W41982   0.063  13.693   5.391  0.1221 -0.1233 -0.0538
28569W        W41983  11.644   0.111   1.548 -0.0875 -0.0596  0.3154
28570W        W41984  12.349   2.547  14.326  0.2908 -0.0755 -0.1638
28571W        W41985  16.073   9.784  13.212 -0.1735  0.0326  0.0104
28572W        W41986   6.371  17.938  12.090 -0.0462  0.0451  0.2168
28573W        W41987  11.805  14.283   4.599 -0.4231  0.2334  0.0420
28574W        W41988  15.322   6.021   1.416 -0.1578  0.3336  0.1888
28575W        W41989   5.966  10.407  14.690 -0.2006  0.1695 -0.1299
28576W        W41990  12.929   2.041   0.714  0.1394 -0.0360 -0.0197
28577W        W41991   8.410  11.253   5.978 -0.0175 -0.1072 -0.0266
28578W        W41992  10.740  10.599   2.882  0.3485 -0.0744 -0.0039
28579W        W41993   3.266   7.071   1.916  0.0105 -0.3364 -0.1114
28580W        W41994   8.944  17.260  16.495  0.1484 -0.1569  0.0971
28581W        W41995   7.987   0.744   5.045  0.1913 -0.2399  0.0900
28582W        W41996  13.324   2.934   0.900  0.1770  0.2103  0.0469
28583W        W41997  13.457  15.148  14.584  0.0561  0.1090  0.2183
28584W        W41998   9.754   9.319  15.900  0.3472 -0.2120 -0.1806
28585W        W41999  15.545   9.845  12.717  0.0540  0.1152 -0.1861
28586W        W42000  15.407  10.389  11.508  0.1761  0.2412  0.2021
28587W        W42001   5.450   5.018   3.044 -0.1079  0.0052  0.2100
28588W        W42002   8.656  13.202  15.277 -0.2859  0.3464 -0.2207
28589W        W42003   9.253  17.895   3.579  0.2074  0.1561 -0.0691
28590W        W42004   0.834   5.133   3.908  0.6111  0.1984  0.0749
28591W        W42005  16.432  10.748   5.558  0.0941  0.0090 -0.1725
28592W        W42006   4.308  12.192   6.202 -0.3222 -0.0978 -0.1985
28593W        W42007  13.500  17.009   4.306  0.1943  0.0995  0.1358
28594W        W42008   9.146  15.718  14.123  0.0096 -0.3645  0.2845
28595W        W42009  16.590   4.649   1.422 -0.0934 -0.3338  0.0534
28596W        W42010   4.586   1.630  16.514 -0.0169 -0.1154  0.0543
28597W        W42011   5.321   7.019   5.151  0.1736  0.1199 -0.1687
28598W        W42012   2.265  14.843  11.204 -0.3061 -0.2545 -0.1290
28599W        W42013  10.827  11.788  15.005 -0.0186 -0.2310  0.0351
28600W        W42014  12.618   7.185   4.866  0.0087  0.1140  0.0062
28601W        W42015  13.607   7.636   1.150 -0.0096 -0.0371  0.0505
28602W        W42016   0.089  11.826  16.167 -0.1618  0.1588 -0.0256
28603W        W42017   8.578  14.194  15.106  0.0518 -0.2354  0.0232
28604W        W42018   5.674   0.731   0.266 -0.1444 -0.0542 -0.3762
28605W        W42019   5.418  12.880   4.262 -0.0705 -0.0294  0.4960
28606W        W42020  14.385  15.274  11.803 -0.1232  0.2241  0.2442
28607W        W42021  12.870   3.332   5.406  0.0383  0.0534 -0.0967
28608W        W42022   1.589   4.277   6.243 -0.4153  0.0849  0.1304
28609W        W42023   2.726  10.741   2.300  0.0614 -0.2632  0.2129
28610W        W42024   0.992   4.831  12.295  0.1100  0.2599  0.0069
28611W        W42025  12.722  14.675  16.215 -0.0698  0.0960 -0.1516
28612W        W42026  13.901  11.368   4.608 -0.2162 -0.2602  0.1207
28613W        W42027   9.125   4.884  14.640 -0.0212 -0.0960  0.0106
28614W        W42028  13.597  16.551  13.773  0.0518 -0.1941  0.2789
28615W        W42029  14.166   5.439  13.484 -0.1734  0.1870 -0.1395
28616W        W42030   5.145   9.694   6.606  0.0559  0.2126  0.3428
28617W        W42031   1.486  13.685  12.005 -0.3437  0.1983 -0.1163
28618W        W42032   1.747  15.960  12.230 -0.0666  0.1183 -0.0906
28619W        W42033  11.993  10.634  11.940 -0.2146 -0.3274 -0.0891
28620W        W42034   1.318  13.537   2.466 -0.1857 -0.1032 -0.1844
28621W        W42035   3.039  17.532   0.478  0.0367  0.0773 -0.2045
28622W        W42036  17.770  14.911   2.149  0.1995  0.2065 -0.1492
28623W        W42037  14.780  13.103  11.207  0.1146  0.1325 -0.1185
28624W        W42038   8.765   0.152   0.988 -0.2926 -0.0621 -0.2937
28625W        W42039  17.299   9.977  16.555  0.1208  0.2284  0.0607
28626W        W42040  17.733   2.680   1.926 -0.1257 -0.0223 -0.2813
28627W        W42041   8.681   8.940  14.030 -0.1108 -0.2783  0.0282
28628W        W42042   1.116   5.341  11.557  0.0740 -0.1676 -0.0881
28629W        W42043   0.316   1.755   6.976  0.1999  0.2388 -0.3372
28630W        W42044  16.413  12.752   5.806 -0.0070 -0.2070 -0.2566
28631W        W42045   6.381  14.825   4.271  0.2828 -0.1352 -0.4276
28632W        W42046   2.811   2.200   1.636 -0.4413  0.0362  0.0738
28633W        W42047   1.412  12.127  14.346  0.0610 -0.2439 -0.1648
28634W        W42048   9.116   2.289  11.835  0.0449  0.1174  0.0769
28635W        W42049   5.300   0.492  15.505 -0.0990 -0.3013  0.2066
28636W        W42050  11.268   4.676  13.979 -0.0760  0.0915  0.0011
28637W        W42051   0.931   3.746   3.387  0.1181 -0.0767  0.0126
28638W        W42052  15.852  14.957   2.058  0.0378 -0.4646  0.1451
28639W        W42053  15.607   9.445  13.080  0.1860 -0.0107 -0.0018
28640W        W42054   4.542   7.845   6.231 -0.0550  0.1411 -0.1575
28641W        W42055  16.038   6.396   5.150  0.1386 -0.2416 -0.3024
28642W        W42056   8.805   4.256   5.835 -0.2830  0.0608  0.0930
28643W        W42057  14.048  13.815   5.394  0.0188 -0.0968  0.1482
28644W        W42058  15.449  13.294   1.770  0.0479  0.0074 -0.0081
28645W        W42059   4.191  16.883  15.342 -0.1363  0.0610  0.3182
28646W        W42060  11.502  17.359  14.957 -0.2219  0.1843  0.2770
28647W        W42061   5.636   0.262  13.709  0.2182 -0.0251 -0.0080
28648W        W42062   4.628   5.858   1.098  0.0178  0.1241  0.3892
28649W        W42063  14.787   4.674   1.114  0.2665 -0.1288 -0.1353
28650W        W42064  17.739   1.742  16.134 -0.0671 -0.1411 -0.2523
28651W        W42065   7.273   7.953  12.150 -0.0069  0.0365  0.3533
28652W        W42066   2.131   2.742   1.075  0.1928  0.1963 -0.3087
28653W        W42067  13.936  16.271   4.678 -0.0460  0.1432 -0.2998
28654W        W42068   9.766   7.613   2.767  0.0754  0.1240 -0.0714
28655W        W42069   7.832  10.085   2.463 -0.2556  0.2054  0.1095
28656W        W42070   4.188   7.478   5.953 -0.1453 -0.0764 -0.0011
28657W        W42071   3.087   7.378  11.839  0.1119 -0.0211 -0.0157
28658W        W42072   9.457  16.935  14.306  0.1085 -0.0166 -0.0598
28659W        W42073   0.159   8.382  12.960 -0.2032  0.1951 -0.1756
28660W        W42074  10.822  16.137  14.814  0.1979  0.1965 -0.2690
28661W        W42075  11.436   1.950  16.384  0.2917  0.1042 -0.0921
28662W        W42076   2.507   7.051  14.278  0.1185 -0.3231 -0.2262
28663W        W42077  17.834  12.182  15.965 -0.1412  0.1926  0.1910
28664W        W42078   3.585  13.306   5.894 -0.1850  0.4046 -0.0818
28665W        W42079  11.881   9.738  15.399 -0.2921  0.0658  0.0968
28666W        W42080  12.944  13.588  12.433  0.2004  0.0956 -0.1511
28667W        W42081  14.044  16.308   3.767  0.0637  0.0251  0.0940
28668W        W42082  13.152  13.244  13.274 -0.2587  0.0255  0.2075
28669W        W42083  14.496  15.609   3.545 -0.1552 -0.3892  0.1869
28670W        W42084   7.437  13.628   2.187 -0.0886  0.2787 -0.2312
28671W        W42085   4.897   2.282   0.355  0.1873 -0.2472  0.0588
28672W        W42086   1.366   6.436  12.899  0.1250 -0.0786 -0.0405
28673W        W42087   1.348   8.330  11.731 -0.5293  0.1530 -0.1372
28674W        W42088  12.190   5.795  16.394  0.4552  0.1266  0.0569
28675W        W42089   1.772  16.268  12.693  0.0550 -0.1345  0.0581
28676W        W42090  13.227  15.020   3.386 -0.2574  0.0102  0.1280
28677W        W42091   4.767  15.760   5.210 -0.1696  0.0024  0.0752
28678W        W42092   0.570   2.650   6.630 -0.3185  0.0953 -0.0021
28679W        W42093   7.673   9.784  10.167 -0.0515  0.0654  0.4748
28680W        W42094  13.519  13.569   0.645  0.1880  0.1063  0.0691
28681W        W42095  17.762   3.745  16.133 -0.0179  0.1224  0.2332
28682W        W42096  17.395  12.561   4.318 -0.0801  0.5031  0.3098
28683W        W42097   0.496  15.897  15.936 -0.2249 -0.1859  0.0976
28684W        W42098   4.685  17.944   2.290  0.1619  0.0658 -0.1450
28685W        W42099   9.260   7.944  12.785 -0.0450 -0.0498  0.1113
28686W        W42100   5.923  15.322  14.922 -0.3847 -0.2125 -0.0524
28687W        W42101  14.383   3.319  14.430 -0.0322 -0.1513 -0.2057
28688W        W42102  13.241   4.328  16.482 -0.0595  0.1473 -0.3873
28689W        W42103  11.152   8.854  12.885 -0.2212  0.1699  0.0384
28690W        W42104  17.807  16.912  14.662  0.2405  0.4642  0.0044
28691W        W42105  16.523  11.710   3.649 -0.2555 -0.1790 -0.3087
28692W        W42106  15.939   7.546  15.522  0.0448 -0.1843 -0.0587
28693W        W42107   9.441   3.616  11.524 -0.1529  0.0944  0.1803
28694W        W42108   7.340  11.099  11.631 -0.0846 -0.0456  0.0241
28695W        W42109   6.623  12.427   1.836  0.0871  0.3188 -0.2500
28696W        W42110   9.406   8.897  13.275 -0.2121 -0.2060  0.4400
28697W        W42111   5.370   3.227   4.591  0.1086  0.0098  0.0848
28698W        W42112   0.683  16.926   3.372 -0.2710  0.0618 -0.3396
28699W        W42113  15.262   7.600   0.204 -0.1222 -0.2658  0.0357
28700W        W42114   6.109  14.114  11.241 -0.2221  0.3095 -0.0949
28701W        W42115   1.733  12.022  11.199  0.1277 -0.0454 -0.0194
28702W        W42116   9.357  12.914  14.148 -0.3476  0.1645 -0.0223
28703W        W42117   2.660  11.061   5.374 -0.1921 -0.0304 -0.2965
28704W        W42118   4.236   3.991  14.489  0.0762 -0.0951 -0.2586
28705W        W42119   0.427  17.905   2.610 -0.2586 -0.1901 -0.1522
28706W        W42120  12.923   1.720  13.329  0.0826  0.1214  0.0372
28707W        W42121  14.769  17.004  12.398  0.0803 -0.1831 -0.0390
28708W        W42122   0.973  14.048   1.839  0.2791 -0.3477 -0.0789
28709W        W42123  10.336   8.548   5.003  0.0731  0.0422  0.0592
28710W        W42124   6.437  12.546   5.385 -0.1008  0.2852 -0.1239
28711W        W42125   7.749  10.078  10.771 -0.1310 -0.1944 -0.0447
28712W        W42126   9.246  15.973  12.857 -0.0640 -0.0776  0.1544
28713W        W42127   9.849   0.846   5.995  0.0748  0.5204  0.0440
28714W        W42128  12.973  12.460   5.649 -0.0492  0.3062  0.0563
28715W        W42129   9.469  14.531  14.755  0.1400  0.0800  0.0050
28716W        W42130  15.021  17.056  16.362  0.0702  0.3599  0.4379
28717W        W42131   5.433   6.560   0.383  0.0420 -0.4111  0.0733
28718W        W42132   9.081  17.212   1.450  0.0041  0.0714 -0.0197
28719W        W42133  13.947   8.169   3.405  0.2909 -0.1269  0.0480
28720W        W42134   2.529  11.392   1.818  0.1797  0.2468  0.1691
28721W        W42135   5.617   2.176   5.496  0.0522 -0.1773  0.0442
28722W        W42136   0.746   9.170   0.399  0.2416 -0.0246 -0.0791
28723W        W42137  13.830   9.992  15.394  0.2400  0.1052 -0.1144
28724W        W42138   0.565  12.518  14.544  0.1387  0.2502  0.0489
28725W        W42139   4.069   1.060  10.714 -0.0603 -0.1202 -0.0482
28726W        W42140  13.815   9.227  15.987  0.0098 -0.0784 -0.0265
28727W        W42141   0.262   6.782   2.453 -0.0249 -0.2742  0.0084
28728W        W42142  11.726  17.570  10.607 -0.1234  0.0249 -0.1920
28729W        W42143  16.817   9.835   3.567 -0.1347  0.2931  0.0193
28730W        W42144  16.850  17.756   3.621 -0.2360  0.1602  0.1873
28731W        W42145   1.926  10.428  12.234  0.0677  0.0969 -0.0768
28732W        W42146   6.880   3.921   5.261  0.0361 -0.0745  0.0531
28733W        W42147  16.766   1.556   5.619  0.2656 -0.0840 -0.0770
28734W        W42148  10.748   7.626   2.588  0.1244 -0.1123 -0.1439
28735W        W42149   7.633   9.561   3.742 -0.2453 -0.0653 -0.2111
28736W        W42150  12.969  16.183  12.530  0.0059 -0.2037 -0.2163
28737W        W42151  15.868  14.561   4.507  0.0421  0.2806  0.0550
28738W        W42152  13.486   0.566   2.113 -0.0348 -0.1547 -0.0669
28739W        W42153  15.066  17.680   4.495 -0.1282 -0.2825  0.1656
28740W        W42154  16.437  10.630  14.957 -0.0646 -0.1632 -0.1153
28741W        W42155  14.582   7.502   5.769 -0.1005  0.0242 -0.1904
28742W        W42156  16.875   7.438   1.715  0.1371 -0.0669  0.1932
28743W        W42157  15.536  15.386   1.831 -0.1060 -0.0473 -0.1164
28744W        W42158   1.229   9.192  11.292  0.1039 -0.0759 -0.2054
28745W        W42159   5.719   7.833   2.917  0.0296 -0.1277  0.0784
28746W        W42160  10.545  12.767   2.353  0.2619  0.2799 -0.0417
28747W        W42161   6.090  12.332   3.206  0.0542 -0.0904 -0.1764
28748W        W42162  14.147   7.373   3.348 -0.1625 -0.0187 -0.0429
28749W        W42163   7.082   8.139  10.815 -0.1355 -0.2316  0.1306
28750W        W42164  13.594   4.983  11.307 -0.3906 -0.0713  0.2741
28751W        W42165   5.246   9.938  15.004 -0.3796 -0.0202 -0.1355
28752W        W42166   2.169   7.382  14.002 -0.0143  0.1491  0.0744
28753W        W42167   6.952   8.499  15.567 -0.1744  0.2931 -0.0757
28754W        W42168   7.924   9.805   6.354 -0.1363 -0.0341  0.3326
28755W        W42169  11.039   2.088  11.773  0.1951 -0.0932 -0.1161
28756W        W42170   8.318  17.708  14.248 -0.2406 -0.1098  0.1738
28757W        W42171   4.600   9.994   1.011 -0.5750  0.2367  0.1177
28758W        W42172  15.137  14.918  11.657  0.1316 -0.0193  0.0987
28759W        W42173   2.799   9.002   2.071  0.0310 -0.3715 -0.2038
28760W        W42174   6.493  13.777   1.982 -0.1292 -0.1664 -0.2503
28761W        W42175  12.873  10.795   1.992 -0.0686 -0.1088 -0.5525
28762W        W42176  12.332  14.481   4.419  0.0360 -0.0658  0.1245
28763W        W42177   2.513   6.156   0.632 -0.1544  0.1583  0.1102
28764W        W42178   4.106  10.444   3.747 -0.0951 -0.0116 -0.1182
28765W        W42179   3.615  10.512  15.998 -0.1127  0.0876  0.1128
28766W        W42180   0.885   8.851  12.512  0.0903  0.1308 -0.2747
28767W        W42181   8.363  18.033   3.867 -0.1373  0.0388 -0.1422
28768W        W42182   7.710   4.455  15.590  0.3047  0.0820 -0.0702
28769W        W42183  16.278   1.149   3.509 -0.1322  0.2130  0.1049
28770W        W42184  10.895  13.533  14.337  0.3893 -0.1203 -0.1943
28771W        W42185   7.873   6.756   2.740 -0.0979 -0.0098  0.0550
28772W        W42186   9.082   6.780   1.269  0.1580  0.3010  0.0843
28773W        W42187  15.525  16.738   4.046  0.0770  0.3097  0.0281
28774W        W42188  12.137   7.566   2.677  0.5881  0.1951 -0.2067
28775W        W42189  12.074   0.267  16.114  0.3491  0.0658 -0.1575
28776W        W42190   8.696   5.577  16.290 -0.0043  0.1806 -0.3797
28777W        W42191   1.441   2.954   2.882  0.0199  0.3082 -0.0723
28778W        W42192   2.144  17.394   0.269 -0.2400 -0.0121 -0.0053
28779W        W42193   5.779   6.786  11.523 -0.0140 -0.0205  0.2622
28780W        W42194   5.809   5.414   5.974  0.2831 -0.0216 -0.1101
28781W        W42195  15.985   2.627  15.223  0.2277  0.3506 -0.1920
28782W        W42196  12.860   0.175  12.896 -0.0096 -0.4249 -0.0960
28783W        W42197   2.770  13.086   3.957 -0.0325  0.0352 -0.0310
28784W        W42198   7.429   5.603   3.234 -0.1893 -0.1005 -0.0929
28785W        W42199   9.429   0.044  12.169 -0.0692 -0.0782 -0.1418
28786W        W42200  12.838  16.584  15.283  0.3110  0.3016  0.4564
28787W        W42201   4.871  13.600   4.177  0.1810  0.0944  0.0556
28788W        W42202   1.336   8.836   3.850  0.0886 -0.0574 -0.0552
28789W        W42203   2.027   5.941   2.564  0.0180 -0.0582 -0.0095
28790W        W42204   4.677   3.344  15.930  0.1599 -0.0257  0.0144
28791W        W42205  14.796  11.292   4.970  0.0190 -0.0972  0.2961
28792W        W42206  13.196  15.842   3.113  0.0357 -0.1419  0.0546
28793W        W42207  17.745  14.860   3.154  0.3019 -0.0396 -0.1768
28794W        W42208  15.071  11.435  14.659 -0.2771  0.3407 -0.1541
28795W        W42209   4.251  12.615   5.642  0.1140 -0.0086 -0.1060
28796W        W42210   2.440  14.301   5.286  0.0455  0.0782 -0.2102
28797W        W42211  16.500   9.504   0.872 -0.3007 -0.2251 -0.3337
28798W        W42212  17.232   7.108   6.752 -0.1732  0.0264  0.0463
28799W        W42213  14.213   9.619   5.064 -0.1597  0.3537 -0.0629
28800W        W42214  17.648  12.356   0.641  0.0974 -0.1174 -0.2555
28801W        W42215   4.991   7.390  13.787  0.3118 -0.0609  0.0508
28802W        W42216  11.954   1.567   3.293 -0.1184  0.2760 -0.1370
28803W        W42217   1.105  14.479  11.409 -0.0459 -0.0465  0.1519
28804W        W42218   9.490   8.709   2.934 -0.0111  0.3200 -0.1426
28805W        W42219   8.054   4.649  10.968  0.1328  0.1968  0.2218
28806W        W42220   0.626  14.735  14.417 -0.0710 -0.0928 -0.3138
28807W        W42221  12.998  15.741  16.348  0.0113  0.1030  0.2627
28808W        W42222  14.616  15.002  14.079 -0.2967  0.0141 -0.2521
28809W        W42223  12.570  13.407  10.046  0.2595 -0.1086 -0.0457
28810W        W42224   3.762  13.401  15.373 -0.3578  0.1081  0.2071
28811W        W42225  11.825  14.471  11.972 -0.1881 -0.2144 -0.0338
28812W        W42226   0.993  16.615   3.106 -0.0426  0.0360 -0.1066
28813W        W42227  11.025   3.433   5.855  0.2180 -0.1078 -0.0009
28814W        W42228  13.973   1.620  14.855  0.0895 -0.0165  0.2392
28815W        W42229  11.564   0.695  14.270 -0.0019  0.1372 -0.2335
28816W        W42230   0.614   8.751   5.084 -0.4057 -0.1050 -0.0838
28817W        W42231   2.351  15.963   0.386 -0.0991  0.0719  0.2707
28818W        W42232  14.158  14.537   1.497  0.1618 -0.0438  0.1112
28819W        W42233   2.020  11.566   1.539 -0.0103  0.0150  0.1967
28820W        W42234  17.685  12.896  12.782 -0.1397 -0.0508 -0.1587
28821W        W42235   8.669  12.054  16.540  0.0116 -0.0517  0.0185
28822W        W42236  11.629   6.829  10.855 -0.0668 -0.1747 -0.0401
28823W        W42237   9.373  14.450  10.956  0.1377  0.0612 -0.0022
28824W        W42238   3.739   8.916   0.327 -0.0539  0.3092 -0.2081
28825W        W42239   8.944  15.646  15.251  0.1277  0.2660 -0.0994
28826W        W42240  17.570  17.106  12.258  0.1249  0.0268  0.1296
28827W        W42241  15.096  10.370  14.580 -0.2438  0.1459  0.0263
28828W        W42242   2.334   4.543   1.310  0.1467 -0.2993  0.0531
28829W        W42243   8.503  15.568   5.120  0.0313  0.0305 -0.1461
28830W        W42244   0.454   0.031   3.105  0.0035  0.2387 -0.1220
28831W        W42245  13.371   2.791  12.715  0.0130  0.0609  0.0648
28832W        W42246  12.867   9.802   2.546 -0.1276  0.0026  0.2347
28833W        W42247   1.062  11.248   5.479 -0.0000  0.1229 -0.2563
28834W        W42248   0.497  13.531  13.668  0.2140 -0.3611  0.0115
28835W        W42249   8.486  14.193   3.413 -0.0879 -0.0773 -0.0843
28836W        W42250   5.667  15.733   1.262  0.0656 -0.0525  0.0437
28837W        W42251   1.373   3.601   4.714 -0.2456  0.1854  0.0516
28838W        W42252  16.859  11.395   0.049 -0.0670  0.0771  0.5097
28839W        W42253  16.626   6.896   4.237 -0.1662 -0.0275  0.1012
28840W        W42254   7.799   0.734  11.802 -0.0671  0.0648  0.0440
28841W        W42255   1.746   7.129  14.004  0.2971 -0.0402 -0.0277
28842W        W42256  13.262  11.999   3.505  0.1518 -0.1159 -0.0362
28843W        W42257   4.890  10.361   1.173 -0.0294 -0.3806 -0.1277
28844W        W42258   5.977  16.160  16.277  0.1266  0.0387  0.2240
28845W        W42259  17.560   4.194  11.969 -0.0119  0.2575  0.2903
28846W        W42260  15.260   7.721   6.090 -0.2739 -0.0005 -0.2473
28847W        W42261   5.250   0.811  11.505 -0.0700 -0.0478  0.1317
28848W        W42262  13.553   0.138   6.364  0.2633  0.0249 -0.2909
28849W        W42263  17.461  17.420   0.449 -0.1799  0.2454  0.2437
28850W        W42264   8.067  12.831   5.252  0.3044 -0.1737 -0.2004
28851W        W42265   5.771   6.961  12.813  0.1425 -0.2629 -0.2217
28852W        W42266  17.618  14.906  15.351  0.0596  0.1174 -0.2998
28853W        W42267  11.676  15.706  14.782  0.3698  0.3559  0.1627
28854W        W42268   6.186   1.574   0.193 -0.0585 -0.2961 -0.0161
28855W        W42269   2.081   6.956  11.377  0.1965 -0.1338 -0.1080
28856W        W42270  14.725  16.553  12.646  0.0730 -0.2832 -0.0732
28857W        W42271   2.467  17.135  15.612 -0.0914  0.2651 -0.0076
28858W        W42272  12.124  16.484   3.763 -0.1345 -0.1082  0.1996
28859W        W42273   7.298   5.334   1.858  0.0709  0.0080  0.2584
28860W        W42274   7.185  17.009   4.934  0.3669 -0.3664  0.3395
28861W        W42275   3.807  13.972  13.304 -0.0460 -0.1377  0.2720
28862W        W42276   1.412   0.155   0.932 -0.1932 -0.0219  0.0806
28863W        W42277  12.166  11.604   3.124 -0.2870 -0.0023  0.0246
28864W        W42278   7.581  17.057   2.984  0.0764 -0.0842  0.0057
28865W        W42279  15.469   6.220   0.581 -0.2079  0.4641 -0.3425
28866W        W42280   4.068   9.984  13.020 -0.1394  0.2023  0.2067
28867W        W42281   8.874  17.634   3.781 -0.0379  0.0965  0.4755
28868W        W42282   1.769  14.888   5.616 -0.0842 -0.0952  0.0037
28869W        W42283  12.707  14.911   4.445  0.0684  0.0846 -0.2938
28870W        W42284   0.443   3.208  11.982  0.1000  0.2296 -0.1777
28871W        W42285   1.144  13.684  15.312 -0.1247  0.2473 -0.2618
28872W        W42286   8.497   4.601  11.224 -0.0420  0.1388  0.0865
28873W        W42287   5.830   3.842   5.478 -0.0125 -0.2018 -0.0149
28874W        W42288   5.738   9.481   2.614 -0.1317  0.2404  0.1421
28875W        W42289  14.993   5.518   6.275 -0.0569  0.0930  0.0003
28876W        W42290  15.137  16.662  12.323 -0.0434 -0.3439  0.0588
28877W        W42291   5.901  16.657  15.959  0.1644 -0.0505 -0.1390
28878W        W42292   6.646  13.393  15.357  0.0005 -0.0087 -0.1434
28879W        W42293   3.226  15.760  11.265  0.2047 -0.0279 -0.0423
28880W        W42294  16.977  13.857  16.119 -0.0405 -0.3539  0.2613
28881W        W42295   1.198   3.289   1.229 -0.0523  0.0082  0.2310
28882W        W42296  17.899  12.093  13.098 -0.0440 -0.4315  0.1867
28883W        W42297   5.523   0.005   4.232 -0.1223 -0.2218  0.2213
28884W        W42298   2.664   9.654   5.012  0.1094 -0.1609  0.2983
28885W        W42299   7.095   7.082  12.252  0.2222 -0.0429 -0.3824
28886W        W42300   3.410   3.152   3.007 -0.0930 -0.0226 -0.2721
28887W        W42301  10.744  14.718  12.918  0.2988  0.0727  0.1305
28888W        W42302   8.538   8.425  11.761  0.2048  0.0681 -0.1073
28889W        W42303   1.643  11.218  14.452  0.1129 -0.3270  0.2714
28890W        W42304  11.194   9.490   4.462  0.0245  0.0095 -0.0953
28891W        W42305   4.176   5.062   4.969 -0.0578 -0.2632 -0.1580
28892W        W42306   3.829  16.712   5.171  0.1340 -0.1477  0.1120
28893W        W42307   0.472   3.041  16.590  0.2878 -0.1506 -0.1109
28894W        W42308  14.269  14.761   0.468  0.1047  0.1788 -0.1080
28895W        W42309  10.476  17.967  15.765  0.1526  0.0238 -0.1180
28896W        W42310   3.955  15.407   5.573 -0.0558  0.1361  0.1245
28897W        W42311   5.343   6.300  14.830  0.0592  0.3446 -0.0469
28898W        W42312   3.578   3.877   5.282  0.3824  0.1156  0.1477
28899W        W42313   1.564  14.905  11.994  0.3218  0.2968 -0.1421
28900W        W42314  15.448   8.503  11.450  0.2421  0.6063 -0.0678
28901W        W42315   5.991  13.895  12.881 -0.0958  0.2776  0.0083
28902W        W42316   4.085   5.105   1.306  0.0397  0.3619  0.3429
28903W        W42317   0.014   6.981  14.572 -0.1471 -0.2502 -0.1305
28904W        W42318  12.640   7.677   3.479  0.0180 -0.0763 -0.2508
28905W        W42319   4.466   2.933  10.770  0.2439 -0.4128 -0.0314
28906W        W42320  15.317  18.028   4.758 -0.3683 -0.1123  0.2877
28907W        W42321   4.320   8.303  10.914 -0.0841  0.2480  0.1707
28908W        W42322  15.371  12.081  11.741  0.0671 -0.0534  0.1153
28909W        W42323  10.880   9.992  15.466 -0.2236 -0.1827 -0.0340
28910W        W42324  18.004  12.511  13.330  0.1029  0.3861 -0.0607
28911W        W42325   0.531   3.987   0.889  0.1015 -0.0867 -0.0226
28912W        W42326  14.810  11.821   5.216 -0.1978 -0.2790 -0.2370
28913W        W42327  12.275  16.480  12.664 -0.0879 -0.2390 -0.1463
28914W        W42328  11.905  16.460   1.289 -0.2923 -0.0761  0.1637
28915W        W42329   1.464   7.851  15.769  0.2442  0.2828 -0.0647
28916W        W42330  14.344   4.038   4.346  0.1124  0.1914  0.1887
28917W        W42331   3.350   0.184   5.514 -0.1375  0.2358 -0.1595
28918W        W42332  16.905  12.222  16.188  0.1699  0.1435  0.1034
28919W        W42333  11.242   6.132  12.353 -0.0602  0.1098  0.0231
28920W        W42334  16.085   0.762  16.103  0.2371  0.1587 -0.0698
28921W        W42335  10.811  17.911  14.840 -0.0825 -0.0544 -0.2181
28922W        W42336  16.914   1.909  15.518 -0.1080 -0.2776  0.0659
28923W        W42337  14.841   8.622   4.382 -0.1232 -0.1461  0.3997
28924W        W42338  12.705  12.563   5.156 -0.2529  0.2335 -0.1322
28925W        W42339  15.573   1.077  16.608  0.3898  0.2718  0.1731
28926W        W42340   8.220   3.072  15.110 -0.1591 -0.1979  0.0184
28927W        W42341   4.669  17.697  15.201  0.2044 -0.1899 -0.0913
28928W        W42342   5.590   1.680  14.967  0.0768  0.1292 -0.1646
28929W        W42343  12.949  17.872  11.488 -0.0124 -0.4370 -0.0161
28930W        W42344  16.585  15.645  15.793  0.1561 -0.0566 -0.1677
28931W        W42345   7.620   2.951   2.477  0.1336 -0.0053  0.1588
28932W        W42346   4.444  13.519  15.388  0.0453  0.0853  0.0548
28933W        W42347   6.026   6.461  15.753  0.4399 -0.0984 -0.1811
28934W        W42348   9.601   1.574   4.806  0.3119 -0.5209  0.2555
28935W        W42349  16.812   2.993  14.789  0.0012 -0.1059  0.2670
28936W        W42350   5.168   0.095  11.425  0.1067 -0.0655 -0.0756
28937W        W42351  17.859   7.757   0.446  0.1200 -0.0474  0.2279
28938W        W42352  17.673  18.051   2.526 -0.1045 -0.0326  0.2686
28939W        W42353   8.963  11.738  13.231 -0.3340  0.3091 -0.1566
28940W        W42354   8.088  10.358  13.050  0.2313 -0.2547  0.1830
28941W        W42355   5.767   2.091   0.703  0.1937 -0.0263  0.0167
28942W        W42356  12.024  11.845  13.365 -0.1333 -0.0067  0.0833
28943W        W42357   1.474   6.627  16.630  0.0704 -0.2335  0.0116
28944W        W42358  10.227   6.267  14.632  0.0829  0.0650 -0.2170
28945W        W42359   9.814   6.452   5.049 -0.0233 -0.2479  0.1361
28946W        W42360   8.292  14.769   3.481  0.0722  0.1663 -0.1891
28947W        W42361   8.201   7.047   2.346  0.2473  0.0540  0.3381
28948W        W42362   1.341   1.059   3.770  0.1053 -0.0212  0.0709
28949W        W42363   0.405  15.728   5.770 -0.0681  0.1319 -0.2846
28950W        W42364   4.545   1.424  10.743  0.2115 -0.1055  0.0527
28951W        W42365   1.462  10.975  12.728  0.0731  0.1044 -0.1508
28952W        W42366   4.070   4.105  12.436 -0.1420 -0.0762 -0.0443
28953W        W42367   3.203  10.290   5.567  0.0722 -0.1991 -0.0801
28954W        W42368   0.515   8.311  15.429 -0.1648 -0.0572  0.2280
28955W        W42369  12.124  13.703  11.624 -0.1582 -0.0249 -0.3083
28956W        W42370  14.119   1.485   3.737  0.0377 -0.2044 -0.1654
28957W        W42371   2.084   5.286  11.888  0.0922 -0.0373 -0.0132
28958W        W42372   8.361  12.049   3.191 -0.2650 -0.0505 -0.0470
28959W        W42373   3.992   7.830  11.060 -0.2356 -0.4433  0.0511
28960W        W42374   5.778   7.353   0.376  0.0750 -0.2987 -0.1492
28961W        W42375  10.128  10.205  12.422  0.1314  0.3983 -0.1284
28962W        W42376   8.118   4.121   1.569  0.1188  0.1506 -0.0559
28963W        W42377  14.681   6.256   5.577 -0.0868  0.3020 -0.1016
28964W        W42378  12.096   7.339   1.759  0.1714  0.3172 -0.0888
28965W        W42379  11.584   9.753  11.524 -0.2710  0.1133  0.1639
28966W        W42380   9.186  12.705   0.355  0.3171 -0.1378  0.1825
28967W        W42381   2.593  17.599  12.430  0.0214  0.0056  0.1397
28968W        W42382  16.669   6.538  11.244 -0.2185  0.0241 -0.3023
28969W        W42383  13.895   3.174   2.741 -0.1553  0.2217  0.2717
28970W        W42384   3.931  10.381  14.455 -0.2696 -0.1503 -0.0599
28971W        W42385   6.914   1.451   3.599  0.0889  0.0260  0.0542
28972W        W42386   9.325   0.584   2.884 -0.0756 -0.1567 -0.1106
28973W        W42387   9.141   4.809  13.718 -0.1930 -0.1711 -0.0009
28974W        W42388   7.813  10.486  13.464 -0.3611  0.2072 -0.1933
28975W        W42389   2.809   4.797   4.960 -0.0814  0.1529  0.2520
28976W        W42390   4.203   8.255  15.607 -0.2120 -0.2669  0.0763
28977W        W42391   9.395   1.483   5.628  0.1122  0.2738  0.1356
28978W        W42392   8.007   4.517  11.462 -0.1657  0.1258  0.0742
28979W        W42393   1.527   4.893  14.817 -0.0460 -0.2775 -0.3252
28980W        W42394  13.936   4.192   6.043 -0.2273  0.1164  0.1445
28981W        W42395  11.402  15.758  11.650  0.0286 -0.1457 -0.0169
28982W        W42396  16.132  10.512   2.470  0.0665 -0.0445  0.2366
28983W        W42397   3.165   5.277  15.661  0.2017  0.1096 -0.3408
28984W        W42398   6.135  13.244  11.805  0.1271 -0.2782  0.2287
28985W        W42399  14.817   8.599   0.556 -0.2740  0.4060 -0.0392
28986W        W42400  10.500   1.438  13.690  0.0019 -0.0163 -0.0690
28987W        W42401   9.075  15.356  14.411 -0.0896 -0.1227 -0.0091
28988W        W42402  12.233  13.726  13.749  0.0573  0.0542 -0.0349
28989W        W42403   8.558   7.445   1.548  0.0085  0.3297 -0.0658
28990W        W42404   0.195  12.591  14.898  0.1969 -0.1407 -0.0836
28991W        W42405   8.142   8.256  12.198 -0.1006 -0.0141  0.0400
28992W        W42406  11.790   0.298  11.999  0.0055 -0.1783 -0.1275
28993W        W42407   2.518   9.369  16.565  0.1110  0.0330 -0.1097
28994W        W42408   5.189  16.181   3.109  0.0573  0.0156 -0.1184
28995W        W42409   2.520   3.435   0.975  0.0232 -0.0668  0.2370
28996W        W42410  16.443   1.556   2.444 -0.1056 -0.0597 -0.0285
28997W        W42411   8.417   0.994  11.095  0.1367  0.0468 -0.0147
28998W        W42412   8.048  17.683   0.076 -0.0905  0.0404  0.0572
28999W        W42413   8.967  15.986  16.662  0.0118  0.3391  0.0120
29000W        W42414   1.589  16.057   2.676  0.1019 -0.2029 -0.1297
29001W        W42415  13.825   5.007  16.666 -0.1242 -0.0262  0.0798
29002W        W42416  16.311   7.256   0.162 -0.1757 -0.0829  0.0007
29003W        W42417   9.430  14.587   3.899 -0.1517  0.1019  0.1918
29004W        W42418  12.237  10.784   4.604 -0.0181 -0.1206  0.2081
29005W        W42419  14.108  10.234   3.861 -0.1387  0.0481  0.1569
29006W        W42420  13.312   4.720   2.562 -0.3130  0.1974  0.1671
29007W        W42421  15.720  16.473   0.242  0.0918 -0.2215 -0.0433
29008W        W42422  16.216   8.657   0.522 -0.0250 -0.3876  0.0449
29009W        W42423  13.356   0.512   6.103  0.2124 -0.1086  0.0121
29010W        W42424  16.517  14.558   0.228 -0.0553 -0.4995  0.1838
29011W        W42425  16.612   5.311  16.143 -0.1474  0.0112  0.0643
29012W        W42426  16.359   9.555   0.344 -0.0812 -0.2322 -0.1277
29013W        W42427   6.263  10.346   4.415  0.1020  0.1430  0.0328
29014W        W42428   8.727   0.298  16.318  0.2064 -0.0380 -0.0763
29015W        W42429  13.043   1.801   3.094 -0.0484  0.1335 -0.0578
29016W        W42430  18.033  16.909  12.275 -0.3535  0.1756 -0.2829
29017W        W42431  14.858  12.977  16.044  0.0934 -0.0944 -0.0914
29018W        W42432   6.483  14.352   4.329 -0.0604  0.0248  0.2213
29019W        W42433   8.499  17.155  12.587 -0.1079 -0.0672  0.2071
29020W        W42434  17.739   3.090  14.242  0.2382 -0.2556  0.1202
29021W        W42435   7.911   2.772  15.359  0.3319 -0.1926  0.3304
29022W        W42436  11.561  11.164  10.646  0.0064  0.1853 -0.0134
29023W        W42437  10.863  13.036  12.712 -0.0576 -0.1090 -0.0857
29024W        W42438  12.696  11.198  13.562 -0.1114 -0.2628 -0.0693
29025W        W42439   8.150   7.133  13.691 -0.0762 -0.0590 -0.0658
29026W        W42440   5.205   8.898   4.461 -0.4528  0.4624 -0.2466
29027W        W42441   7.123  13.093  11.154  0.1196  0.1285 -0.2748
29028W        W42442  12.021   1.044   0.504  0.1316  0.2782  0.0524
29029W        W42443   9.146   9.003   6.309 -0.1878 -0.1528  0.0933
29030W        W42444  11.968  11.594  10.988 -0.0236 -0.2252  0.0873
29031W        W42445  15.965   4.612   2.840 -0.0168  0.1711  0.1122
29032W        W42446  15.020  10.904  11.739  0.1500 -0.1507 -0.2106
29033W        W42447  16.579   0.903   4.847  0.1385 -0.1625 -0.2979
29034W        W42448  14.377  15.761  16.550  0.0691 -0.4698  0.0543
29035W        W42449  12.014   7.520   4.955  0.1428 -0.1932  0.1740
29036W        W42450   5.709  10.253   3.065 -0.1257 -0.0150  0.0491
29037W        W42451   1.411   1.081   0.658  0.2819 -0.3361 -0.0118
29038W        W42452   1.643  12.686   1.006  0.0432 -0.2191 -0.0312
29039W        W42453  16.299   4.151  11.438 -0.0478 -0.0838  0.0483
29040W        W42454  14.354   4.577  13.346  0.1263  0.1026 -0.2054
29041W        W42455   4.695  12.635   1.440  0.3477 -0.1704 -0.1204
29042W        W42456  10.187  14.262  11.574  0.1523  0.1738 -0.1037
29043W        W42457   0.397  16.969  13.520 -0.0183  0.1970 -0.3909
29044W        W42458   8.762   5.912  14.195 -0.2922  0.2901 -0.2358
29045W        W42459   0.993   7.222   4.085 -0.0697 -0.3720 -0.0396
29046W        W42460   7.192  15.480  13.710  0.0910 -0.3092 -0.0947
29047W        W42461  17.722  11.670  12.884  0.0749  0.0734  0.0136
29048W        W42462   2.484  16.197  13.856 -0.1792  0.1125  0.2829
29049W        W42463   1.901  17.661  11.192  0.1148  0.3141  0.0783
29050W        W42464   7.154  11.394   2.678 -0.0892 -0.0989  0.1344
29051W        W42465  12.922   4.767  16.292 -0.1385 -0.0878  0.1173
29052W        W42466   4.001   5.586   1.409 -0.0568 -0.0055  0.1536
29053W        W42467  12.431  17.859  11.584 -0.1930 -0.0168  0.0850
29054W        W42468   1.242  12.384   4.581 -0.2767 -0.2712  0.0818
29055W        W42469   5.690  15.398  12.483 -0.1619 -0.0093  0.0388
29056W        W42470  10.117   9.514   5.526 -0.2922 -0.0423 -0.1069
29057W        W42471   1.615   3.635   0.264 -0.1647  0.0126 -0.0380
29058W        W42472  10.108  16.671   5.206 -0.1762 -0.0426 -0.3108
29059W        W42473  11.304  16.438   5.866 -0.0886 -0.1329 -0.3634
29060W        W42474   8.806   4.941  15.034  0.0547  0.1778 -0.1399
29061W        W42475  16.655  15.229  16.207  0.0835  0.1289  0.1697
29062W        W42476   4.512   9.239  13.971  0.0758  0.1905  0.1498
29063W        W42477  10.001   2.288   0.770  0.4031  0.1951 -0.1521
29064W        W42478   0.781  14.774  12.666 -0.3097 -0.0775  0.0604
29065W        W42479   4.031  10.350  11.398 -0.0587  0.2455  0.0074
29066W        W42480   7.439   3.551  15.518  0.3027  0.2890 -0.1615
29067W        W42481  14.762  13.545   2.228  0.0687 -0.0939  0.1129
29068W        W42482  13.865   6.837   5.409  0.0048 -0.1067 -0.0590
29069W        W42483   1.201  17.266   0.757  0.0220 -0.1694 -0.0289
29070W        W42484   8.578   4.482  10.780  0.1964  0.0243  0.0222
29071W        W42485  11.660  14.700  12.891 -0.1676 -0.0321  0.0233
29072W        W42486  11.992   2.366  11.063 -0.1416  0.1862  0.0443
29073W        W42487   1.841   7.020   3.271  0.0803  0.0334 -0.1602
29074W        W42488   8.303  15.856  10.476  0.0204  0.2897 -0.2138
29075W        W42489  17.079   7.701  11.601  0.2235  0.0237  0.2186
29076W        W42490  17.682   8.463   2.888  0.1264  0.4202  0.1128
29077W        W42491  13.799  17.689   3.077 -0.1889  0.3084 -0.2849
29078W        W42492  11.899   6.901   4.303  0.3076 -0.0466  0.1979
29079W        W42493  13.204   0.300  12.367 -0.0298  0.3230  0.1688
29080W        W42494   7.042   1.497  16.616  0.4415 -0.0044  0.1158
29081W        W42495   4.730   8.941  10.842  0.0138  0.4782  0.1314
29082W        W42496   7.425  10.887   2.573 -0.1176  0.0099  0.1711
29083W        W42497  11.970   8.586  14.928 -0.0359  0.1567  0.1095
29084W        W42498  12.588  17.929  10.503  0.1375  0.3036 -0.0345
29085W        W42499   1.502  16.098  13.605 -0.1264 -0.0874  0.0305
29086W        W42500   5.488   0.256   0.899  0.0416 -0.0623 -0.1200
29087W        W42501  10.749  12.521   1.963 -0.1739  0.1566 -0.3475
29088W        W42502  14.540  16.485   5.241  0.3283  0.1529  0.2944
29089W        W42503   7.072   6.205  16.557 -0.1742  0.5127  0.0610
29090W        W42504   8.489   7.392  14.029  0.1957 -0.1548 -0.0241
29091W        W42505  13.445  15.467  16.455 -0.2401 -0.3558 -0.0039
29092W        W42506  11.886  17.280  15.828 -0.0238 -0.1265  0.2582
29093W        W42507   0.535   8.756   0.663  0.2846 -0.3120  0.0423
29094W        W42508  15.989  14.684   6.045  0.3193  0.0008 -0.0210
29095W        W42509   9.727   5.671   1.852  0.2804  0.1182 -0.2173
29096W        W42510   8.265   7.980  11.144  0.0147  0.1258 -0.0927
29097W        W42511  11.223  12.306  10.070  0.0446 -0.0920 -0.1270
29098W        W42512   6.623   4.599  12.166 -0.0568  0.0342 -0.2651
29099W        W42513  11.491   2.796  14.447 -0.0016  0.0072 -0.1976
29100W        W42514   9.284  14.787   5.112  0.0308 -0.3154 -0.0622
29101W        W42515   6.738   2.023   1.955  0.3519 -0.0992 -0.2930
29102W        W42516   0.713   5.539   4.337  0.0055 -0.3811  0.0245
29103W        W42517   8.078   3.079   1.601 -0.1963  0.2496 -0.2020
29104W        W42518   5.396   2.731  14.867  0.0372  0.0740 -0.0014
29105W        W42519  17.281   1.970   0.216 -0.0640 -0.0419 -0.1491
29106W        W42520   8.248   2.106  12.686  0.1609 -0.1174  0.2059
29107W        W42521   8.481  11.472  11.668  0.0191  0.0605  0.1297
29108W        W42522   6.983   3.028   5.799  0.0054  0.1139  0.0549
29109W        W42523   6.633  10.833   2.068  0.2416  0.4225 -0.5492
29110W        W42524   3.691  10.430   3.052  0.0726 -0.2797 -0.2034
29111W        W42525  14.138  12.365  12.044  0.0162 -0.3330 -0.1181
29112W        W42526  10.565  15.539  11.928  0.0749  0.4160 -0.1828
29113W        W42527   2.539  16.114  12.206 -0.1286 -0.3201  0.0761
29114W        W42528   4.189  14.621   5.781  0.1368 -0.1166  0.1698
29115W        W42529  12.013   8.534   2.956 -0.2329 -0.2500  0.0322
29116W        W42530   7.308   3.586  13.230  0.1696 -0.1015  0.2623
29117W        W42531  15.841   4.747  16.294  0.2584 -0.0485  0.1790
29118W        W42532   8.340   7.448  11.219  0.2259 -0.0526 -0.0062
29119W        W42533  13.303   2.547   0.007 -0.1066  0.1272  0.0761
29120W        W42534   1.027  16.239  12.529 -0.2271  0.1589 -0.2655
29121W        W42535   7.980  11.044  15.488 -0.0761  0.0007  0.4246
29122W        W42536  13.847   4.230   5.186  0.0122  0.2965  0.0520
29123W        W42537  12.095  16.927   4.082  0.1828 -0.0937 -0.2121
29124W        W42538   3.922   1.403   1.855  0.2017  0.0325  0.1388
29125W        W42539  15.850  11.856  15.325 -0.1519  0.1404 -0.1824
29126W        W42540   3.951   8.451  13.633 -0.1234  0.0743  0.1078
29127W        W42541   6.754  17.556   3.097  0.0330  0.4065 -0.1458
29128W        W42542  15.058   4.742  11.440  0.1783 -0.1369  0.0773
29129W        W42543   4.420  12.100   0.787  0.0357  0.1368  0.0543
29130W        W42544  10.846  10.290   3.229 -0.0491  0.3058  0.1671
29131W        W42545   8.194  10.528   0.013 -0.0559 -0.3415  0.1222
29132W        W42546   1.956  10.271   5.083  0.0446  0.3009  0.2010
29133W        W42547   0.189   9.643   4.346  0.0744  0.0452 -0.1845
29134W        W42548   3.940   1.843  13.746 -0.0392 -0.2920 -0.1332
29135W        W42549   8.739   4.158  11.249  0.0071  0.0381  0.3925
29136W        W42550  11.040  15.582  16.547 -0.0777 -0.2169 -0.0568
29137W        W42551   4.322   1.668   2.719  0.0078 -0.0440  0.0713
29138W        W42552  14.016  14.064  11.864 -0.1550 -0.0035 -0.2873
29139W        W42553   1.769   3.306   6.715  0.0600  0.1221  0.0356
29140W        W42554   7.183  14.365   4.825  0.0623 -0.1406 -0.2213
29141W        W42555  15.757  17.908  11.545  0.0815  0.1105 -0.1152
29142W        W42556  10.815   5.136  16.002 -0.0948  0.0497 -0.0239
29143W        W42557  10.464  17.412  12.542 -0.2009  0.0216 -0.0897
29144W        W42558   2.814   8.679   0.649 -0.1202 -0.0094 -0.2672
29145W        W42559   4.058   5.954   6.045  0.0368 -0.0058 -0.0791
29146W        W42560  13.794  12.089  15.427  0.1207  0.0253 -0.0025
29147W        W42561   2.683   3.041  11.375 -0.0568  0.0787 -0.2077
29148W        W42562   9.707   8.314  11.498  0.1976  0.1731  0.0194
29149W        W42563   6.885   3.396  14.647  0.2336  0.1014 -0.0033
29150W        W42564  14.855   3.737  12.668 -0.1145  0.2881 -0.2126
29151W        W42565  15.139   9.237   2.639 -0.1978 -0.0312  0.1586
29152W        W42566  15.085   5.327  13.036 -0.0479 -0.2104 -0.1224
29153W        W42567   4.837   6.279  13.063 -0.4709 -0.0490 -0.2957
29154W        W42568  13.088  11.835   1.751  0.1284  0.1717 -0.1830
29155W        W42569   3.213   0.397   4.282  0.0065  0.1656  0.1461
29156W        W42570  13.520   3.938  13.519 -0.0267 -0.0343 -0.1939
29157W        W42571  11.273   9.543   0.806 -0.2172  0.2274  0.0558
29158W        W42572   6.696   2.025  15.606  0.2199 -0.3001  0.0725
29159W        W42573   6.213   7.475  16.586  0.2243  0.1409  0.2341
29160W        W42574   3.410  17.717  13.239  0.1897  0.1260  0.0788
29161W        W42575   7.621   4.421  10.350 -0.0596  0.0433 -0.0737
29162W        W42576   6.872  14.816   4.946 -0.2227 -0.3014 -0.1480
29163W        W42577  10.029   4.651  11.724  0.1234  0.1499  0.0861
29164W        W42578   3.178   2.628   3.929 -0.2329  0.4629 -0.2415
29165W        W42579  11.902   3.692  15.202 -0.0766 -0.0148 -0.0898
29166W        W42580  10.267   0.954   3.099 -0.0603  0.0693  0.0313
29167W        W42581  10.467  16.050  12.063  0.0058  0.3086  0.0935
29168W        W42582   5.649  17.971   3.710  0.0206  0.0657 -0.2249
29169W        W42583   9.018   5.458   1.200 -0.1248  0.1488 -0.2916
29170W        W42584  14.732   8.174  16.416  0.2284  0.0840  0.0998
29171W        W42585  14.675  12.985   3.976 -0.0473  0.0691  0.2547
29172W        W42586   4.791   7.695  12.684  0.1979  0.1220  0.0477
29173W        W42587  12.305  16.600  13.273 -0.0601  0.3143  0.0254
29174W        W42588  15.188  12.597   3.386 -0.0045  0.0736  0.0269
29175W        W42589   1.773   1.108  16.127 -0.1985 -0.0662 -0.0487
29176W        W42590   9.632   5.324   0.132 -0.1506  0.2399 -0.0347
29177W        W42591   8.715   8.342   3.560  0.2099  0.4974  0.0853
29178W        W42592  12.064   3.152  10.719  0.2206  0.0616 -0.0081
29179W        W42593   7.040   0.710   1.001  0.1511 -0.4441 -0.0963
29180W        W42594   6.378  13.079  12.207 -0.0021  0.0697  0.0007
29181W        W42595   2.597   8.212  16.541 -0.3691 -0.1411 -0.0522
29182W        W42596   1.970   1.077  11.125 -0.2108  0.1110 -0.1207
29183W        W42597   9.632   2.449   0.466 -0.3446  0.0276  0.1203
29184W        W42598  11.465  17.313   6.256 -0.4535  0.0768 -0.1048
29185W        W42599   6.937  10.552   3.742  0.0084 -0.1570  0.0612
29186W        W42600   9.166  17.792  14.238 -0.2649  0.0874  0.1144
29187W        W42601  15.115  10.791  11.289 -0.0329  0.0475 -0.0386
29188W        W42602  10.238   1.297   1.211  0.0364  0.1443  0.0872
29189W        W42603  15.776  13.536  11.184  0.2519 -0.0832 -0.0803
29190W        W42604   8.681   3.186  13.068  0.0556 -0.3963 -0.0703
29191W        W42605   1.992   6.988   2.160  0.1428  0.0619  0.0709
29192W        W42606   1.670  13.123   2.318 -0.0226  0.0216 -0.3761
29193W        W42607   5.525   5.768   4.552 -0.0110  0.0865 -0.1015
29194W        W42608   4.219  16.835  13.791  0.4082  0.0270 -0.1068
29195W        W42609  15.549   0.102  14.659 -0.1687 -0.1318 -0.0112
29196W        W42610   8.394   2.113   5.044  0.1737 -0.0485  0.0767
29197W        W42611  13.272   1.236  13.684 -0.4736 -0.0691  0.1518
29198W        W42612   6.489   0.744   2.923  0.0252  0.0432  0.1271
29199W        W42613  13.624  17.181   2.900  0.3904 -0.1772 -0.2637
29200W        W42614  10.127  14.672   0.411  0.0919 -0.0967 -0.2354
29201W        W42615   1.455   1.749   4.501 -0.3512 -0.2258 -0.0435
29202W        W42616  11.846   0.954  10.588  0.0865 -0.1664 -0.0266
29203W        W42617   0.581   6.814   0.032  0.1412 -0.1197 -0.1789
29204W        W42618  12.871   6.964  16.492  0.1554  0.1965 -0.0770
29205W        W42619  13.710   1.103  13.353  0.1357  0.3203 -0.1973
29206W        W42620   7.585   0.218   1.587 -0.0249  0.1675 -0.2909
29207W        W42621   5.811   2.062   2.248 -0.0809 -0.3634 -0.0548
29208W        W42622   7.032   0.313   0.628  0.0723 -0.1687 -0.1005
29209W        W42623  14.726   2.312   5.777 -0.1721  0.0898  0.0362
29210W        W42624   0.799  10.489  13.451 -0.0224 -0.1411 -0.1728
29211W        W42625   4.763   5.728   3.902 -0.0760 -0.6135  0.2543
29212W        W42626   4.067  10.108   0.739 -0.0549  0.1238  0.1908
29213W        W42627  10.670   5.217  13.304  0.2502 -0.1513  0.0286
29214W        W42628  16.705  13.321   2.842 -0.2113 -0.0818 -0.1766
29215W        W42629  10.220   5.239   4.877  0.2766 -0.3710  0.1588
29216W        W42630   5.930  14.134  15.582  0.2818 -0.0979 -0.3727
29217W        W42631  17.966  12.594   4.675 -0.2196  0.0930 -0.3658
29218W        W42632   6.272  16.462  13.451  0.1679 -0.0346  0.1354
29219W        W42633  17.003  11.257   1.390 -0.1926  0.2077 -0.0047
29220W        W42634  12.535  16.123   3.844  0.0663 -0.0809  0.0832
29221W        W42635  10.329  12.513  12.894  0.2195 -0.2061 -0.1346
29222W        W42636  16.513   3.960  13.274 -0.2103 -0.0797 -0.0512
29223W        W42637  10.578   9.237  14.418  0.0904 -0.1637 -0.1261
29224W        W42638  10.338   4.911  13.088  0.0696  0.3090 -0.0742
29225W        W42639   3.010  15.224   4.452 -0.0997  0.1079  0.3137
29226W        W42640  17.921  15.230  12.012  0.1269  0.1813  0.2216
29227W        W42641   0.006   8.683   0.460 -0.0896 -0.0677  0.1318
29228W        W42642  12.317  16.507   4.994  0.0598 -0.1439  0.0752
29229W        W42643  14.428   0.298  10.909  0.1033 -0.3211  0.1774
29230W        W42644  15.309   7.225   2.342  0.1349  0.0368  0.0206
29231W        W42645  16.646   7.006  14.660 -0.0094  0.1213  0.0518
29232W        W42646   5.416   5.116  12.737  0.2301 -0.2006  0.1041
29233W        W42647   9.484  14.396   2.184 -0.2726 -0.0769  0.1154
29234W        W42648   2.786   2.078  15.900  0.1196  0.0002 -0.2130
29235W        W42649   9.665   9.001   3.550  0.1663 -0.1982  0.1144
29236W        W42650   5.966  11.657   5.798  0.2213  0.3316 -0.3242
29237W        W42651   9.807  11.697   5.739  0.2190  0.2176 -0.1880
29238W        W42652   3.721  17.350  13.626 -0.1558 -0.0740  0.3350
29239W        W42653  16.542  15.040   0.297 -0.0111  0.0014 -0.1653
29240W        W42654   8.842  15.335  12.366  0.0855 -0.0480 -0.2080
29241W        W42655   2.255  14.551  10.806  0.0371  0.2815  0.0075
29242W        W42656  14.004   9.169   3.381 -0.1317 -0.1323  0.0353
29243W        W42657  12.841  15.556  11.657  0.1359  0.1695  0.2234
29244W        W42658  16.781   3.112   2.282 -0.0669 -0.1188  0.4655
29245W        W42659   7.920   0.707   1.991 -0.0685 -0.1664  0.2863
29246W        W42660  13.726   9.609   6.758 -0.1727  0.2342 -0.1897
29247W        W42661   7.939   5.625  12.172 -0.2408  0.3109  0.0506
29248W        W42662   7.763  10.921   5.555 -0.4121 -0.1722 -0.0615
29249W        W42663  15.173   9.333  15.741  0.0638 -0.0126  0.0861
29250W        W42664  15.374   6.975  14.591 -0.1147  0.0141 -0.1969
29251W        W42665   5.076   3.790  16.086  0.2250  0.1233 -0.0303
29252W        W42666  16.289   3.049  14.655  0.1233 -0.2600 -0.0027
29253W        W42667  11.645  16.680   3.113  0.1475  0.0600  0.0922
29254W        W42668  14.183   3.264   5.457 -0.4640 -0.2972 -0.3337
29255W        W42669   3.541  14.996   1.413  0.0904  0.1965  0.0624
29256W        W42670   9.467  14.266  12.736 -0.1912 -0.3270  0.1809
29257W        W42671  12.922  10.874   3.248  0.0149  0.1617  0.0370
29258W        W42672  14.869  14.443  11.661 -0.1545 -0.2583 -0.0559
29259W        W42673  10.824  14.528  14.571  0.2631 -0.0427 -0.0406
29260W        W42674   7.655  10.923  11.995 -0.0522 -0.0459  0.1038
29261W        W42675   3.720  12.227   5.014 -0.2215 -0.1578 -0.0382
29262W        W42676  14.683  15.044  15.765 -0.4380  0.3135 -0.0619
29263W        W42677  12.753   6.255   2.709  0.0748 -0.0362  0.1550
29264W        W42678  14.066   6.197   4.747  0.0635  0.1578 -0.2293
29265W        W42679  10.503  11.593   5.340  0.0615  0.0174  0.1155
29266W        W42680   1.904   1.611  15.872  0.0079 -0.1176  0.0865
29267W        W42681  16.681   3.786   4.018  0.0376 -0.2868  0.1673
29268W        W42682  16.760  18.040  14.710  0.2126 -0.1263 -0.0685
29269W        W42683   3.618  11.517  15.098  0.1712 -0.1410 -0.1818
29270W        W42684  15.916   6.605  13.015  0.0232  0.0666  0.1886
29271W        W42685   3.192  10.861   4.685 -0.1273 -0.0965 -0.0773
29272W        W42686   5.625  13.791  15.768 -0.0180 -0.2256  0.2488
29273W        W42687  15.415   5.822   0.898 -0.0716 -0.2254  0.5503
29274W        W42688   5.581   7.324  14.572 -0.0146 -0.1455 -0.0493
29275W        W42689  12.209  15.931  14.612 -0.0566  0.0591 -0.2100
29276W        W42690  17.460   0.976  16.028 -0.3204 -0.0446 -0.2715
29277W        W42691  12.786  12.885  14.629  0.0341  0.0817  0.3005
29278W        W42692   0.961   7.080  15.449  0.0075  0.0086 -0.2604
29279W        W42693  17.305  15.197   4.393 -0.0899 -0.1128 -0.0914
29280W        W42694   0.991  13.276  12.676  0.0496  0.1650  0.1079
29281W        W42695   1.706  13.014   1.340 -0.0018  0.2981 -0.0747
29282W        W42696  10.579  11.223   4.819 -0.1893  0.0342 -0.3270
29283W        W42697   1.316   9.331   4.531  0.0479  0.2201  0.1812
29284W        W42698  12.550  12.151   4.858  0.4464  0.0477 -0.0271
29285W        W42699   3.258  14.705   0.630  0.0060 -0.0896 -0.0584
29286W        W42700   3.289   2.066   1.967 -0.1225 -0.0080  0.0308
29287W        W42701   3.709   3.491  16.305  0.3296  0.0666 -0.3684
29288W        W42702  14.055   4.286  12.771 -0.0141  0.2397 -0.0744
29289W        W42703  13.002  13.995  11.648  0.0691 -0.5177 -0.2020
29290W        W42704   8.442  11.930  15.454  0.3255 -0.0177  0.1843
29291W        W42705   5.426   0.806  14.309  0.0899 -0.2226  0.1788
29292W        W42706  17.042   5.343   1.847  0.2424  0.1195 -0.1927
29293W        W42707   0.261  17.400   4.438  0.1286 -0.1409  0.1122
29294W        W42708  15.274   0.771   1.868 -0.2557 -0.1136 -0.3578
29295W        W42709   6.815  13.576   5.204 -0.0155  0.0826 -0.1107
29296W        W42710  17.536   4.152   5.071 -0.0327  0.0255  0.0893
29297W        W42711   7.505  14.715   4.567 -0.2640 -0.4952  0.1300
29298W        W42712   8.605  15.764  12.170  0.1761  0.1585  0.2578
29299W        W42713   3.048   2.713  13.095 -0.0402 -0.1809  0.2658
29300W        W42714   3.696   4.921   2.165 -0.0101 -0.1674  0.1912
29301W        W42715   2.636   7.008   4.922  0.0546  0.2290  0.1967
29302W        W42716  14.419   0.380  14.130  0.0352 -0.2207 -0.1604
29303W        W42717  16.639   1.418  14.095  0.1650  0.1581  0.1963
29304W        W42718   5.338   2.701  15.865  0.1331 -0.0806 -0.1079
29305W        W42719  16.305   9.282  14.050 -0.5189 -0.4397 -0.1919
29306W        W42720   0.365   6.200  16.430  0.2531 -0.0598  0.0980
29307W        W42721  10.368  16.858  11.718  0.1596  0.0071  0.0878
29308W        W42722  17.224   5.556   5.123  0.0844  0.3521 -0.0184
29309W        W42723   1.470   0.420   1.889  0.0839 -0.0437 -0.1022
29310W        W42724  16.705  12.778   2.774  0.2547 -0.1212  0.1764
29311W        W42725  17.350   4.165  15.196 -0.0241 -0.0938  0.0864
29312W        W42726  14.610  13.435  12.004  0.1801 -0.2182  0.1921
29313W        W42727  16.994  15.677   2.199  0.3929 -0.3525 -0.0270
29314W        W42728  15.716  11.120   5.923 -0.1460  0.2428  0.2813
29315W        W42729   0.522  17.745  14.621  0.0374  0.0181 -0.0214
29316W        W42730   7.973   1.963  14.364 -0.3404 -0.2219  0.0677
29317W        W42731  17.926   2.461   6.011 -0.2177 -0.2720 -0.1205
29318W        W42732   1.156  15.454  12.450 -0.1574 -0.3144  0.1495
29319W        W42733   6.776  10.772  12.999  0.2727  0.3013  0.0606
29320W        W42734   5.626   4.892   2.532  0.0668  0.1281  0.0862
29321W        W42735   9.364  11.097  14.280 -0.2798 -0.1217 -0.0309
29322W        W42736   9.928  13.129   2.580  0.1449 -0.3272  0.1406
29323W        W42737  12.842  12.739  16.438 -0.0550  0.3413  0.0056
29324W        W42738  17.085  12.576   4.954 -0.0101 -0.3908 -0.2154
29325W        W42739   0.140   2.394  13.277 -0.3582 -0.1787  0.2858
29326W        W42740   5.374   8.977  16.281 -0.0899  0.0763 -0.2370
29327W        W42741   1.325   2.937   2.364  0.1311 -0.1239  0.0089
29328W        W42742   7.873  11.887   4.891 -0.5084 -0.2408 -0.0810
29329W        W42743  15.376   5.446   6.738  0.2274  0.1165  0.1397
29330W        W42744  17.042   1.000   4.573  0.1072  0.0571 -0.0347
29331W        W42745  15.523   0.795   1.445 -0.1696 -0.3986  0.0690
29332W        W42746  17.252  13.497  11.296 -0.3885  0.0195 -0.1418
29333W        W42747   1.233  11.395  10.649  0.2130  0.1245  0.0385
29334W        W42748   7.094   2.780   2.399 -0.0155 -0.0732 -0.1443
29335W        W42749   4.701  12.484   0.555 -0.2218  0.1159 -0.0824
29336W        W42750  10.943   1.783  12.194 -0.2719  0.1954 -0.0044
29337W        W42751   9.421  11.720   4.400  0.1010  0.0249 -0.0769
29338W        W42752   4.781  14.412   0.110  0.2139 -0.0900 -0.0822
29339W        W42753  11.260  16.346   5.322 -0.0327  0.3035 -0.1647
29340W        W42754  10.946   8.722  15.407  0.2451  0.1084 -0.0670
29341W        W42755   5.328  17.970  13.843  0.1088 -0.1144 -0.1301
29342W        W42756   7.949   0.075  14.387 -0.1731 -0.2157 -0.0210
29343W        W42757   7.467  17.356  10.732 -0.0741  0.1179  0.1542
29344W        W42758   3.049   6.291  16.533  0.0477 -0.0097 -0.0031
29345W        W42759   3.845   3.932  13.641  0.1119 -0.1565  0.3208
29346W        W42760   5.412   1.255   5.366  0.0042 -0.0854  0.0694
29347W        W42761   3.828   2.733  11.898  0.0478  0.0524 -0.1135
29348W        W42762   7.194   8.804   1.845  0.2447 -0.1396  0.1587
29349W        W42763  11.003  14.025  16.453  0.1793 -0.1279  0.1573
29350W        W42764   7.179  14.808  10.684  0.0184  0.1498 -0.2913
29351W        W42765   2.534   5.362   2.873 -0.0221 -0.1238 -0.1606
29352W        W42766   1.902   7.678   0.986  0.0508  0.1008 -0.1613
29353W        W42767  10.151   8.192  15.468 -0.0933  0.0597 -0.0485
29354W        W42768   4.975  18.051  13.490 -0.0185  0.0649 -0.2503
29355W        W42769   7.509  10.134   5.829  0.0538 -0.0113 -0.0202
29356W        W42770  16.771   3.826  11.514  0.1941 -0.0348 -0.0628
29357W        W42771  16.331   0.420  16.652  0.2507 -0.0181 -0.0476
29358W        W42772   6.991   8.940  13.715  0.1209  0.0278  0.3696
29359W        W42773   7.655  11.356   2.845  0.0522  0.0563  0.1547
29360W        W42774   9.746   6.948  15.360 -0.0161  0.1395 -0.0555
29361W        W42775   1.907   1.788   1.963  0.0269 -0.0573  0.1842
29362W        W42776   2.033  10.715  10.700 -0.0180  0.2746 -0.0780
29363W        W42777  12.271   7.518   2.186 -0.1110 -0.4185 -0.1220
29364W        W42778  12.752  10.369   2.321 -0.0799 -0.1578  0.1564
29365W        W42779  14.481  16.662  12.159 -0.3062 -0.1279 -0.1354
29366W        W42780   0.357   0.526   3.652  0.3013 -0.0746 -0.0652
29367W        W42781   9.575   3.963   1.891  0.0899  0.0625 -0.1389
29368W        W42782  15.879   7.118   6.201  0.0387 -0.0687  0.1276
29369W        W42783   9.038   6.082  16.560  0.2700  0.1416  0.0397
29370W        W42784   3.532   7.763   5.711  0.0041  0.0144  0.0824
29371W        W42785  16.573  11.214  11.256 -0.0146  0.2546  0.3189
29372W        W42786   2.245  16.258  16.139  0.3384  0.1642  0.2859
29373W        W42787   7.694   1.759   5.731 -0.2002  0.1652 -0.0864
29374W        W42788   6.256   6.096  13.520  0.2525 -0.1920  0.2918
29375W        W42789  13.982  15.733  12.458  0.0226  0.1813  0.0343
29376W        W42790   9.553  16.522  13.544  0.0466 -0.3719  0.1851
29377W        W42791  16.155   2.589   2.767  0.1388 -0.0823 -0.0545
29378W        W42792   4.126   5.851   0.964 -0.0182  0.0159  0.3684
29379W        W42793  17.581   3.254   0.821 -0.1665  0.1733  0.0020
29380W        W42794   7.022  16.599   0.487 -0.1601 -0.0387  0.0346
29381W        W42795   0.204  11.472   0.318  0.0896  0.1623 -0.0274
29382W        W42796   2.676   7.658  14.088 -0.2811  0.1047 -0.0833
29383W        W42797   5.974   6.729  15.222  0.0063 -0.0496  0.0167
29384W        W42798  11.017   6.632   2.352 -0.2194  0.2012 -0.3183
29385W        W42799   8.764   1.612  12.800  0.0275  0.5280 -0.1266
29386W        W42800   2.154   6.357  12.182 -0.1856 -0.0219  0.2840
29387W        W42801   9.183  16.152   2.964  0.0363 -0.0827 -0.3330
29388W        W42802  14.053   9.023   2.883  0.2769  0.1039  0.0360
29389W        W42803  12.583  12.988   1.126 -0.2498 -0.2751  0.2034
29390W        W42804   2.402   0.856   3.387  0.1183  0.3142 -0.2001
29391W        W42805  17.364  10.790  11.478 -0.0928  0.1155 -0.0473
29392W        W42806   5.379  17.035   3.973  0.0242  0.0662 -0.3513
29393W        W42807  10.534   1.730  12.449 -0.1698  0.2209 -0.1034
29394W        W42808   7.073   5.752  10.838  0.0400  0.0566  0.2897
29395W        W42809  15.175   0.043   2.442  0.0129  0.2410 -0.0043
29396W        W42810   4.377   7.891   5.454 -0.1652 -0.0501  0.2034
29397W        W42811   5.230  12.403  14.847 -0.1157 -0.4013 -0.2700
29398W        W42812   3.504  11.154   4.903  0.0143 -0.0984  0.1123
29399W        W42813   0.399   9.026  13.618  0.0935  0.0012  0.1613
29400W        W42814  13.649   2.589   0.451 -0.3157  0.1180  0.0596
29401W        W42815   4.939   9.827   0.594 -0.0201  0.3251  0.1894
29402W        W42816   9.119   8.362  13.143 -0.2407 -0.1704  0.2826
29403W        W42817   2.867   8.085  11.764  0.1368  0.0040  0.0225
29404W        W42818   8.640   5.709  10.505 -0.2770 -0.1646  0.0704
29405W        W42819  16.303   3.313  14.195  0.0734  0.1774  0.1840
29406W        W42820   2.349   2.852  11.012  0.0317  0.1571  0.3200
29407W        W42821  15.290  10.120   2.079 -0.0168 -0.2315  0.2371
29408W        W42822   4.524   9.596  11.616  0.0597  0.1723  0.0485
29409W        W42823  14.630   1.000  16.682  0.2003 -0.2565  0.0905
29410W        W42824   2.474  12.813   0.005 -0.1851  0.4273 -0.0841
29411W        W42825   3.741   6.342   3.415  0.2311 -0.2578 -0.1952
29412W        W42826   6.002  11.599  13.399  0.3401  0.0404 -0.0343
29413W        W42827  15.750  15.658  11.597 -0.1139 -0.1847 -0.1861
29414W        W42828  17.909   4.646   0.881  0.2158  0.1479  0.2512
29415W        W42829   6.502  12.431  14.457 -0.1204  0.0481  0.0067
29416W        W42830  13.061   9.179  13.819 -0.3198 -0.0496 -0.0351
29417W        W42831   5.822  12.807  13.916  0.0010 -0.0510  0.1568
29418W        W42832   8.931  14.298   3.304 -0.2538  0.1355 -0.0229
29419W        W42833   0.431   0.032  12.780 -0.0675  0.2082 -0.0572
29420W        W42834   1.370  16.641  12.612  0.2081 -0.1536 -0.1063
29421W        W42835  12.667  13.940   2.912 -0.2585  0.0633  0.0469
29422W        W42836   9.746   1.069  12.584 -0.2194  0.1234 -0.1217
29423W        W42837   1.829   1.694   6.572 -0.2568 -0.2263 -0.1144
29424W        W42838   5.095  11.138   6.117 -0.2281  0.1357 -0.2535
29425W        W42839  15.549   8.548   1.296  0.0034  0.1511 -0.1792
29426W        W42840   7.994   7.020  15.723  0.0652 -0.0472  0.1458
29427W        W42841   6.957  13.075  11.620 -0.2039  0.2088  0.2253
29428W        W42842   8.662  16.273   1.952 -0.0371  0.1029  0.1078
29429W        W42843   7.682  11.189  11.214  0.0230 -0.1412 -0.0912
29430W        W42844   5.049   2.431  16.220 -0.0537  0.0899  0.1496
29431W        W42845  17.475   5.744   0.071  0.0771 -0.0090  0.1736
29432W        W42846  11.195  13.657  16.194 -0.1467 -0.0769  0.0197
29433W        W42847   7.715  12.523   3.740  0.0982  0.1626 -0.0585
29434W        W42848   3.783   4.392   0.688 -0.0316  0.3307 -0.2390
29435W        W42849   7.436   1.902  13.124 -0.1805  0.2991  0.2875
29436W        W42850  12.577   1.653   4.119 -0.3808 -0.2368  0.2047
29437W        W42851  14.282   4.982  16.538 -0.0141 -0.1980 -0.1580
29438W        W42852  11.380   8.697   5.588  0.1231 -0.0281  0.0552
29439W        W42853   0.508   1.057   3.348  0.0582  0.1483  0.0885
29440W        W42854  17.837  15.508  13.158 -0.1366 -0.0014 -0.1360
29441W        W42855   5.497  17.153  11.016 -0.1389  0.1017 -0.2110
29442W        W42856   1.168  11.981   0.360  0.0485 -0.2962  0.2880
29443W        W42857  11.451   8.565  14.981  0.0584  0.0694 -0.1893
29444W        W42858   8.110   9.867  16.246  0.1275 -0.1708  0.0691
29445W        W42859  17.554   7.353   2.229  0.0645  0.0279 -0.2230
29446W        W42860  14.093   7.264   2.651 -0.0420  0.0041  0.3300
29447W        W42861  14.344   6.788  13.758 -0.0859  0.2730  0.0538
29448W        W42862  13.992  16.230   2.698 -0.0799  0.1547 -0.1015
29449W        W42863   7.308   0.758   4.047  0.0797 -0.1722 -0.3085
29450W        W42864   5.841  11.908  14.225  0.0404 -0.0419  0.2849
29451W        W42865  13.119   3.491  13.685  0.1128 -0.0131  0.1928
29452W        W42866   1.987  16.046   3.009 -0.1429  0.0945  0.1649
29453W        W42867   0.766  15.494   1.750 -0.3294  0.0083  0.0929
29454W        W42868  11.047  17.314  16.156 -0.0025  0.2123  0.0719
29455W        W42869   3.107  16.304   1.733  0.0649  0.1785  0.0870
29456W        W42870  11.152  11.051  13.874  0.2412  0.0230 -0.2656
29457W        W42871  13.518   1.632  13.390  0.0543 -0.1264 -0.0734
29458W        W42872  17.631   9.558   5.181 -0.1445 -0.2720  0.2412
29459W        W42873  11.684   3.629   5.182 -0.0346  0.1357 -0.0533
29460W        W42874  16.340   0.205  11.620  0.1921 -0.1041  0.1190
29461W        W42875  11.633   8.244   5.569 -0.0798  0.0153  0.1790
29462W        W42876  17.747   2.851   2.475 -0.1376  0.1920 -0.0279
29463W        W42877  14.769   8.548   5.744  0.1087 -0.1877 -0.1709
29464W        W42878   8.046   6.113  13.075 -0.0392 -0.0153 -0.3143
29465W        W42879  12.418  12.849   6.006 -0.3021  0.1266  0.3663
29466W        W42880   5.586   0.356  11.585  0.2246 -0.2138  0.0589
29467W        W42881  14.171  12.440  11.162  0.2506  0.2950  0.0992
29468W        W42882  10.170  11.036   0.873  0.2496  0.1678 -0.3299
29469W        W42883  11.873   6.201  12.152  0.0534 -0.0059  0.0776
29470W        W42884   0.454  15.092   5.772 -0.1828 -0.0832  0.0493
29471W        W42885   1.483   8.855   5.396  0.2031 -0.0555 -0.0540
29472W        W42886   1.921   3.871   4.592  0.0091  0.0890  0.2007
29473W        W42887   3.778  10.015   3.488 -0.0002 -0.0135 -0.0621
29474W        W42888  15.873  10.636   6.139 -0.0899  0.0762 -0.0700
29475W        W42889  11.512   8.509  14.170 -0.0268 -0.0808  0.4467
29476W        W42890  12.512   2.411  15.334  0.0473  0.1098  0.0155
29477W        W42891   3.343  10.825   0.780  0.1590 -0.0663 -0.0931
29478W        W42892  14.812   2.692   6.157 -0.1663 -0.2286 -0.0498
29479W        W42893   9.246   1.564  14.366  0.2533 -0.0346  0.1148
29480W        W42894  14.062   7.042  13.371 -0.2293 -0.0993  0.0375
29481W        W42895  17.351  17.930  15.983 -0.0628  0.1309  0.0555
29482W        W42896   5.262  15.499  14.466 -0.0124 -0.1167  0.1823
29483W        W42897  11.493   2.596   5.594  0.1581 -0.0066 -0.2065
29484W        W42898   4.622   1.404   5.424  0.1984 -0.1078  0.0987
29485W        W42899   2.415  17.037  13.555  0.0587  0.2305  0.0831
29486W        W42900   2.914   0.610   6.718  0.1734  0.2159 -0.1345
29487W        W42901   4.425  17.032   0.549  0.1663 -0.0479  0.2615
29488W        W42902   5.320   2.070   1.968  0.1967  0.2246 -0.0150
29489W        W42903   5.777  14.773  13.174 -0.3390  0.2338 -0.3590
29490W        W42904   6.571  16.991  12.048 -0.1608 -0.2100 -0.0220
29491W        W42905  17.533  10.558  11.946 -0.1106  0.1122 -0.0758
29492W        W42906   6.210   2.261   4.123 -0.0738 -0.0313 -0.4106
29493W        W42907  10.499   1.765  14.745 -0.2228 -0.0220  0.1895
29494W        W42908   8.760  15.969  14.954 -0.0039  0.3342 -0.0441
29495W        W42909   6.746  12.078   0.078 -0.1230 -0.1835  0.1504
29496W        W42910  10.128   1.705  12.791 -0.0066  0.0733  0.2883
29497W        W42911  11.083   0.281   4.657  0.1063  0.0428  0.4278
29498W        W42912  11.036   4.798  14.397  0.1305 -0.0123  0.1287
29499W        W42913   6.313   3.901  11.722 -0.1440 -0.0094  0.3460
29500W        W42914   1.096   8.136  14.443 -0.2019 -0.1776 -0.0921
29501W        W42915   1.969   0.677  13.128 -0.2591  0.0035  0.0591
29502W        W42916   2.551  17.130  12.328 -0.0825  0.0837 -0.0445
29503W        W42917  12.487   0.978  14.521  0.0379  0.0186 -0.0503
29504W        W42918   1.623   4.884   0.850  0.0612 -0.2031 -0.0348
29505W        W42919  10.306  12.711  13.346 -0.1782 -0.2917 -0.1317
29506W        W42920   1.777   0.142  14.757  0.2084  0.1704  0.1644
29507W        W42921   1.542   2.042   1.738  0.1564  0.0375  0.0758
29508W        W42922  14.879   4.145  12.190  0.0904  0.0548 -0.1001
29509W        W42923   6.639  14.771  11.746 -0.1656 -0.4029 -0.0793
29510W        W42924   7.157   6.078  12.270  0.1449  0.0771 -0.0598
29511W        W42925   4.627  16.577  13.052  0.0254 -0.0442 -0.2237
29512W        W42926   3.882  11.387   5.194 -0.0566 -0.3234 -0.0499
29513W        W42927  16.877   1.498   1.599 -0.0892  0.4062  0.1318
29514W        W42928   1.085   9.368  16.556  0.2610  0.1651 -0.3117
29515W        W42929  10.247   6.184   5.167  0.2892  0.1341 -0.1361
29516W        W42930   5.954   0.323   0.111 -0.0777 -0.0053  0.0089
29517W        W42931   6.656  13.374  11.911  0.3141  0.1499  0.5657
29518W        W42932   8.605  13.091   5.960 -0.0469 -0.2439 -0.1367
29519W        W42933   8.088  14.028  15.036 -0.0951  0.0657 -0.0246
29520W        W42934  16.443   9.294  13.227 -0.2688 -0.1537 -0.1825
29521W        W42935  17.203   3.907   5.592 -0.0553 -0.1086  0.0596
29522W        W42936  10.892   4.076  15.067  0.1200  0.1694 -0.0014
29523W        W42937  13.569  11.100  11.947  0.0757 -0.0742  0.1775
29524W        W42938   0.160   4.464   5.908 -0.1772  0.1475  0.0225
29525W        W42939   4.668   3.949   1.813  0.4335  0.1240 -0.3063
29526W        W42940   6.810   1.759   2.485 -0.1806  0.0852 -0.0960
29527W        W42941   4.329  13.464   1.987  0.4189  0.0580  0.0236
29528W        W42942  13.921   1.581   0.119 -0.0418  0.0538 -0.0835
29529W        W42943   6.596  13.193   3.834  0.0706 -0.0718 -0.0414
29530W        W42944   3.054   3.361   1.813 -0.1263  0.2839 -0.0478
29531W        W42945   2.567   8.383  13.632 -0.1713 -0.2061 -0.0788
29532W        W42946   1.083  16.117   2.680  0.1282  0.0562  0.0198
29533W        W42947   9.782  12.277  14.014 -0.0243  0.1047 -0.0713
29534W        W42948   5.967   0.330   4.166 -0.3126  0.0302 -0.2584
29535W        W42949  16.746  12.593   3.585 -0.2333  0.0324  0.0201
29536W        W42950  16.827  13.745  10.582  0.1002  0.3157 -0.0388
29537W        W42951  14.757   5.488  12.152  0.0896  0.0113  0.2417
29538W        W42952  12.823   7.407   3.139  0.1739  0.1324 -0.0394
29539W        W42953  16.866   4.081   6.800 -0.2353  0.1309  0.1519
29540W        W42954  12.884   2.115  12.819  0.3798  0.1202 -0.0416
29541W        W42955  16.996   3.556   2.331  0.0998 -0.1174  0.0365
29542W        W42956   2.602  11.710  13.222  0.0201 -0.2126  0.0299
29543W        W42957  13.754  13.394  13.151 -0.0351 -0.0913 -0.2109
29544W        W42958  17.314  11.394  15.974  0.0960 -0.0588 -0.0569
29545W        W42959  14.973   2.409  12.115  0.1153 -0.4593 -0.4096
29546W        W42960   6.676   3.226   0.380 -0.0718 -0.1924 -0.0806
29547W        W42961  17.045   0.587  15.338 -0.0002  0.4051 -0.0393
29548W        W42962   4.968   8.367  12.025  0.0207  0.1692 -0.4596
29549W        W42963  14.538   3.574   2.095 -0.1516 -0.2028 -0.1493
29550W        W42964  15.560   9.275   4.408  0.0352  0.0433  0.2284
29551W        W42965   3.159   0.438  11.079  0.0128  0.0350 -0.2322
29552W        W42966  15.087   8.019  12.148  0.1707  0.0896  0.2401
29553W        W42967   9.836  17.142   0.998 -0.0241  0.0127 -0.0411
29554W        W42968   6.493   6.992  16.519 -0.0008  0.1358 -0.2121
29555W        W42969  16.320   0.766  13.554 -0.0796 -0.1624 -0.0459
29556W        W42970  11.564   7.302  10.762  0.3315  0.0911 -0.0533
29557W        W42971  16.397   6.941   3.210  0.1826 -0.0600 -0.0208
29558W        W42972  12.556   4.004   3.550  0.1829 -0.1185  0.3158
29559W        W42973  16.973  15.603   0.678 -0.1437 -0.1964  0.0918
29560W        W42974  11.716  14.504  10.073 -0.2032  0.2212 -0.3488
29561W        W42975   0.751   6.475  14.366 -0.0839 -0.0131 -0.1364
29562W        W42976  12.649   3.756  14.561 -0.2461 -0.2451  0.0313
29563W        W42977   7.295  17.245  15.762 -0.1935  0.3010 -0.1764
29564W        W42978   5.641   7.161  11.905 -0.0355 -0.0337  0.1047
29565W        W42979   2.460   3.827   3.629 -0.2421  0.2326  0.1248
29566W        W42980  10.128  13.756   2.764 -0.5205 -0.3676 -0.1843
29567W        W42981   8.192  17.641   0.589 -0.0135  0.0639 -0.0157
29568W        W42982   1.834   9.706  11.705 -0.1697 -0.2635  0.0660
29569W        W42983   7.431   1.631   0.821  0.1780 -0.0744 -0.0657
29570W        W42984  16.858  11.043   2.028  0.0866 -0.0633 -0.0241
29571W        W42985  13.471   0.943  15.684  0.0185 -0.1928  0.1446
29572W        W42986   5.718   9.367   1.612 -0.2246 -0.0006  0.0076
29573W        W42987   6.366   2.227  12.818 -0.0033  0.1486 -0.0117
29574W        W42988   4.386   0.025  14.221  0.1969 -0.0865 -0.0404
29575W        W42989  13.944  10.233  13.331  0.1778  0.1146  0.1109
29576W        W42990   6.685  11.581  11.108  0.2535  0.0228 -0.1150
29577W        W42991  14.293   8.418  16.374  0.2060  0.0058  0.0574
29578W        W42992  14.532   4.852   5.356 -0.0669  0.0230  0.0602
29579W        W42993  13.697  13.860   1.461  0.0682 -0.1952 -0.1526
29580W        W42994   6.920   6.910   5.782  0.2411  0.1970  0.0976
29581W        W42995   4.605   2.623  13.037  0.0665 -0.1292  0.2451
29582W        W42996  17.477   8.052   0.255 -0.0438 -0.0811  0.0493
29583W        W42997  15.009  11.582  16.193 -0.1747 -0.1802  0.0492
29584W        W42998   7.289   2.890  13.959 -0.2296 -0.2217 -0.0464
29585W        W42999  11.764   4.419  14.827  0.2696 -0.1709  0.1406
29586W        W43000   4.413  11.250   2.402  0.3276 -0.0305 -0.0218
29587W        W43001  15.114  12.964   4.247 -0.0018 -0.1531  0.3623
29588W        W43002   2.797   9.917  16.208 -0.1016 -0.1169 -0.1332
29589W        W43003   8.105   5.501   2.126 -0.1419  0.1789 -0.0982
29590W        W43004  12.122   6.547  12.503  0.3161  0.2664 -0.3194
29591W        W43005   3.576   7.964  15.084 -0.0179 -0.3824  0.0107
29592W        W43006  16.877  14.864  11.843  0.0311  0.4200 -0.1236
29593W        W43007   8.480   1.880  11.242 -0.2739 -0.2538 -0.0491
29594W        W43008  15.665  16.393  15.319 -0.1132  0.0851  0.0018
29595W        W43009   1.319  17.674  15.351  0.2631 -0.0443 -0.4127
29596W        W43010  11.768   1.432  15.033 -0.1411  0.2059  0.0772
29597W        W43011   5.408  14.206   2.657 -0.1261  0.0336 -0.0475
29598W        W43012  12.675  16.839   4.831  0.2014 -0.0680  0.3211
29599W        W43013   4.754   5.752  12.630 -0.0390 -0.2725  0.1428
29600W        W43014  14.922   4.022  14.380  0.2196 -0.0281  0.1586
29601W        W43015   1.415  10.261   2.550  0.2371 -0.1039  0.1332
29602W        W43016   5.713   5.279   0.140 -0.3558 -0.0129 -0.1965
29603W        W43017   0.741  10.073   3.194 -0.1725 -0.2553  0.0472
29604W        W43018   9.598   5.352  13.856 -0.0811  0.0813  0.1791
29605W        W43019   8.076  16.288   1.544  0.2086  0.1663 -0.2694
29606W        W43020  14.363   7.890   6.086 -0.0988  0.1745  0.1935
29607W        W43021  13.248   7.454  12.120  0.4671 -0.2252  0.2882
29608W        W43022  13.050  13.174   1.416 -0.2484 -0.2364 -0.0749
29609W        W43023   4.538   8.191   3.746 -0.0786  0.1102  0.1528
29610W        W43024   6.984   4.317  11.945  0.0370  0.4181  0.0015
29611W        W43025   5.051   2.064  11.342 -0.2085 -0.0285  0.3470
29612W        W43026  11.473   6.913  14.063 -0.2910  0.0181  0.0475
29613W        W43027  10.856   1.607   5.678  0.1298 -0.2505  0.1531
29614W        W43028   1.898   7.650  16.590  0.1646 -0.0862 -0.1330
29615W        W43029   6.460   6.955  14.888 -0.0408  0.4210 -0.2433
29616W        W43030  16.605   5.553   2.014 -0.0207  0.0781  0.0990
29617W        W43031  16.400   1.189  15.118 -0.2752  0.0650 -0.2789
29618W        W43032   7.753   1.132   3.576  0.0043  0.2807  0.0365
29619W        W43033   0.092   1.998   2.593  0.0404 -0.1300 -0.0475
29620W        W43034  15.755  10.708   1.210  0.0938  0.3020  0.0631
29621W        W43035  11.708   3.557   6.520  0.1809 -0.0249  0.0709
29622W        W43036   7.368   7.273  16.424 -0.0825 -0.0804  0.1676
29623W        W43037   8.140   6.188   5.296  0.0372 -0.2641  0.2064
29624W        W43038  12.692   1.722  10.100  0.1114 -0.0489  0.1270
29625W        W43039  10.168  15.663  10.833 -0.0538  0.1611  0.0058
29626W        W43040  14.545  17.605   2.711  0.1549  0.0534  0.0871
29627W        W43041   4.699   7.895   4.953  0.1984  0.0411 -0.1154
29628W        W43042   9.106  11.993   0.611  0.0049  0.0662 -0.1280
29629W        W43043  16.880  16.327   3.845 -0.0143 -0.0274 -0.2688
29630W        W43044   2.783  10.637   1.479 -0.0864  0.4200 -0.2628
29631W        W43045   6.321   8.684  10.693 -0.2352 -0.1767 -0.0423
29632W        W43046  12.848   0.639  11.319 -0.1359 -0.1042 -0.1881
29633W        W43047  11.140  11.019   3.863  0.1670 -0.2780  0.1431
29634W        W43048  14.035  14.316   9.883 -0.2396 -0.3030 -0.0256
29635W        W43049  11.370   7.789  16.311 -0.0871  0.1234  0.1416
29636W        W43050  15.081  16.816  15.366 -0.0533  0.3809  0.3546
29637W        W43051   3.691   0.971   3.224  0.0448 -0.2959  0.2077
29638W        W43052   7.001   6.667  10.776 -0.1867  0.3085 -0.1273
29639W        W43053  10.732   5.737   4.184  0.0052 -0.1122 -0.4145
29640W        W43054   3.381   4.402  13.026  0.0469  0.1740 -0.1151
29641W        W43055  11.457   0.150  12.782 -0.2217  0.0183  0.0474
29642W        W43056   8.103   0.311   1.686  0.3414  0.1067  0.2333
29643W        W43057  13.405   1.618  11.162 -0.0711 -0.1781  0.0151
29644W        W43058   8.321  13.690   5.924  0.0175  0.0436  0.0879
29645W        W43059   3.267   8.205  14.671  0.2417  0.1817 -0.0105
29646W        W43060   9.425  11.409  13.856 -0.1998  0.1471 -0.0622
29647W        W43061   2.108   6.899   5.921  0.0251 -0.0218  0.1631
29648W        W43062   4.551   8.943   0.386 -0.2414 -0.1326 -0.0609
29649W        W43063  11.541  17.909   2.543 -0.1558 -0.1060  0.0054
29650W        W43064   7.657   6.667   4.132  0.0179  0.0887  0.1517
29651W        W43065   5.497   1.629  12.032  0.1194 -0.0463  0.2102
29652W        W43066   9.004  15.039   2.192  0.2265  0.2033  0.0486
29653W        W43067   6.725  11.239  13.106 -0.0997 -0.1431  0.0221
29654W        W43068  14.381   5.778  12.035 -0.1306 -0.1141 -0.3197
29655W        W43069   1.081   0.419   6.924  0.0959 -0.0114 -0.2587
29656W        W43070   9.391  15.129  16.311 -0.0419  0.0819  0.2216
29657W        W43071   4.979   7.611   4.529 -0.0038  0.0600 -0.3066
29658W        W43072  10.048   7.090  14.975 -0.1977  0.3092  0.1305
29659W        W43073   2.013   1.726  13.597 -0.0539 -0.0160 -0.0811
29660W        W43074   9.800   3.689   2.266  0.1071 -0.0559 -0.1350
29661W        W43075  17.585   5.225   3.524  0.0851 -0.3252 -0.0371
29662W        W43076   2.688  16.761   1.225  0.3882  0.2902  0.0165
29663W        W43077   0.292   1.438  12.616  0.3763 -0.3521 -0.0966
29664W        W43078   2.234  10.022  11.678  0.2152  0.2976 -0.1167
29665W        W43079   1.304   4.269   1.114  0.2332  0.0276  0.0146
29666W        W43080  17.733  10.619  16.028 -0.1229  0.0393 -0.0656
29667W        W43081   2.836   5.743  16.518 -0.2557 -0.1505  0.3526
29668W        W43082  15.795   6.153  12.781  0.0922  0.2878 -0.0430
29669W        W43083   5.673  17.094   4.572 -0.0083  0.2291 -0.0708
29670W        W43084  12.176   5.868   4.557 -0.0180  0.1274  0.0274
29671W        W43085   8.360   0.499  10.863  0.1732  0.3322 -0.1581
29672W        W43086   3.676  15.790   3.627 -0.1189  0.0846 -0.0813
29673W        W43087  12.959  14.186  12.463 -0.0240 -0.3401 -0.0172
29674W        W43088  13.298   8.424   5.745  0.1828 -0.0544 -0.1492
29675W        W43089   5.709   1.457  11.326 -0.1456 -0.1281 -0.0178
29676W        W43090   5.401   4.949   4.881  0.5237  0.1251 -0.3782
29677W        W43091  12.915   1.835   0.186 -0.3453  0.0893 -0.0836
29678W        W43092  10.001  12.201  13.496 -0.2600  0.1416  0.1502
29679W        W43093  12.852   4.733   0.074  0.0178  0.1169  0.1310
29680W        W43094   6.846   8.525  15.047 -0.4961  0.1251  0.0261
29681W        W43095   4.301  16.249   0.508 -0.0929  0.3322  0.0414
29682W        W43096  10.364  10.952  10.821  0.3117 -0.2390 -0.1040
29683W        W43097  16.202  16.316   3.021  0.0622  0.2039  0.2005
29684W        W43098  15.244   5.511   3.590 -0.0073  0.2269 -0.1780
29685W        W43099   3.314   0.744  12.361  0.0815 -0.0294 -0.0830
29686W        W43100  13.650  14.929   2.963  0.0028  0.3080 -0.1235
29687W        W43101  13.019   6.703  12.465  0.0932  0.0621  0.0023
29688W        W43102   6.533  14.848  13.885  0.0278  0.1077 -0.0599
29689W        W43103  14.638   3.218  11.862  0.0394 -0.2760  0.2588
29690W        W43104  16.600   1.053   0.613 -0.2730 -0.2262 -0.1894
29691W        W43105   2.311  14.189   0.188  0.1704 -0.0132 -0.0016
29692W        W43106   3.420   8.694  10.756 -0.0479 -0.0341  0.2093
29693W        W43107   5.320   8.576   3.812  0.0639 -0.0301 -0.4597
29694W        W43108  14.170   5.757   6.410 -0.2238  0.0263  0.0656
29695W        W43109   7.785   0.823   4.627  0.1390  0.0349  0.2167
29696W        W43110   2.196  12.509  11.669 -0.0171 -0.0732 -0.1006
29697W        W43111   7.322  13.277   0.824 -0.2342  0.1181  0.0324
29698W        W43112   9.191   5.812  15.595 -0.1795  0.1043  0.0882
29699W        W43113   6.684  13.780  16.305 -0.0377  0.0171 -0.1167
29700W        W43114   5.609   4.603  16.044  0.0845  0.1155 -0.0414
29701W        W43115   0.504  17.358  11.129 -0.3152 -0.2162  0.2458
29702W        W43116   7.863   0.212  11.776  0.3166  0.0040 -0.1662
29703W        W43117   7.027   1.718  14.129 -0.0821  0.2295 -0.0825
29704W        W43118   2.792   4.273   3.520 -0.0126 -0.0142  0.1561
29705W        W43119   2.147  10.239  16.348 -0.1266  0.0541 -0.0974
29706W        W43120   2.888  12.599   0.950  0.0647 -0.1449  0.3679
29707W        W43121   1.482   2.544   7.220  0.1474  0.0997 -0.2095
29708W        W43122   2.051   1.163   0.388  0.0657  0.0802  0.2014
29709W        W43123   2.315  10.478  11.735  0.2434  0.0503 -0.1825
29710W        W43124  11.647  17.397   0.274  0.2159 -0.2898 -0.0132
29711W        W43125   1.483   1.962  12.796 -0.2805  0.1507  0.1287
29712W        W43126   0.554  13.152   3.747 -0.2487 -0.0819 -0.0111
29713W        W43127   0.124   0.332   4.224 -0.0618  0.1098  0.1846
29714W        W43128  17.999   0.954   0.420  0.4593 -0.0102  0.0701
29715W        W43129   3.556   5.963  12.644  0.0150 -0.0819  0.4658
29716W        W43130   0.006  16.111  11.932 -0.0366 -0.1333 -0.0197
29717W        W43131   4.980  11.079  14.843 -0.3100 -0.0533  0.1332
29718W        W43132  13.580  16.530   1.251  0.3039 -0.2154 -0.0324
29719W        W43133  15.733   7.648   1.192  0.3167  0.3332  0.0042
29720W        W43134   6.306   1.916  16.513  0.1448  0.0232  0.1038
29721W        W43135  15.847  12.739  12.070  0.0665 -0.1659 -0.0631
29722W        W43136   5.629  10.521  11.250  0.1330  0.1398  0.0212
29723W        W43137  11.460  13.129  15.556 -0.2139 -0.1717  0.0347
29724W        W43138   9.542  15.388   2.941  0.2812  0.1047  0.1330
29725W        W43139   5.622  12.381   3.454  0.1959  0.1071 -0.2292
29726W        W43140  12.436   4.682   2.446 -0.3148  0.0473  0.1923
29727W        W43141   3.142   6.795   1.457  0.4799 -0.0469 -0.0239
29728W        W43142   8.509   7.558   4.449 -0.1236  0.1106 -0.1618
29729W        W43143   5.434  15.552   0.414 -0.2139  0.5090 -0.0102
29730W        W43144  12.087   1.898  13.732 -0.0433 -0.0535  0.2201
29731W        W43145  16.044   0.295   5.921 -0.0986  0.1389  0.1231
29732W        W43146   0.262  15.588   0.456 -0.4814  0.0153 -0.1063
29733W        W43147  12.769   4.372   3.259 -0.2063 -0.0723  0.0495
29734W        W43148   7.769   7.262   2.044  0.0026  0.4116 -0.3145
29735W        W43149  10.845   9.946  16.692  0.2897 -0.1480 -0.1455
29736W        W43150   5.594   2.716   5.382 -0.0683 -0.3184  0.3022
29737W        W43151   3.864   9.554   5.547  0.3978  0.1439  0.1144
29738W        W43152  15.930   6.498  16.590  0.1250 -0.1499 -0.0356
29739W        W43153   2.848   0.399   1.297 -0.1982 -0.0608  0.0688
29740W        W43154   0.256  13.087  15.951 -0.1820  0.1439  0.0169
29741W        W43155   0.419   8.782  15.820 -0.0237  0.2357  0.1210
29742W        W43156  15.628   8.888   3.933  0.2345 -0.2176  0.1863
29743W        W43157   2.878   0.086   0.388  0.1484  0.0814 -0.2259
29744W        W43158   1.106  11.451   1.331 -0.0150  0.1123 -0.1949
29745W        W43159   5.677  17.283   5.048 -0.1459  0.0041 -0.0566
29746W        W43160  16.621  13.051  11.885 -0.1899  0.3445  0.1372
29747W        W43161   1.076   0.023  15.141 -0.1160  0.0971 -0.1892
29748W        W43162   6.476  12.882  11.722  0.1423  0.2813  0.1317
29749W        W43163  11.490  16.193   3.064  0.0319  0.0299  0.2058
29750W        W43164   8.899   5.579   1.729  0.1593 -0.0837  0.2254
29751W        W43165   0.431  12.601   2.908  0.0445 -0.0209 -0.1994
29752W        W43166   0.252  12.500   5.549 -0.0037  0.1416  0.0016
29753W        W43167   4.025   1.278  12.633 -0.0553  0.0885  0.0692
29754W        W43168   0.386   8.919  11.758 -0.0308 -0.0505 -0.0407
29755W        W43169  10.521   5.628  11.410 -0.2645  0.1277 -0.3112
29756W        W43170   8.949  10.677   1.126 -0.1011 -0.1149 -0.3336
29757W        W43171  10.246  12.054  13.906 -0.0988  0.1360  0.1824
29758W        W43172  11.417  11.093  16.689  0.3573 -0.1961  0.2667
29759W        W43173   7.413  10.362   2.338 -0.0023 -0.0007  0.4184
29760W        W43174  14.493  11.523  16.336  0.3343 -0.0040  0.2294
29761W        W43175   1.571   0.434  15.695 -0.0327  0.0337  0.0296
29762W        W43176   0.059  12.772  16.524 -0.1589 -0.1012 -0.1507
29763W        W43177   2.128  15.607  12.117 -0.2567  0.0594 -0.1007
29764W        W43178   0.964   3.827   2.255  0.0356  0.0455  0.3052
29765W        W43179   9.448   6.293  12.805 -0.1576  0.1704 -0.3197
29766W        W43180   4.358   8.435  13.961 -0.3395 -0.0706  0.2235
29767W        W43181   6.393   2.677   3.969 -0.1370  0.0400 -0.3123
29768W        W43182  15.402  11.147  12.588  0.1301 -0.3339  0.0012
29769W        W43183  14.627  17.581   4.783 -0.0277  0.1119 -0.2867
29770W        W43184  10.309  17.491  13.035  0.0222  0.0485  0.0239
29771W        W43185  17.399   8.115  13.349 -0.0107  0.2470 -0.0745
29772W        W43186   0.617   4.792  15.928  0.0717  0.1523  0.3153
29773W        W43187   9.941   1.210  11.351  0.0232  0.2891 -0.2646
29774W        W43188   9.058   4.999   5.033 -0.1844  0.0518  0.1053
29775W        W43189  15.165  12.255  12.206 -0.1692 -0.0123 -0.0962
29776W        W43190   7.629   6.080  10.632 -0.4002  0.0713 -0.2250
29777W        W43191  14.947   0.323  12.019  0.2856  0.1798 -0.1979
29778W        W43192   4.262  16.112  15.119  0.1233 -0.0373 -0.0152
29779W        W43193   8.762   1.214   4.517 -0.0588 -0.4650  0.0671
29780W        W43194  14.544   9.517   0.445  0.1542 -0.0314 -0.1509
29781W        W43195   3.126  10.286  10.657 -0.2105 -0.0743 -0.0256
29782W        W43196  17.874  13.559   0.941 -0.0353 -0.1762 -0.2592
29783W        W43197   7.032  12.204   1.629  0.0518  0.1079 -0.0676
29784W        W43198   1.496   4.700  16.130 -0.0421 -0.2327 -0.0986
29785W        W43199  12.507  16.656   4.043 -0.0514  0.0790 -0.1011
29786W        W43200   8.250   9.395  11.312 -0.1246 -0.2204  0.1761
29787W        W43201   0.579   6.691  12.431  0.2711 -0.1983 -0.2050
29788W        W43202  10.275   6.379  11.843  0.0057 -0.2939  0.0558
29789W        W43203   0.605   3.057   3.683  0.1906 -0.2607 -0.2852
29790W        W43204   2.183   1.656  14.181  0.0817  0.1255  0.3102
29791W        W43205   1.016   1.382   2.105 -0.0476  0.0301  0.2793
29792W        W43206  11.978   5.934   3.060 -0.3010  0.2173 -0.3226
29793W        W43207  16.262   0.942   2.182 -0.0525  0.0637 -0.3531
29794W        W43208  17.742   1.943   0.413  0.2251 -0.0698 -0.1492
29795W        W43209  13.009   2.605  15.292  0.1215  0.2079  0.0729
29796W        W43210   9.841   4.848  16.028  0.0732  0.0076 -0.1487
29797W        W43211   9.135   2.188  13.590 -0.0190  0.2784 -0.1715
29798W        W43212  15.138  10.874   2.566 -0.1120  0.4189  0.0578
29799W        W43213   2.475  12.328   0.901  0.0655 -0.2586  0.0509
29800W        W43214  15.954   6.375   4.669  0.1926 -0.0790  0.2450
29801W        W43215   7.897   3.369   4.060  0.1206  0.2198 -0.1820
29802W        W43216   6.615  15.662  11.077  0.1418 -0.0511  0.2256
29803W        W43217   9.083   5.001  10.064 -0.1249  0.3008  0.0862
29804W        W43218   1.830  18.053  11.470 -0.0306 -0.2467 -0.1646
29805W        W43219   4.568   5.363  11.688  0.2072  0.0806  0.2337
29806W        W43220   2.837  17.180   4.840  0.0604  0.0692  0.2789
29807W        W43221   1.742   9.626   2.841  0.0655 -0.1213  0.0854
29808W        W43222   7.247   9.679  11.592  0.1905 -0.2439  0.1196
29809W        W43223   1.349  14.983  14.061 -0.1556 -0.1359  0.1143
29810W        W43224   2.980  13.397  11.150 -0.1397  0.2629 -0.2180
29811W        W43225   6.979  12.441   2.235 -0.0961 -0.0606  0.3238
29812W        W43226  13.568  14.510   4.863 -0.0804  0.0358  0.0868
29813W        W43227   0.255   8.915   1.607  0.0859  0.1317  0.2014
29814W        W43228  13.671  13.050  15.777  0.1306  0.0307 -0.0014
29815W        W43229  16.091   2.091   4.586 -0.1894 -0.1662  0.1876
29816W        W43230  16.954  14.756  10.830  0.1354 -0.1963 -0.1401
29817W        W43231   6.725   5.949   0.734  0.0505 -0.0994 -0.1473
29818W        W43232   8.195   6.188   4.402  0.3097 -0.2159 -0.0909
29819W        W43233  12.139  15.609  12.212 -0.1207  0.2681  0.0024
29820W        W43234  17.034   7.105   1.214  0.1336 -0.3210  0.1562
29821W        W43235  12.813  12.452  13.489  0.1676  0.0569  0.0028
29822W        W43236   3.780   0.755  15.804 -0.1433  0.0792 -0.2274
29823W        W43237   6.462   8.632  14.507  0.0242  0.0659  0.1186
29824W        W43238   4.219  16.919  11.737 -0.1236 -0.0912 -0.1027
29825W        W43239  13.094  17.954   3.424 -0.2143 -0.0657 -0.2832
29826W        W43240   2.779  11.822  11.192 -0.0544 -0.0532 -0.0281
29827W        W43241   9.143   9.729  11.323 -0.0142  0.1087 -0.1931
29828W        W43242   2.130  17.932  13.178  0.3315  0.3533 -0.1090
29829W        W43243   4.398   0.989  13.986  0.1377 -0.0090 -0.0276
29830W        W43244   0.365  11.880  13.357 -0.1181 -0.1786 -0.1227
29831W        W43245   5.830   1.438   5.928 -0.3193 -0.0367  0.0621
29832W        W43246  11.105  14.468   3.414 -0.1145  0.1785  0.2504
29833W        W43247   3.374   0.775   1.158  0.0032 -0.2086 -0.3720
29834W        W43248   0.372   1.023   4.002  0.1557 -0.1962  0.4280
29835W        W43249  14.785   8.802  13.250 -0.2539 -0.1247 -0.1768
29836W        W43250  13.186  10.915   2.794  0.2697 -0.0570  0.1574
29837W        W43251  17.100  17.004  10.944  0.1272  0.1182  0.0345
29838W        W43252   5.474  12.500  16.037  0.0256  0.0312  0.1773
29839W        W43253  15.644   5.625  14.019 -0.1709 -0.1493 -0.1035
29840W        W43254  16.772   5.975   1.036 -0.0244 -0.0861 -0.0959
29841W        W43255   1.431   3.806  16.502 -0.0708 -0.1808  0.0715
29842W        W43256  11.058   1.680   2.223  0.1398 -0.1166  0.0452
29843W        W43257  10.251  12.888  16.271 -0.2655 -0.0288  0.2535
29844W        W43258  15.996  15.422   1.373  0.3051 -0.1402  0.0418
29845W        W43259  16.430  13.058  16.174 -0.1039  0.1472 -0.0670
29846W        W43260   4.840   2.374  11.724  0.0369  0.0858 -0.1473
29847W        W43261  16.755   1.329  11.464  0.3810 -0.2470  0.1361
29848W        W43262   2.329  15.161   1.786  0.0214 -0.1799  0.0733
29849W        W43263   3.343  17.540  11.295  0.4183 -0.0884  0.0426
29850W        W43264   9.215  14.461  13.517 -0.0182  0.0312  0.0516
29851W        W43265  14.325   1.566   3.183 -0.1532  0.0675 -0.1164
29852W        W43266   9.436   3.678   3.522  0.0734 -0.1128  0.2248
29853W        W43267  10.170   1.348  14.049  0.2389  0.2422  0.0448
29854W        W43268  16.572   2.328   2.705 -0.0584  0.2130 -0.0386
29855W        W43269   5.065   3.653  13.018  0.0646 -0.3720  0.0641
29856W        W43270  10.770  17.910   3.319 -0.0893 -0.1954  0.1918
29857W        W43271   1.173  14.261   3.677 -0.0312 -0.0512  0.2344
29858W        W43272   9.688   6.663  13.159 -0.2749 -0.1083  0.1767
29859W        W43273   6.431   6.094   1.248 -0.1698 -0.0577 -0.1388
29860W        W43274   0.678  15.208   5.058  0.1224  0.1654 -0.0170
29861W        W43275   0.750   0.482  12.004 -0.0463  0.0450 -0.0648
29862W        W43276   8.501   8.693   5.493  0.0500 -0.0624  0.0534
29863W        W43277   3.832   5.953  14.871  0.1424  0.2257 -0.1859
29864W        W43278   0.195  13.974   1.237  0.0112 -0.1156 -0.1494
29865W        W43279   2.038   3.401   3.512  0.2039 -0.1689 -0.2112
29866W        W43280  13.838   1.387  10.261  0.1321 -0.1537  0.0667
29867W        W43281   2.391   6.385   2.688  0.0755 -0.1970  0.0270
29868W        W43282   2.531   6.404   1.626 -0.1770 -0.2259 -0.0748
29869W        W43283   0.402   3.813   4.043 -0.1255  0.1085  0.0404
29870W        W43284   9.560   3.001  14.607  0.0925  0.0935  0.0664
29871W        W43285   1.441  12.546  13.522  0.1962  0.0643 -0.3980
29872W        W43286   0.176   2.786   2.585  0.2003 -0.2693 -0.1019
29873W        W43287   5.114  16.661  12.811 -0.1566  0.3531 -0.1424
29874W        W43288  15.761  16.126   0.672  0.0767 -0.0273 -0.0049
29875W        W43289  17.528   8.958  12.707 -0.1271 -0.1149 -0.1883
29876W        W43290  14.654   0.055   2.686  0.0016 -0.1668 -0.2049
29877W        W43291  16.133  13.687  15.747  0.0425  0.0044  0.1422
29878W        W43292  10.417  17.362   4.525 -0.1056  0.2335 -0.1314
29879W        W43293  12.858   2.387  16.493 -0.0476 -0.0423 -0.2128
29880W        W43294   0.264   6.631   6.605  0.0077 -0.1144  0.1549
29881W        W43295   1.468  14.312  11.102  0.1706  0.0328  0.1181
29882W        W43296   6.597   0.732   5.083 -0.2714  0.0633  0.1646
29883W        W43297   5.825   8.759  14.496 -0.1460  0.0522 -0.2226
29884W        W43298   8.887   5.641  12.009  0.0453  0.0322 -0.0093
29885W        W43299   1.461  16.865   4.966 -0.0799 -0.1111 -0.0536
29886W        W43300  14.822  16.579  14.727 -0.0783 -0.2468  0.2210
29887W        W43301  11.999   0.266  14.466 -0.0717  0.0047  0.0395
29888W        W43302   5.701  16.373   0.317  0.3185 -0.2120  0.0695
29889W        W43303   8.868   4.680  16.093 -0.2865  0.3157  0.2393
29890W        W43304   4.169   4.108   5.012 -0.1868  0.0921  0.1303
29891W        W43305  12.802   7.361   2.178 -0.1316 -0.0183  0.1346
29892W        W43306   9.525   1.587  16.525 -0.3429  0.0518 -0.0815
29893W        W43307   3.093   4.574   0.123  0.1629  0.1476  0.0129
29894W        W43308   7.222  13.258  12.352 -0.0508 -0.0630 -0.1009
29895W        W43309  15.628   1.813   1.966  0.2830 -0.1933  0.0019
29896W        W43310   7.928  17.292  14.510 -0.1800 -0.0068  0.0816
29897W        W43311   8.288   5.756   4.072  0.0986  0.0586  0.3354
29898W        W43312  12.766  10.229   1.316  0.0524 -0.1518 -0.0457
29899W        W43313  12.069  13.977   6.305  0.0177 -0.0337  0.0817
29900W        W43314   0.208  15.840   3.594  0.1943 -0.3050 -0.0921
29901W        W43315   5.834   8.264   0.577  0.4347  0.1274 -0.2041
29902W        W43316  12.063   8.285   0.982 -0.1095 -0.2306 -0.1331
29903W        W43317  12.197   4.088  14.359  0.0306 -0.1582  0.0902
29904W        W43318  11.714  10.274  13.205 -0.1196 -0.2262 -0.0153
29905W        W43319   9.968  17.107  14.287 -0.0752  0.1795  0.0978
29906W        W43320   1.409   0.552  11.879  0.1613 -0.1702  0.1674
29907W        W43321   4.394  11.157  11.499  0.0165  0.3540  0.0452
29908W        W43322  15.693  15.653  14.358 -0.0707 -0.0919 -0.1203
29909W        W43323  17.279   5.746  14.118  0.0585  0.1493  0.0278
29910W        W43324  15.823   4.159   1.949 -0.0554  0.2406  0.1872
29911W        W43325  16.412   9.960  11.702  0.1004  0.3754 -0.3525
29912W        W43326   4.605  12.398  12.095  0.3437  0.2504  0.2510
29913W        W43327   7.781   8.274   4.058  0.0941  0.0481 -0.1684
29914W        W43328  11.610  15.671  12.583  0.0552 -0.1815  0.0232
29915W        W43329  13.716  16.076   0.657 -0.0682  0.1174 -0.2240
29916W        W43330   9.965  17.816   0.633 -0.3094 -0.0710 -0.3710
29917W        W43331  12.290  17.698   5.015  0.0982 -0.2115  0.0675
29918W        W43332  14.166   2.638   0.258  0.0601  0.3360  0.0013
29919W        W43333   3.777  13.209   5.414 -0.3581 -0.0558  0.1227
29920W        W43334  12.105   3.260   5.249  0.2191  0.1219 -0.1650
29921W        W43335  10.150   7.543  12.025  0.1268 -0.0150 -0.0980
29922W        W43336   0.467   9.218  12.628  0.0724  0.1622 -0.1869
29923W        W43337   7.564   3.849  14.297  0.1435  0.1687  0.1121
29924W        W43338  12.015  14.431   6.197  0.2358 -0.0824 -0.0080
29925W        W43339  11.911   4.159   3.528 -0.0297  0.2542 -0.1219
29926W        W43340   0.056   9.788  13.295 -0.1211 -0.1823 -0.0476
29927W        W43341  12.055  10.810   2.462 -0.0167  0.4809  0.1520
29928W        W43342   3.125  10.482  12.281  0.1990 -0.2227 -0.0554
29929W        W43343   0.571  14.438  13.093 -0.0439 -0.1535  0.2684
29930W        W43344   6.054  11.719  11.358  0.2257 -0.1198  0.2368
29931W        W43345   3.112  16.138  15.074 -0.2438 -0.0634  0.1426
29932W        W43346   3.158   8.304   3.698 -0.2121  0.1052 -0.0981
29933W        W43347  15.104   1.410  16.255 -0.1434 -0.3305 -0.1195
29934W        W43348   6.735   5.263   2.588  0.2262 -0.0415 -0.1649
29935W        W43349  15.686   3.659   4.400 -0.0010 -0.1175  0.3726
29936W        W43350   7.313   8.658   3.570  0.0948 -0.0657  0.1460
29937W        W43351   7.604   3.127  13.055 -0.0652 -0.0140 -0.0934
29938W        W43352  12.367  13.717  11.134 -0.2218 -0.1893  0.2386
29939W        W43353   2.440   4.134   3.201 -0.2379 -0.0922  0.1063
29940W        W43354   0.389  13.029   5.457  0.2116  0.0327  0.0028
29941W        W43355   5.032  16.313  13.213 -0.1763 -0.0780  0.0480
29942W        W43356   9.278  15.022   4.250 -0.0338 -0.0315 -0.2373
29943W        W43357   8.492  15.155  14.496 -0.0125 -0.0184 -0.1075
29944W        W43358  16.232   1.466   5.867  0.0997  0.1811  0.2072
29945W        W43359  10.928   8.764   3.138 -0.1795  0.0282 -0.3907
29946W        W43360   1.669  12.620   2.177 -0.1288  0.0355  0.0779
29947W        W43361  11.120   9.109   2.175 -0.1659 -0.2540 -0.1609
29948W        W43362   4.764  10.395   6.040 -0.0543  0.2072  0.2398
29949W        W43363   0.721   3.978  14.358  0.1888  0.0675  0.0964
29950W        W43364   6.534   0.495  12.813  0.1359  0.1024  0.1050
29951W        W43365  10.197  15.708   3.397 -0.1822  0.1859 -0.0559
29952W        W43366  10.236  17.975  12.808  0.0647  0.0684  0.3695
29953W        W43367  12.061   9.586   3.403 -0.2022 -0.0439 -0.2654
29954W        W43368  11.519   6.103   0.162 -0.2170 -0.2865 -0.2979
29955W        W43369  14.610   1.846   5.969  0.3221 -0.0180  0.1193
29956W        W43370   9.825  12.144   2.171 -0.1032  0.1098 -0.1827
29957W        W43371  13.428   1.460  14.812  0.0018 -0.4841 -0.1158
29958W        W43372   3.394  14.336   2.470  0.0807 -0.1990 -0.3769
29959W        W43373   1.491   2.654   2.013  0.0944  0.2800  0.0810
29960W        W43374  11.799  10.865   0.998 -0.1241 -0.0577 -0.1792
29961W        W43375   2.984  15.584  10.348 -0.0112  0.0421  0.2452
29962W        W43376   6.113   0.148  13.170  0.2140  0.2921 -0.0569
29963W        W43377  12.625   0.830   3.218 -0.0067 -0.0405 -0.1016
29964W        W43378   8.407  12.035   2.639 -0.0914  0.0842  0.0177
29965W        W43379  13.551  14.166  11.691 -0.0644  0.1761 -0.2369
29966W        W43380   0.920  15.062  10.802  0.0579 -0.3679 -0.2638
29967W        W43381   7.087  16.267   3.427  0.0045  0.0319  0.0110
29968W        W43382   0.070  16.326   5.241  0.0801  0.2478 -0.0156
29969W        W43383   0.052  12.155   1.381 -0.0743 -0.1573  0.0376
29970W        W43384   7.337  10.633  13.683  0.2304 -0.0123 -0.0401
29971W        W43385   5.220  10.109   3.138  0.0672  0.1586 -0.1217
29972W        W43386  10.238   0.657   1.713  0.1027  0.1006 -0.0401
29973W        W43387   4.737   4.402  15.208  0.3634 -0.1976 -0.0507
29974W        W43388   1.212  16.508  13.568  0.0668 -0.0790  0.0972
29975W        W43389   2.309   0.340  13.276 -0.1868  0.0108  0.0613
29976W        W43390   9.075  11.222  11.540 -0.1535  0.1582  0.0162
29977W        W43391   6.394  12.513   0.743 -0.0988  0.1491 -0.0622
29978W        W43392  12.137   9.513  13.562 -0.3083 -0.0297 -0.0965
29979W        W43393   6.273  14.415  12.918 -0.2230 -0.2498  0.0010
29980W        W43394  12.410   0.636   0.325 -0.0351 -0.1488  0.3670
29981W        W43395  11.240   5.893   1.041  0.0028  0.0693  0.2594
29982W        W43396  14.252  16.401   4.290 -0.1221  0.1670  0.2308
29983W        W43397   8.098  14.499   1.151 -0.1093 -0.1200  0.1951
29984W        W43398   7.932   8.726   4.630 -0.0580 -0.0378 -0.5340
29985W        W43399   6.321   5.967  12.114  0.2263  0.0612 -0.2333
29986W        W43400   3.683   8.878  12.011 -0.0965  0.1988 -0.1465
29987W        W43401  15.690  16.196   2.995 -0.1049 -0.3115 -0.0044
29988W        W43402   8.194  12.751  11.686 -0.0839  0.1002  0.1739
29989W        W43403   9.359   2.167   2.750  0.0976 -0.2279 -0.0104
29990W        W43404  12.377   6.070  13.451  0.0888 -0.1023 -0.3887
29991W        W43405  17.544  15.849  12.626 -0.1297 -0.1231  0.1587
29992W        W43406  17.432  14.262  13.495  0.0499 -0.1294  0.1380
29993W        W43407   0.023   2.398   1.640  0.4347 -0.1276 -0.1134
29994W        W43408   6.313  14.570  13.504  0.0166 -0.3724  0.1409
29995W        W43409   7.897  11.077  14.882 -0.0062  0.0087  0.0715
29996W        W43410  16.338  16.065   5.036  0.2784 -0.0728  0.2592
29997W        W43411   2.134   5.992   0.411 -0.1652  0.0295  0.2270
29998W        W43412   8.197   5.501   0.146  0.0674 -0.1697 -0.1913
29999W        W43413   1.495  12.753  15.577 -0.4052  0.0028  0.1883
30000W        W43414  16.381   3.217   6.259 -0.0758  0.3219 -0.2286
30001W        W43415  10.588  16.273   2.841 -0.0708  0.0556  0.0928
30002W        W43416  17.611  10.572  13.575 -0.1568  0.0552 -0.3433
30003W        W43417  13.894   7.628   2.957 -0.0807  0.0524  0.0300
30004W        W43418  15.940   1.507   3.513 -0.0525 -0.2481  0.1302
30005W        W43419   8.239  10.571   0.547 -0.0233  0.0306 -0.0369
30006W        W43420  10.003   9.003   1.531  0.2461  0.0150  0.0756
30007W        W43421   8.603   6.394  13.085 -0.1327  0.0174 -0.0303
30008W        W43422  15.145  11.136   0.421 -0.0605  0.0445  0.1975
30009W        W43423   7.380   4.488   0.537  0.0595  0.0262 -0.0505
30010W        W43424  10.122   4.355   5.945 -0.2242 -0.1953 -0.2312
30011W        W43425  15.493   4.810  14.828 -0.1716 -0.0442  0.1210
30012W        W43426   1.308   3.869   6.094  0.1556 -0.1097  0.0033
30013W        W43427   2.925   6.114  11.841  0.1254 -0.1291 -0.2144
30014W        W43428  17.401   7.702   3.677 -0.1360 -0.1995  0.1609
30015W        W43429  10.838   5.090   1.377  0.0917  0.1221  0.0769
30016W        W43430  16.542  10.993   0.060 -0.0989 -0.1766  0.0955
30017W        W43431   9.056  12.855  12.237  0.0563  0.0947 -0.1697
30018W        W43432   0.641   8.450   5.501 -0.0192 -0.0423  0.0049
30019W        W43433   2.601  14.027   4.435  0.0841 -0.2004  0.1236
30020W        W43434  12.529   9.354   6.100  0.0132  0.0785 -0.0542
30021W        W43435   6.310  10.573   1.551 -0.0493  0.0736 -0.1859
30022W        W43436   0.629  14.310   0.161 -0.2233 -0.2821 -0.0662
30023W        W43437   6.392   8.612   5.730 -0.0766  0.0163  0.0437
30024W        W43438   2.188   5.831   0.875  0.2418  0.1719  0.2369
30025W        W43439  17.900  11.185  13.000  0.2182 -0.0598  0.0242
30026W        W43440   8.261  12.641   3.407 -0.1775  0.2095 -0.0102
30027W        W43441  17.020   7.827   0.524  0.2921 -0.0385  0.3359
30028W        W43442  15.777   5.818   5.765  0.0431  0.0685  0.0841
30029W        W43443  10.115  14.812  14.936  0.0551 -0.0370  0.1465
30030W        W43444   9.819   6.614  11.986 -0.2323  0.1631 -0.2121
30031W        W43445   7.762  15.915  14.391  0.0142  0.0656 -0.1536
30032W        W43446   7.501  13.395  16.686 -0.0912 -0.0744 -0.1077
30033W        W43447   5.927   7.736  15.249  0.3045 -0.2090  0.0109
30034W        W43448  17.867   6.974   2.292 -0.0053 -0.0040 -0.3540
30035W        W43449   0.376  14.903  10.568  0.3451  0.2548 -0.1499
30036W        W43450   3.623  13.470   2.550  0.0951 -0.0850 -0.0952
30037W        W43451   3.654   0.745  16.312 -0.3248  0.2404  0.2617
30038W        W43452   8.010   1.327  12.297  0.0558  0.0356 -0.2885
30039W        W43453   7.125  17.112   3.076  0.1521  0.1042  0.0155
30040W        W43454   4.593  12.049   0.258  0.1715 -0.3103  0.1098
30041W        W43455  17.995   3.843   2.655  0.2824 -0.2011  0.0754
30042W        W43456   8.981   4.019  12.521  0.2074 -0.2362  0.2593
30043W        W43457   1.408  16.264  14.081 -0.0444 -0.0043  0.0740
30044W        W43458  12.032   2.860   4.972  0.0325 -0.3446  0.1884
30045W        W43459  13.663   0.435   2.580 -0.0287  0.1868  0.0593
30046W        W43460  13.854   3.303  15.265  0.1169  0.1457 -0.0938
30047W        W43461   2.855  13.158   6.282  0.5185  0.3178 -0.4386
30048W        W43462   5.098  14.773   5.405 -0.0895 -0.1005 -0.0680
30049W        W43463   7.616  11.357   2.329  0.1512 -0.1483  0.0207
30050W        W43464   2.806   5.203   2.357 -0.0303 -0.0304 -0.2196
30051W        W43465   5.172  12.678  14.446 -0.0271 -0.2626 -0.2090
30052W        W43466   3.985   9.845   2.374  0.0381  0.2001 -0.2120
30053W        W43467  17.344  15.035  13.763  0.0556 -0.0156  0.2537
30054W        W43468   4.463  13.016   1.219 -0.2076 -0.3962  0.4487
30055W        W43469  13.631   2.911  11.145 -0.1790 -0.1164 -0.1802
30056W        W43470   7.207  11.091  12.097 -0.1652 -0.0788  0.1499
30057W        W43471   6.447  13.251  13.092  0.0780 -0.0302  0.0641
30058W        W43472  10.215  12.499  10.226 -0.1652 -0.1878 -0.0375
30059W        W43473  13.651   2.062  10.959  0.0686 -0.1222 -0.1066
30060W        W43474  12.448  12.217  11.710 -0.0132 -0.3505  0.0553
30061W        W43475  13.806   5.566  14.374  0.0727 -0.0087  0.1755
30062W        W43476   0.341  12.401  11.590  0.0663 -0.2236  0.0388
30063W        W43477   8.169   1.447  13.225 -0.2030 -0.3662 -0.2824
30064W        W43478  13.345   8.209   3.468  0.1345  0.1873  0.0333
30065W        W43479   5.461   5.811   5.016 -0.0347 -0.0330 -0.1036
30066W        W43480  12.413  13.694  14.197  0.0126 -0.2409  0.1668
30067W        W43481  15.719   3.723  12.128 -0.0958 -0.1018  0.0408
30068W        W43482   0.428   4.761   5.506 -0.1765 -0.0388  0.1466
30069W        W43483  13.191   9.256   5.067  0.3181 -0.0800  0.0958
30070W        W43484   2.922   9.053  11.176  0.3129 -0.1321 -0.0662
30071W        W43485  16.252  15.062   2.831 -0.3157 -0.1950  0.3738
30072W        W43486  12.725   1.873  16.357 -0.0328  0.0718  0.1342
30073W        W43487  12.009  16.527   0.247  0.0131 -0.2600  0.1189
30074W        W43488   5.557  16.677   2.903  0.1834 -0.0637 -0.0816
30075W        W43489  14.623   4.558  13.821 -0.0448  0.2569  0.1166
30076W        W43490   0.175   7.724   0.042  0.3716  0.0570  0.0913
30077W        W43491   4.798   5.790  10.844 -0.0314  0.0886 -0.3394
30078W        W43492   0.743   5.542   5.284  0.0789  0.1505  0.2520
30079W        W43493  13.829   9.435  15.504 -0.3578  0.2997 -0.0614
30080W        W43494  17.484   5.437   3.994  0.0010  0.1609 -0.2274
30081W        W43495  18.039   6.858   6.209 -0.1712  0.2069  0.1791
30082W        W43496  16.778   2.768   2.835  0.2199 -0.0137 -0.1976
30083W        W43497   9.554   0.746  11.769 -0.1738 -0.0467  0.2523
30084W        W43498   7.561   1.989   3.247  0.1823 -0.1880  0.2543
30085W        W43499   5.827  14.334   0.885 -0.2566  0.0550  0.0677
30086W        W43500  14.304   7.795   3.203  0.3634  0.3841  0.0139
30087W        W43501   1.597  11.702   1.264 -0.2183  0.3824 -0.0000
30088W        W43502   0.507  15.973  11.301  0.0223 -0.1483  0.1366
30089W        W43503  14.524   6.834  12.318  0.0146 -0.0758 -0.0482
30090W        W43504  15.777   1.590  13.751 -0.1933 -0.0786  0.2414
30091W        W43505   2.739  16.837  10.872  0.0635 -0.0376  0.0727
30092W        W43506   5.361   8.769  12.034 -0.0133 -0.0903  0.0813
30093W        W43507  10.145   2.501   2.505  0.2279 -0.2707  0.1815
30094W        W43508  13.555   2.539  13.203 -0.0030 -0.1894 -0.0192
30095W        W43509  10.252   7.650   2.759 -0.0048 -0.2759  0.0865
30096W        W43510  15.731   6.159   2.997 -0.4668  0.1071  0.0729
30097W        W43511   3.265  12.351  16.317  0.0121 -0.0843 -0.0163
30098W        W43512  11.214  18.001   3.795  0.0983 -0.1217  0.1017
30099W        W43513   1.579   1.745   4.024  0.1203 -0.0678  0.0018
30100W        W43514   6.761  10.013  14.200  0.0523 -0.2173 -0.0822
30101W        W43515  11.590   6.831  13.575  0.3301 -0.1258  0.0510
30102W        W43516   0.682   2.085   2.056  0.2499  0.2834  0.2243
30103W        W43517   4.620  11.829   4.166 -0.3424 -0.2904 -0.0192
30104W        W43518   5.061  13.408  15.157  0.1383  0.0528  0.0058
30105W        W43519   8.797  13.465   3.035 -0.1048 -0.0731  0.0258
30106W        W43520   1.031   6.161  12.208 -0.0867  0.2620 -0.0529
30107W        W43521   4.497  12.899   4.002  0.0156 -0.5187 -0.2334
30108W        W43522  11.212  16.414  10.428  0.2012 -0.2176  0.2263
30109W        W43523   7.727   7.622  16.234  0.1936  0.0537 -0.1361
30110W        W43524   3.099  12.788   4.187 -0.1025  0.0265 -0.0076
30111W        W43525   3.999  17.392   0.813 -0.2868 -0.2267  0.0383
30112W        W43526   6.520  14.078  13.543  0.0214 -0.0258  0.0692
30113W        W43527  10.498  12.622   4.353 -0.1715 -0.1398 -0.0957
30114W        W43528   8.185  16.510  14.879 -0.1345 -0.1476 -0.2611
30115W        W43529   8.509  12.677  12.480 -0.2186 -0.0721 -0.0558
30116W        W43530   3.714   5.074   4.759  0.1054 -0.3371  0.0109
30117W        W43531   3.937   1.900  16.099  0.1774 -0.3021  0.0687
30118W        W43532   1.534  14.442   0.166 -0.1000  0.0536  0.0460
30119W        W43533  14.133   9.009  14.085  0.1628  0.2135  0.0062
30120W        W43534   3.855   8.782   3.185  0.2465 -0.2648  0.0347
30121W        W43535   6.340  15.369  13.126 -0.3004 -0.0983 -0.1345
30122W        W43536  11.755  14.237  12.421 -0.2412  0.1599  0.2370
30123W        W43537   5.408   0.319  14.194 -0.0305  0.0550  0.2222
30124W        W43538   6.177  16.644   0.406 -0.1382 -0.0232  0.2372
30125W        W43539   4.638   5.406  11.178  0.0367 -0.0031 -0.2899
30126W        W43540   8.653   0.923   2.534 -0.1633  0.0732  0.0033
30127W        W43541   6.313  10.889   2.671  0.0790 -0.0184 -0.1257
30128W        W43542  13.385  17.367  12.120 -0.0120 -0.0260  0.0734
30129W        W43543  10.023   1.453  16.585  0.1994 -0.1099 -0.0883
30130W        W43544   3.628   3.678   2.902  0.1627  0.0424  0.0663
30131W        W43545  17.840   3.012  14.777 -0.1414 -0.1693 -0.1181
30132W        W43546   6.115  11.908  12.343  0.2338 -0.0776 -0.0843
30133W        W43547  10.087   8.945  10.700 -0.4059 -0.1684 -0.0142
30134W        W43548   2.084  16.206   2.550 -0.0679  0.2201 -0.0255
30135W        W43549   6.750  11.848   5.307  0.0573 -0.2155 -0.1214
30136W        W43550   7.620   5.010  15.988  0.1483  0.0169 -0.0341
30137W        W43551   1.504  14.654  14.481  0.0009  0.1295  0.0069
30138W        W43552  15.328  11.118  14.987 -0.2097  0.1377  0.2774
30139W        W43553   9.555   7.920  12.386  0.0198 -0.2165  0.1062
30140W        W43554  12.773  16.801  11.677  0.0147 -0.0552  0.0606
30141W        W43555   6.197  17.861   5.523  0.0179  0.0282 -0.0636
30142W        W43556   2.577   8.076   5.694  0.1067  0.2522 -0.0293
30143W        W43557   3.084  13.420   0.916  0.0081 -0.0372  0.1377
30144W        W43558   5.998  10.272  12.117  0.0388 -0.2429  0.0699
30145W        W43559   8.777  10.419   0.710 -0.0387 -0.3778 -0.0258
30146W        W43560   5.716  14.040   6.318 -0.0609  0.0598  0.0349
30147W        W43561   4.563   3.678  16.272 -0.0327  0.0720 -0.1633
30148W        W43562   6.095  10.152   1.644  0.0382  0.1957  0.0775
30149W        W43563   6.397   3.704   5.437  0.3824  0.0635  0.1348
30150W        W43564  13.289   1.459   6.213 -0.0318  0.0322  0.2187
30151W        W43565   7.992   3.999  13.499 -0.1678 -0.0329  0.3320
30152W        W43566   2.437   0.549   4.428 -0.0326 -0.1987  0.2127
30153W        W43567  13.552   3.665   3.422 -0.1127  0.0067 -0.1275
30154W        W43568   9.898  17.517   5.040  0.0208 -0.4817  0.2595
30155W        W43569  16.649   7.435  11.636  0.1512  0.1637 -0.1842
30156W        W43570  18.026  12.285  16.413 -0.4062 -0.0420 -0.0177
30157W        W43571  16.873   7.920   1.911  0.1902 -0.0077  0.1185
30158W        W43572  10.660   2.010   5.364 -0.0924 -0.0004 -0.0886
30159W        W43573  11.493   6.409  13.183  0.0129  0.2626  0.0030
30160W        W43574   2.817  13.155  10.063  0.1470 -0.3470  0.0194
30161W        W43575   3.108   1.117   4.947  0.1653 -0.2504 -0.0881
30162W        W43576   8.713   7.662   2.030  0.1437 -0.3127  0.0952
30163W        W43577  17.346  15.295   2.110  0.2116 -0.3375  0.1907
30164W        W43578  12.586   9.571  11.552  0.0876 -0.0198 -0.1873
30165W        W43579  12.778   9.605  13.769 -0.0163  0.0241  0.1864
30166W        W43580  13.686   0.212   0.766  0.3244 -0.0897  0.1714
30167W        W43581  16.988   0.191  12.365 -0.1784  0.1029 -0.0401
30168W        W43582   5.165   0.110   2.974  0.0784 -0.1563 -0.0825
30169W        W43583  10.481  15.209  12.931  0.0881 -0.1506 -0.1871
30170W        W43584   6.270   7.042  11.763 -0.1153 -0.1896  0.0203
30171W        W43585   6.960  16.661  14.977 -0.1908  0.2215 -0.1970
30172W        W43586   1.380   7.710   4.809 -0.2640 -0.1210 -0.1919
30173W        W43587  13.394  10.653   4.488  0.1133 -0.1175  0.2726
30174W        W43588   6.408  14.170  16.408 -0.0596  0.1721  0.3134
30175W        W43589  11.193   9.072  13.360 -0.2157 -0.1823  0.0286
30176W        W43590   0.901  17.182   5.761  0.2419  0.0336 -0.0532
30177W        W43591   9.530   3.709  14.048 -0.1511 -0.1587 -0.2861
30178W        W43592   0.686   7.770   3.286 -0.2122  0.2067  0.1172
30179W        W43593   8.899   5.420  14.524 -0.0673 -0.2309  0.1717
30180W        W43594   4.628  17.411  13.382 -0.1615  0.2136 -0.3863
30181W        W43595   0.923   2.045   0.836  0.2180  0.0321  0.1152
30182W        W43596   7.920  14.269  16.385  0.1437 -0.3093  0.1135
30183W        W43597   0.544  16.495   2.956  0.2921  0.0473  0.1476
30184W        W43598   1.078   0.026   4.380  0.1557  0.2661 -0.1244
30185W        W43599  13.090  15.448   5.211 -0.1234 -0.0578 -0.0373
30186W        W43600   4.952  17.114   0.332  0.1094  0.1447  0.0760
30187W        W43601   0.694  14.826   5.428 -0.0895 -0.3672  0.2733
30188W        W43602   7.449   6.147   2.118 -0.0526 -0.4158  0.1515
30189W        W43603  14.676   1.176   4.943  0.0756  0.1520  0.1915
30190W        W43604   6.650  10.694   0.453 -0.0977  0.0098  0.0318
30191W        W43605   0.909   1.685   3.335 -0.0308  0.1113  0.0344
30192W        W43606  12.051   6.895  13.545 -0.1395  0.0942 -0.0496
30193W        W43607  17.457  14.407   4.851  0.0489 -0.1335  0.1273
30194W        W43608  10.174  14.532  14.006  0.2759 -0.2379  0.0156
30195W        W43609   7.944  13.472   3.840  0.3538 -0.0298  0.0361
30196W        W43610  17.360  12.455  12.005  0.0829 -0.1986 -0.1350
30197W        W43611   8.710  14.665  14.722 -0.0346  0.0074  0.3611
30198W        W43612  11.077  17.443   2.992 -0.3043 -0.0839 -0.1054
30199W        W43613   2.784   7.104   2.741  0.0677  0.0942 -0.0442
30200W        W43614  17.947  11.123  14.011 -0.3316  0.0820  0.0436
30201W        W43615   2.851   0.522  14.889  0.1731 -0.1731  0.0989
30202W        W43616  12.980   5.010  14.753 -0.0315  0.1540 -0.2078
30203W        W43617  12.553   2.207   1.116  0.0413  0.1389 -0.2660
30204W        W43618   9.948   1.265  13.219 -0.2099  0.0740 -0.0261
30205W        W43619   5.077   5.363  13.007 -0.1966 -0.0553  0.1394
30206W        W43620  13.074   6.562  15.637 -0.1737  0.0915  0.0203
30207W        W43621  17.014   6.101   7.077 -0.0243  0.1646  0.2628
30208W        W43622  16.613   2.978   6.684 -0.1643  0.1355  0.0600
30209W        W43623  13.859   8.478  12.684 -0.1914  0.0081 -0.1327
30210W        W43624   6.543  15.325  14.954 -0.2804  0.2382  0.0846
30211W        W43625  10.714   3.872  14.386  0.1380  0.1787 -0.1283
30212W        W43626   4.366   1.523  14.816 -0.0856 -0.2600  0.2827
30213W        W43627  11.213  10.540   4.219  0.1230  0.0324 -0.0312
30214W        W43628  17.593   1.158   3.352  0.1447  0.0098  0.0173
30215W        W43629  13.163  13.373   5.610 -0.0671 -0.0215 -0.0065
30216W        W43630   5.376   4.782  13.046 -0.2163  0.2039 -0.0803
30217W        W43631   0.604  13.673  14.193 -0.4832 -0.2354  0.1885
30218W        W43632   8.693   6.595   2.219  0.2370  0.0432  0.2448
30219W        W43633   1.464   8.319   3.842  0.1032 -0.0611 -0.0327
30220W        W43634   9.375  15.353  14.937  0.2597 -0.0220 -0.0604
30221W        W43635   5.538  17.509   2.684  0.0774 -0.1987  0.0981
30222W        W43636   8.363  11.139   1.661 -0.3059 -0.4510 -0.0366
30223W        W43637   7.924   7.025   5.411  0.0510 -0.0383 -0.4672
30224W        W43638   5.864   0.611   6.013  0.1050  0.0428  0.0058
30225W        W43639   5.825   9.725  15.735 -0.1275 -0.1011  0.0965
30226W        W43640   3.973  13.664  12.275 -0.1350 -0.0788  0.0955
30227W        W43641   7.388   3.250   2.050  0.0708  0.1700 -0.3411
30228W        W43642   4.746   6.733  12.798 -0.2107  0.1839 -0.3937
30229W        W43643  14.266   7.010   5.066 -0.2428 -0.1214  0.0497
30230W        W43644   6.389   1.607  11.391 -0.0192  0.0381  0.1269
30231W        W43645  18.024  14.857  14.193  0.2634 -0.1241  0.3633
30232W        W43646   2.401  15.532  12.796 -0.0166 -0.3563 -0.1368
30233W        W43647   1.877   2.963   1.807  0.0558 -0.3530 -0.0815
30234W        W43648   8.777  12.694  15.142 -0.1284 -0.2036 -0.0879
30235W        W43649   2.095   6.467   4.526 -0.0175 -0.4047  0.0549
30236W        W43650   0.911   4.617   5.574  0.1509 -0.2783 -0.2129
30237W        W43651  12.666   0.139   3.031 -0.1111 -0.1544  0.2627
30238W        W43652  11.857  12.315   5.414 -0.1600 -0.1464  0.2326
30239W        W43653  12.485  11.807  15.857  0.1112  0.4896 -0.2080
30240W        W43654  17.142   0.107  15.543 -0.1354 -0.1522 -0.0367
30241W        W43655  17.591   4.513  15.478 -0.1625 -0.2135 -0.2163
30242W        W43656   3.818   2.085   3.555 -0.0386  0.0977 -0.0443
30243W        W43657  11.287   8.040  12.915  0.0435 -0.2201 -0.1622
30244W        W43658   2.040   6.016  14.362  0.0129  0.0083 -0.4591
30245W        W43659   6.687  15.329   5.767  0.5259  0.1220 -0.4092
30246W        W43660   7.881   5.021  11.295 -0.0967  0.1815  0.2536
30247W        W43661   5.639  14.340  12.896 -0.1654 -0.0533 -0.0383
30248W        W43662   1.052   8.277  15.563  0.1277 -0.1628 -0.1055
30249W        W43663   9.207   9.446   0.929  0.3717 -0.0993 -0.0932
30250W        W43664  16.261   5.278   1.734  0.0896  0.2279  0.0007
30251W        W43665   3.939   4.834  16.627 -0.2306 -0.0594  0.1257
30252W        W43666   5.245   8.679   2.227  0.1065 -0.1913  0.2986
30253W        W43667   5.845  12.020   0.132  0.2812 -0.0703 -0.0558
30254W        W43668  16.971  18.053   5.793 -0.0096 -0.0410  0.0962
30255W        W43669  10.830   8.130   2.480 -0.1049 -0.0879  0.0383
30256W        W43670  11.208   4.455   0.772 -0.0173 -0.0334 -0.0092
30257W        W43671  14.386  14.188   5.815  0.0334  0.0819  0.0799
30258W        W43672  13.006  14.074   0.061  0.0670 -0.3147  0.0483
30259W        W43673  10.730  12.030   2.123  0.1485  0.1504  0.1114
30260W        W43674  13.262   2.384  11.015 -0.0450 -0.2060  0.2149
30261W        W43675  16.965   5.434  12.875 -0.2931  0.1300  0.1111
30262W        W43676  10.454   0.595  13.370  0.2277 -0.0934 -0.1952
30263W        W43677  13.271   8.025   6.058  0.1704  0.1615  0.2798
30264W        W43678   4.761   0.175  15.936  0.2919  0.2938 -0.0484
30265W        W43679   9.837  15.997  11.597 -0.1588  0.2924 -0.0156
30266W        W43680   4.500   4.672   0.696  0.1456 -0.2347  0.0504
30267W        W43681   0.665   5.231  13.382 -0.3734 -0.3145 -0.3904
30268W        W43682  16.383  15.151  15.737 -0.1268  0.1062  0.2920
30269W        W43683  15.824   8.725  13.554 -0.0900 -0.0300  0.0012
30270W        W43684   2.092  17.992   2.685  0.1326 -0.0031  0.0172
30271W        W43685   3.318  16.490  15.402 -0.2706  0.0507 -0.1311
30272W        W43686  15.089  12.729  12.163  0.1200  0.1988 -0.0950
30273W        W43687   0.013   3.344  13.953 -0.1842 -0.0355  0.1191
30274W        W43688  13.213  13.769   4.307  0.0188 -0.0095 -0.1398
30275W        W43689   5.220   2.281   3.262  0.1811  0.0585 -0.1449
30276W        W43690   0.742   0.116  13.802 -0.1102 -0.1426  0.0517
30277W        W43691  15.982   6.971  12.233 -0.1267 -0.4318 -0.0175
30278W        W43692   3.887   1.191  13.624 -0.2182 -0.1343 -0.2038
30279W        W43693   1.361  13.601  14.744 -0.1735  0.0912 -0.3035
30280W        W43694   2.206   5.913  16.056 -0.4367 -0.0319 -0.2137
30281W        W43695   9.550   8.904  15.525  0.2208 -0.2480  0.2217
30282W        W43696  11.381  10.441   2.028 -0.1738  0.2146 -0.0284
30283W        W43697  10.988  13.063   0.707  0.2119 -0.2479 -0.1007
30284W        W43698   5.635  17.230  14.990  0.2549  0.3382  0.0085
30285W        W43699   1.215   1.299   6.029 -0.1995 -0.0466 -0.0111
30286W        W43700  13.833  17.365  13.445  0.1443  0.0127 -0.1746
30287W        W43701   4.164  11.552  11.017  0.1544  0.2633  0.1183
30288W        W43702  16.516   1.070   5.790  0.3099  0.0574 -0.3771
30289W        W43703   6.052  12.310   3.726 -0.1417 -0.1053 -0.1714
30290W        W43704   5.493   4.520   1.727  0.0486 -0.0526 -0.0946
30291W        W43705  14.644  15.778   1.732 -0.1083  0.1188  0.0183
30292W        W43706  12.444   6.472   5.200  0.2564 -0.3763 -0.1667
30293W        W43707  16.379  14.471  14.721  0.0429 -0.0373  0.2185
30294W        W43708  17.788  15.048  13.490 -0.0782  0.0917  0.2429
30295W        W43709  10.056   1.151   5.197  0.2470  0.3793  0.1161
30296W        W43710  14.869   7.898   5.869 -0.0413 -0.1202  0.2232
30297W        W43711  17.284  16.448   1.799  0.0319  0.0928 -0.3286
30298W        W43712   1.343   6.243  15.072  0.1318  0.1364  0.0440
30299W        W43713  16.833  14.970   1.273  0.2161  0.1975  0.2666
30300W        W43714  10.879  16.538   0.178  0.1311 -0.3251 -0.1862
30301W        W43715  17.104   2.939  12.517  0.1009 -0.1064  0.1515
30302W        W43716   0.688   1.790   0.338 -0.1863 -0.2059  0.0008
30303W        W43717   7.117   4.676  12.325 -0.1145  0.1920 -0.0855
30304W        W43718  11.596  12.833  10.939 -0.0886 -0.2755  0.1416
30305W        W43719   3.231   2.719  14.521  0.2988  0.0234 -0.0510
30306W        W43720  12.238   3.244  12.211 -0.2295  0.0612 -0.0690
30307W        W43721   8.787   3.206  11.284  0.0091 -0.0147 -0.1632
30308W        W43722  14.942  14.092  16.517 -0.0388  0.1152 -0.1207
30309W        W43723  11.466   7.349   3.126 -0.0867 -0.0555  0.0997
30310W        W43724  13.628   9.137   6.463 -0.1361 -0.0995 -0.0180
30311W        W43725  11.480  12.560   2.590 -0.0874  0.0811 -0.0576
30312W        W43726   3.195  15.713  13.584  0.2553 -0.1006  0.5710
30313W        W43727  15.454   0.301   7.096 -0.0603  0.0409  0.0628
30314W        W43728   8.058  14.420  14.090  0.0101 -0.0334 -0.0641
30315W        W43729   4.668   3.435   5.550  0.2231  0.0279 -0.1416
30316W        W43730   7.618   1.116  14.234 -0.1510  0.0004 -0.0822
30317W        W43731   8.175  10.921  14.030  0.0001 -0.1166 -0.2449
30318W        W43732  12.842  13.750   4.828  0.0518 -0.1672  0.3850
30319W        W43733   4.965  13.740   5.242  0.0586  0.3874  0.1040
30320W        W43734  11.598   4.787  11.232  0.0569 -0.0993  0.2959
30321W        W43735   9.693   9.591  15.475  0.1767  0.0120 -0.0726
30322W        W43736   6.595  12.046  12.455 -0.0605 -0.1700  0.0603
30323W        W43737  11.757  16.331  16.528  0.0820 -0.3578 -0.0216
30324W        W43738  17.865  12.214   5.560  0.1185  0.2170  0.0004
30325W        W43739  13.080  15.960  12.952  0.1410 -0.2796 -0.0369
30326W        W43740   0.644   1.770  13.559 -0.2185  0.2490 -0.3049
30327W        W43741  15.245   4.816   0.733  0.2221  0.0507 -0.0137
30328W        W43742  13.144   1.111  16.572  0.0869  0.1307  0.2123
30329W        W43743   1.146  15.016   1.279  0.1078  0.2475 -0.1999
30330W        W43744  17.341   5.351  14.420 -0.2258 -0.3212 -0.0812
30331W        W43745   4.079  10.550  15.760  0.1304  0.1043 -0.0778
30332W        W43746  12.691  15.876  10.794 -0.2932 -0.1515  0.3201
30333W        W43747  16.307  15.023   1.660 -0.0879 -0.1553 -0.1940
30334W        W43748  18.041  11.821  16.691  0.1290  0.0599  0.0721
30335W        W43749   4.545  10.884  14.982  0.1364  0.4098  0.0068
30336W        W43750  12.943  11.162   2.315 -0.2708  0.2361 -0.0617
30337W        W43751  11.085   7.902  15.417 -0.3007  0.1341 -0.0578
30338W        W43752   7.838   5.829   0.277 -0.1314  0.1037  0.0160
30339W        W43753  14.129  16.658  15.333  0.1637  0.3677 -0.0278
30340W        W43754  13.848   0.025   2.350  0.4543  0.1302 -0.1813
30341W        W43755   8.881  17.298   0.952 -0.0401 -0.0907 -0.0205
30342W        W43756  10.902   0.336  14.617 -0.0859 -0.0389  0.0982
30343W        W43757   9.953   0.062   1.829  0.0698 -0.1817  0.1742
30344W        W43758  15.080   2.369   2.416  0.1381  0.1981 -0.1850
30345W        W43759   8.983   7.357  15.951 -0.0890 -0.0421 -0.2453
30346W        W43760   1.242   9.779  12.841 -0.1424 -0.0949  0.0797
30347W        W43761   5.405  16.998  13.863 -0.0939  0.3172  0.1123
30348W        W43762   6.137   2.890   5.788 -0.1465  0.0623 -0.3941
30349W        W43763  11.463   3.975  16.452  0.0661  0.3215  0.1482
30350W        W43764  17.652  17.644   0.063 -0.3735  0.0039 -0.0561
30351W        W43765   1.000   8.794   5.967 -0.0542 -0.0905 -0.1569
30352W        W43766   2.469   2.098  13.761 -0.1394  0.2136 -0.0242
30353W        W43767  15.668  11.737  12.013 -0.2229  0.0686 -0.1122
30354W        W43768   2.821   6.012  13.106 -0.0875 -0.0453  0.0950
30355W        W43769  10.766  13.274   1.202 -0.0349 -0.2128 -0.2391
30356W        W43770  15.920  11.930  11.483 -0.2947  0.3303 -0.0015
30357W        W43771  14.060  17.665  15.333  0.0000 -0.0366  0.2100
30358W        W43772  16.511  13.832   1.986  0.2562 -0.1371  0.2314
30359W        W43773  13.362  13.824  11.340 -0.1500  0.1605 -0.0822
30360W        W43774  15.754   2.439  11.457 -0.2369  0.2031 -0.0140
30361W        W43775   9.780   5.016  15.104 -0.0030  0.1122 -0.0949
30362W        W43776   3.061   1.218   5.462 -0.1583 -0.1610 -0.0080
30363W        W43777  16.049   1.022   6.022  0.1806  0.0695 -0.0383
30364W        W43778  17.952  17.016   3.211 -0.1374  0.1422 -0.0606
30365W        W43779   7.247  14.380   2.568 -0.2097  0.0661  0.2949
30366W        W43780   7.042   8.021   1.724 -0.0789 -0.0947 -0.1664
30367W        W43781   2.898  11.219   2.548 -0.0021 -0.1364 -0.0264
30368W        W43782  17.923  13.969  12.209  0.1247  0.0351 -0.1114
30369W        W43783  13.346   6.664   1.379  0.1022 -0.2856  0.1888
30370W        W43784  15.268  13.803  11.304 -0.0030 -0.0581 -0.2123
30371W        W43785  11.051  16.751  16.086  0.1152  0.0007 -0.2288
30372W        W43786  17.530  13.682  14.556 -0.3347  0.2615 -0.3904
30373W        W43787   4.617   0.828  13.171  0.2876 -0.0721 -0.0508
30374W        W43788  14.194  14.870  12.102 -0.2103  0.0384  0.0713
30375W        W43789   9.974   0.700  11.466  0.1322 -0.0685  0.2385
30376W        W43790   1.690  11.780   6.149  0.1782  0.1382 -0.1435
30377W        W43791   5.837   6.305  14.957  0.3339 -0.3337 -0.2003
30378W        W43792  10.492  16.841   4.502 -0.1394 -0.3736  0.0395
30379W        W43793   2.295  10.945  15.228 -0.0654  0.2254  0.3219
30380W        W43794  15.079  10.433   3.868 -0.1947 -0.2614  0.0103
30381W        W43795  14.077  11.835   3.353  0.1270  0.0755 -0.1447
30382W        W43796   7.187   7.695  16.256  0.0572  0.0775 -0.0107
30383W        W43797   1.254   7.221  14.049  0.2932 -0.4749 -0.0284
30384W        W43798  16.583   7.797  16.331  0.0001  0.1332  0.0706
30385W        W43799   2.354   3.142   3.239  0.0553  0.2064 -0.1131
30386W        W43800  14.163  10.098  10.839  0.0355  0.1669 -0.3996
30387W        W43801  16.810  10.263   5.820  0.3460  0.2648 -0.2889
30388W        W43802  13.851   3.133  14.601 -0.0755  0.0275  0.0267
30389W        W43803  16.510   7.787   3.112 -0.0141  0.4064 -0.0935
30390W        W43804   3.400   0.375   0.457 -0.3066 -0.0618 -0.1687
30391W        W43805   9.324   8.725  12.371 -0.2081 -0.2108  0.1464
30392W        W43806   7.535  13.793   6.125  0.1657  0.1145  0.0626
30393W        W43807  13.876  11.966   0.220  0.0045  0.1074 -0.1306
30394W        W43808  17.595  13.768  15.113 -0.3466 -0.0569 -0.3094
30395W        W43809  15.921   9.693  14.049  0.1018 -0.2751 -0.2036
30396W        W43810   3.137   1.750   4.759 -0.0065  0.0162 -0.1691
30397W        W43811   2.986  17.849   5.454 -0.1915  0.2518  0.0815
30398W        W43812   8.615   2.776   1.118 -0.0651 -0.1462 -0.1901
30399W        W43813  10.898   1.597   4.503 -0.1030 -0.2716  0.1238
30400W        W43814   4.671  13.873   0.851  0.1955  0.1739 -0.0088
30401W        W43815   6.116   2.526  11.408 -0.2293  0.0570  0.2107
30402W        W43816   3.722   1.210  11.020  0.0588 -0.1652  0.0879
30403W        W43817  17.336  15.606  16.530  0.1249  0.0434  0.0400
30404W        W43818  11.433   2.697   1.698  0.3439  0.0712 -0.1160
30405W        W43819  10.248   3.476   1.013  0.2782 -0.3990 -0.1922
30406W        W43820   8.740  12.685   3.631 -0.1651  0.1635 -0.1490
30407W        W43821  11.558   0.288  13.954 -0.2288  0.0566  0.3971
30408W        W43822   8.276  17.321   0.975 -0.1901 -0.2408  0.1864
30409W        W43823  17.995   6.318  14.017  0.1265  0.0890 -0.1301
30410W        W43824   4.592  16.516   1.726  0.0350  0.0378  0.1463
30411W        W43825   0.691   8.485  11.636  0.3803 -0.1685  0.1136
30412W        W43826  12.676  13.314  11.080 -0.1808 -0.0895  0.3476
30413W        W43827  10.828   0.828  12.060 -0.3609  0.1229 -0.1889
30414W        W43828   6.630  12.703   4.030 -0.0544 -0.1025 -0.0751
30415W        W43829   6.452  11.369   5.463  0.0230  0.0785 -0.0828
30416W        W43830   2.343   4.636  11.945 -0.0143  0.2155 -0.3109
30417W        W43831  13.848   8.768   4.402  0.0533  0.0988 -0.0435
30418W        W43832   3.320   2.960   4.453 -0.0581  0.2652 -0.1065
30419W        W43833  11.800  16.967   4.960 -0.1390 -0.1679  0.1708
30420W        W43834   9.623  15.420  13.448 -0.0841 -0.0092  0.0474
30421W        W43835   7.128   7.265  16.001  0.0036 -0.0274  0.2376
30422W        W43836   9.471   4.383   3.908  0.0779 -0.1848  0.0425
30423W        W43837  12.227   0.165   2.663  0.1893 -0.1534 -0.1720
30424W        W43838   7.275   8.794   2.979 -0.0383 -0.1022  0.0543
30425W        W43839   5.009  16.681  11.551 -0.1043 -0.0541  0.2207
30426W        W43840  12.005  10.870  10.597 -0.2326  0.2608 -0.2059
30427W        W43841  12.983   3.269   3.075 -0.0528 -0.0921 -0.0906
30428W        W43842  18.050  17.100   2.435 -0.0866  0.1175  0.1461
30429W        W43843   3.944   7.019   0.192  0.0957  0.0143  0.2190
30430W        W43844   1.999  16.449  15.670 -0.1355 -0.0002  0.1266
30431W        W43845   6.710  17.071   5.021  0.1480  0.1256 -0.1975
30432W        W43846   3.059   0.891   2.124  0.3362  0.1165  0.1077
30433W        W43847   2.054   0.764  14.095  0.2377  0.0857 -0.0778
30434W        W43848  12.820   7.105  12.223  0.0287  0.0176  0.2088
30435W        W43849  13.538   2.435   2.058 -0.1856 -0.0175 -0.2293
30436W        W43850  10.902  14.057   0.314  0.1623 -0.0206  0.0810
30437W        W43851   3.812  13.308   3.335  0.1981 -0.1926  0.1387
30438W        W43852  16.059  13.114  15.612  0.2185  0.0498  0.0516
30439W        W43853  13.142   4.120  13.857 -0.0549 -0.1298  0.0562
30440W        W43854   8.501   2.623   2.840 -0.1176 -0.1448 -0.2441
30441W        W43855  16.348   9.429   5.238 -0.1866 -0.1067 -0.0944
30442W        W43856  13.458   4.713   4.555 -0.3666 -0.1487 -0.3138
30443W        W43857   6.158  17.257  12.121 -0.0580 -0.2200 -0.3415
30444W        W43858   9.728   1.161  16.277  0.0154 -0.0830  0.1347
30445W        W43859   3.389  11.892  13.996 -0.0423 -0.0225 -0.4369
30446W        W43860  15.325   5.973   5.037 -0.2134  0.2832 -0.0229
30447W        W43861  16.944  17.486  13.534  0.0503  0.0365  0.3275
30448W        W43862   5.525   8.279   0.189 -0.3352 -0.0134  0.1252
30449W        W43863  15.268   7.264  12.861  0.0310  0.1323 -0.2079
30450W        W43864  12.800   6.647   4.838  0.0651 -0.3075 -0.0674
30451W        W43865  13.141   1.572  16.433  0.1096  0.2143 -0.0995
30452W        W43866   4.097   9.454  13.717  0.0158  0.0293  0.2341
30453W        W43867   6.679  13.822  14.279 -0.1067 -0.1198 -0.1376
30454W        W43868   4.626   4.440  13.157  0.2256 -0.0191  0.0516
30455W        W43869  15.744   0.511   0.697 -0.1835 -0.0787 -0.0989
30456W        W43870  12.416  16.988  12.056  0.2390 -0.3698 -0.1117
30457W        W43871  11.743  10.062  10.801  0.1457 -0.2884  0.2706
30458W        W43872   4.753  15.546  14.465 -0.1557 -0.1459 -0.3165
30459W        W43873  16.717   4.084  12.352  0.0501 -0.0340 -0.1758
30460W        W43874  17.545  12.986  12.255 -0.1444  0.3423  0.2108
30461W        W43875   8.652   3.454  15.737  0.2053 -0.1433 -0.0855
30462W        W43876  15.493  10.961  11.560 -0.0675 -0.2482 -0.1624
30463W        W43877  13.257  17.913  14.120 -0.0777 -0.0907 -0.0179
30464W        W43878  15.547   1.530  15.595 -0.0986  0.3023  0.3790
30465W        W43879  15.235  11.597   4.743  0.2606  0.0958 -0.1902
30466W        W43880  15.388   7.825   5.543 -0.1975  0.3452 -0.1971
30467W        W43881  11.163  13.618  13.442 -0.0955  0.1689 -0.0266
30468W        W43882   1.504   4.735  14.325  0.0249 -0.0806 -0.3301
30469W        W43883  15.676  14.466  14.926  0.0433  0.3094  0.1058
30470W        W43884  15.642  16.509  14.293 -0.2760 -0.1497 -0.3013
30471W        W43885   7.530  15.826   2.692 -0.0369  0.2215 -0.0312
30472W        W43886  10.445   0.225   2.038  0.0381  0.0714 -0.1133
30473W        W43887   1.232   7.530   6.187 -0.0727 -0.1703  0.0227
30474W        W43888   9.810  14.755   1.188  0.3213  0.1900 -0.0235
30475W        W43889   9.832  14.536  16.031 -0.0001  0.1369 -0.1890
30476W        W43890  14.275   5.740   5.458 -0.1464  0.1209  0.3264
30477W        W43891   5.948   7.107   1.068  0.0940  0.1986  0.0214
30478W        W43892  13.251  13.762   1.672 -0.1239 -0.2347 -0.1150
30479W        W43893   3.826  15.543  13.452 -0.3002 -0.1243 -0.0122
30480W        W43894  13.799  11.067  11.073  0.0599  0.0823  0.0421
30481W        W43895   4.065   0.837   5.762  0.2409  0.1641 -0.2898
30482W        W43896   5.704   2.113  15.324 -0.2046 -0.0152 -0.2112
30483W        W43897  15.474   9.552   5.344  0.1413 -0.2462 -0.0228
30484W        W43898   3.746  13.354  13.795  0.1093  0.1448 -0.0206
30485W        W43899   7.682   4.424  12.895 -0.3895  0.0933 -0.0422
30486W        W43900  10.704  16.711   1.086 -0.3072  0.0575  0.0664
30487W        W43901  15.583   4.069  14.910  0.3106  0.2997 -0.1591
30488W        W43902   3.395  13.189  13.427  0.1287 -0.0246  0.3266
30489W        W43903  12.825   5.811   4.617  0.1736 -0.0341  0.2202
30490W        W43904   7.614   7.760   0.574  0.1190  0.3465 -0.0034
30491W        W43905  13.729  16.390  10.620  0.0568 -0.1944  0.0418
30492W        W43906  10.610  15.695  16.224 -0.0882 -0.1118  0.3829
30493W        W43907  16.013  13.787  11.975  0.2471  0.3971  0.0423
30494W        W43908   5.711  13.224   5.627  0.0955  0.3197  0.1760
30495W        W43909   9.848   3.186  15.911 -0.2526  0.0201 -0.0765
30496W        W43910   6.499   4.785  11.142  0.2376 -0.1353 -0.1910
30497W        W43911   2.548   8.817   2.535  0.1114  0.3192  0.1668
30498W        W43912   2.106  13.167  16.110  0.1073  0.0645 -0.1720
30499W        W43913  11.323   4.915  10.670 -0.0951  0.1134  0.2929
30500W        W43914   5.095   1.520   3.984  0.6571  0.1645  0.1690
30501W        W43915  15.228  11.870  13.950  0.0261 -0.0471 -0.0130
30502W        W43916  17.687   9.471  12.779 -0.2696  0.3267 -0.4743
30503W        W43917  11.310  11.199   3.003  0.0692 -0.1458 -0.0175
30504W        W43918  15.764   1.292  11.916  0.2164 -0.1015 -0.0597
30505W        W43919   6.925   6.742   4.688  0.0300 -0.0213  0.1386
30506W        W43920   5.381   7.508   3.057  0.2614 -0.1758 -0.1244
30507W        W43921  12.863   9.966  11.434  0.1875 -0.1712  0.2863
30508W        W43922   0.620   6.610   5.441  0.1532  0.1424 -0.1342
30509W        W43923   5.109   0.733  15.882  0.0216  0.0437  0.0823
30510W        W43924  14.362   4.462  15.476  0.1401 -0.1209 -0.1889
30511W        W43925  11.356  17.998   9.916  0.0461  0.2251 -0.0736
30512W        W43926   8.136  11.084  11.348 -0.4567 -0.1112 -0.0853
30513W        W43927   3.875  13.184   2.856 -0.0689 -0.1355  0.1363
30514W        W43928  14.840  11.913  11.461 -0.2231  0.1351  0.1706
30515W        W43929  14.255  11.372   3.411 -0.0994  0.0336  0.0562
30516W        W43930   4.597  14.166  15.681  0.0520  0.1714 -0.1595
30517W        W43931   7.051   3.110  12.350 -0.1476 -0.0376 -0.0702
30518W        W43932  15.216   4.196   5.718  0.0857  0.0359  0.0834
30519W        W43933   1.699  16.072  15.018 -0.1951  0.1434  0.0605
30520W        W43934  15.181  15.076   1.988 -0.1433  0.1203 -0.0723
30521W        W43935   7.809  17.698  14.254  0.0235 -0.0756  0.2889
30522W        W43936   5.953  12.591   0.500  0.2167  0.1244 -0.2778
30523W        W43937  17.615   2.221  16.025 -0.1706  0.0420 -0.0292
30524W        W43938  13.646  10.416   2.156  0.2038 -0.1856  0.1168
30525W        W43939  11.895  11.851   2.196 -0.0159  0.0091  0.0837
30526W        W43940  14.153  17.354   2.916  0.2093 -0.0760 -0.1267
30527W        W43941   9.038   0.005   3.092  0.0885  0.1902 -0.0196
30528W        W43942   6.522  14.636  16.640  0.0436  0.1306 -0.0415
30529W        W43943   9.983   0.313   4.642  0.0606 -0.2148  0.0211
30530W        W43944   2.609  13.978  16.028 -0.1708 -0.0450 -0.1194
30531W        W43945   2.374  17.142  14.155 -0.2385  0.0438  0.2057
30532W        W43946   6.196   0.046   0.746 -0.0483 -0.1235  0.2207
30533W        W43947  16.151   0.514   5.150  0.2404  0.3753  0.0442
30534W        W43948   7.102   6.210  13.255 -0.0471 -0.0640  0.0923
30535W        W43949   5.558  11.955  16.094 -0.0972  0.2030  0.1206
30536W        W43950  16.246  16.381   5.427 -0.2069 -0.2813 -0.0991
30537W        W43951  10.806   5.151  14.128 -0.1286  0.1451  0.1766
30538W        W43952  11.486  17.361  16.474  0.0420  0.1224  0.1208
30539W        W43953  16.443  17.670   2.862 -0.2504  0.2393 -0.0857
30540W        W43954  11.546  10.895   4.080  0.1343 -0.2788  0.1206
30541W        W43955  16.116   3.002  13.631 -0.2333  0.0476  0.2355
30542W        W43956   0.336   6.151   4.856  0.0262 -0.2752 -0.1558
30543W        W43957   3.041   3.325  14.303 -0.0261  0.0738 -0.1452
30544W        W43958  12.383   8.846   2.824  0.1671 -0.0334 -0.0346
30545W        W43959   4.802   7.246  10.842  0.3204  0.1290 -0.1067
30546W        W43960   1.079  13.982  11.288  0.1882 -0.1182 -0.0812
30547W        W43961  10.297   4.497   5.434 -0.1297  0.2907 -0.2095
30548W        W43962  14.314   0.905  12.236  0.0152  0.0612  0.0793
30549W        W43963  10.662  16.895   3.496  0.2847  0.1031 -0.0235
30550W        W43964   2.364   4.173  10.836 -0.0009  0.2456  0.1936
30551W        W43965   9.958   6.287   3.271  0.2620  0.1312 -0.0181
30552W        W43966   8.119   9.592   5.216  0.4041  0.1528 -0.1206
30553W        W43967   5.347   4.518  16.645  0.3769  0.0426  0.0925
30554W        W43968   2.927   9.400  16.168 -0.1471  0.0440  0.0603
30555W        W43969   7.270  11.858   1.295  0.1692  0.0008  0.1828
30556W        W43970  11.771  11.559  11.972 -0.0713 -0.2101 -0.0707
30557W        W43971   4.611  16.560   2.628  0.0148  0.0970  0.0910
30558W        W43972   3.945  17.185  12.138 -0.0954  0.1177 -0.1218
30559W        W43973   2.885   4.003  12.191 -0.1290 -0.0093  0.0794
30560W        W43974   4.638   3.885   2.892  0.2577 -0.0127  0.0577
30561W        W43975   7.366   6.509  13.692  0.0087 -0.0115 -0.1407
30562W        W43976   3.888   7.931   1.171  0.1075 -0.0880 -0.0718
30563W        W43977  12.348   2.647   1.127 -0.0764 -0.0129 -0.1606
30564W        W43978  14.895   1.952  13.373 -0.0987 -0.0471  0.0452
30565W        W43979  16.518   6.467   0.809  0.3043 -0.0317  0.1011
30566W        W43980   0.659   8.706   0.126 -0.1037 -0.3152 -0.0468
30567W        W43981   0.243  11.181   1.393 -0.2193  0.1508 -0.0577
30568W        W43982  11.583   4.776   0.745  0.0315  0.2747 -0.0349
30569W        W43983   5.394   7.722   5.906  0.2729  0.2189  0.1449
30570W        W43984  10.371  15.212   5.114 -0.2133 -0.1276  0.0481
30571W        W43985   5.645   4.898  14.631 -0.2174 -0.0285  0.0487
30572W        W43986  14.330   1.366  13.882 -0.2956 -0.1699 -0.1475
30573W        W43987   5.564  14.569   0.174 -0.1226  0.0272 -0.2282
30574W        W43988  16.355   3.543   5.013  0.5080  0.0869  0.1547
30575W        W43989  14.215   5.278   0.539 -0.0489 -0.0776 -0.1308
30576W        W43990   4.130  16.638   0.330 -0.1223 -0.0235 -0.0028
30577W        W43991   7.851  13.014   3.943  0.1180  0.2844  0.0963
30578W        W43992  10.648   7.955  14.178 -0.2145  0.1397  0.0156
30579W        W43993  14.792   6.862   1.699 -0.0245 -0.0867 -0.0188
30580W        W43994   0.871  17.713   2.849 -0.0127 -0.3748 -0.1672
30581W        W43995   1.202  17.560  13.251 -0.0011 -0.0652  0.0952
30582W        W43996   6.563  16.560  12.498 -0.2663 -0.0734  0.1490
30583W        W43997  17.703  10.096   1.147 -0.1407 -0.1853 -0.4341
30584W        W43998   1.274   5.093   3.413  0.0919 -0.2258 -0.0077
30585W        W43999   3.307  12.017   5.272 -0.0929 -0.0698  0.3114
30586W        W44000   4.072   3.415   1.611  0.2649  0.0595 -0.0988
30587W        W44001   6.492   5.392   3.599 -0.2549  0.0050 -0.1463
30588W        W44002  15.601   3.530   1.171  0.0921 -0.0810 -0.0426
30589W        W44003  12.559   8.566   2.444 -0.2664 -0.0192  0.0285
30590W        W44004  11.123  13.968  15.406  0.1273  0.0458 -0.0359
30591W        W44005   3.075   9.015   4.310  0.1786  0.0392  0.1110
30592W        W44006  17.471  15.767   3.650 -0.0094 -0.1333  0.2143
30593W        W44007   2.451   1.880   3.087 -0.1405 -0.2695  0.2298
30594W        W44008   0.295   0.430   0.967  0.1080 -0.1005  0.0879
30595W        W44009  14.977  12.402  10.635 -0.1411  0.0923 -0.1087
30596W        W44010  12.815  17.452   1.685 -0.5354  0.0752  0.0706
30597W        W44011  13.388   3.306   5.123 -0.1396 -0.2671 -0.0612
30598W        W44012   2.872   6.633   2.627  0.0594  0.0117  0.1098
30599W        W44013   8.579   7.119  11.589  0.1971 -0.2793  0.0933
30600W        W44014   0.397  15.397   3.644  0.3107  0.0281  0.1097
30601W        W44015   1.485   9.381  12.797  0.0035  0.2322  0.0934
30602W        W44016   4.920   4.547   1.311 -0.0439  0.2297  0.0463
30603W        W44017  10.631  10.124   2.506 -0.3739  0.1516  0.3360
30604W        W44018   6.626  11.127   4.771  0.1034 -0.0215  0.2295
30605W        W44019  17.706  17.476   4.147  0.2759 -0.4178  0.0614
30606W        W44020   2.344   3.671  10.705  0.4528  0.1457  0.2931
30607W        W44021   0.046   9.037   6.018  0.2304 -0.1895  0.2912
30608W        W44022   7.848   0.652  13.462  0.0797  0.1048  0.1765
30609W        W44023  15.464   0.267   1.548  0.0051 -0.0630  0.1259
30610W        W44024  14.133   0.214  14.511 -0.1137 -0.0123 -0.0525
30611W        W44025  16.026  16.389  12.546  0.1127  0.2838  0.1246
30612W        W44026  14.633   1.521   2.235 -0.2947  0.0197 -0.0936
30613W        W44027  11.546  17.347   1.241  0.0194 -0.1785 -0.1318
30614W        W44028  10.383   8.025  12.187  0.1707 -0.0470  0.2268
30615W        W44029  16.711  11.933  10.147 -0.0796 -0.2715 -0.0792
30616W        W44030   3.516   9.377  11.379 -0.2264  0.2358  0.0881
30617W        W44031  11.780   9.927   5.065  0.2365  0.2296 -0.0378
30618W        W44032   2.672   4.761   5.433  0.1916 -0.2785  0.1616
30619W        W44033  14.984   1.235  11.415 -0.0232 -0.0240 -0.1893
30620W        W44034   2.177  12.822  11.253 -0.2176 -0.0510 -0.1374
30621W        W44035  15.473   5.071   3.573 -0.0167  0.0362 -0.1279
30622W        W44036   6.609  15.199   4.628 -0.3296  0.1254 -0.1301
30623W        W44037  11.995  16.197   3.261  0.0371  0.1282  0.1702
30624W        W44038  16.431   7.062   6.004 -0.0331  0.1326 -0.1953
30625W        W44039   9.074  12.795  15.527  0.0825  0.0220 -0.3923
30626W        W44040   8.533  15.076   3.748  0.1065  0.0287  0.1601
30627W        W44041   4.017   7.126  12.453 -0.2804  0.0652  0.0912
30628W        W44042  10.595   3.521   0.049 -0.0673  0.0928  0.0160
30629W        W44043   7.052   2.467   4.717  0.0976 -0.0893 -0.2809
30630W        W44044  12.702   8.198  12.498  0.0063  0.0461 -0.1863
30631W        W44045  12.288  14.786   1.478  0.0555 -0.2463 -0.0142
30632W        W44046  10.155   8.506  16.459 -0.1760  0.0848 -0.1811
30633W        W44047  17.563   5.896   5.671 -0.0880  0.3025  0.0015
30634W        W44048  15.475  17.485  13.462 -0.1493  0.2934 -0.0533
30635W        W44049   1.838  11.423   5.396 -0.1489  0.4376  0.1834
30636W        W44050   4.781   8.612   4.477  0.2347 -0.0503 -0.1122
30637W        W44051  16.035  10.382   0.442 -0.1172  0.4887  0.0788
30638W        W44052  12.377   6.809   6.173 -0.3009  0.0469 -0.2647
30639W        W44053  10.471   9.725  13.735  0.3993  0.3665 -0.1980
30640W        W44054   0.882  17.960  11.760  0.1008 -0.1346  0.2442
30641W        W44055   0.662  14.129  16.401  0.1472 -0.2209  0.1600
30642W        W44056  12.486   4.477  13.963  0.1271 -0.1026  0.2642
30643W        W44057   3.387  14.151  14.944 -0.1136 -0.0328 -0.0620
30644W        W44058   2.536  10.581  15.527 -0.0737 -0.0868  0.2915
30645W        W44059   1.237   8.034   5.160 -0.0553  0.1636 -0.1025
30646W        W44060   3.066   2.610  12.200  0.0562 -0.1513 -0.1734
30647W        W44061  11.930  14.979   5.369 -0.0160  0.3311 -0.0114
30648W        W44062  17.401   3.300  11.812  0.0008 -0.3700  0.1609
30649W        W44063  14.220  17.187   3.647 -0.0945  0.3166  0.6729
30650W        W44064   3.302  13.291   4.052  0.2068 -0.1586 -0.2651
30651W        W44065  10.848  15.061   6.462  0.0194 -0.2327  0.0037
30652W        W44066   0.279  16.332  10.676  0.0328  0.0924  0.3374
30653W        W44067   5.593   4.053   1.938 -0.1028 -0.0987  0.0848
30654W        W44068  12.885   7.055   0.653 -0.3289 -0.1378  0.1145
30655W        W44069   8.913   1.671   5.774  0.1195 -0.0365  0.2140
30656W        W44070   9.270   1.416   3.038  0.4184  0.0796  0.0804
30657W        W44071   8.489   9.181  13.321  0.1098 -0.0061 -0.0810
30658W        W44072  12.442   1.696  11.452  0.2946  0.0488 -0.3519
30659W        W44073   5.873   2.857  15.729  0.1966  0.0321  0.2223
30660W        W44074   1.691  15.966  15.497 -0.0138  0.0021  0.1708
30661W        W44075   1.974   9.192   2.780 -0.0937  0.0209  0.0795
30662W        W44076  13.891  12.689   2.180  0.0845  0.1730 -0.0971
30663W        W44077  10.434  15.730   5.060  0.2944  0.0583  0.1450
30664W        W44078   8.797   2.195   2.709 -0.0395 -0.1835  0.2531
30665W        W44079   5.675  11.292  15.035 -0.0856  0.0928  0.1518
30666W        W44080  12.262  15.343   5.775  0.2366 -0.2063 -0.2207
30667W        W44081   4.872   4.780   3.968  0.0918 -0.1988  0.1762
30668W        W44082  13.049   4.983  12.722 -0.0697  0.0012 -0.1135
30669W        W44083   1.038  17.699  12.165 -0.0109 -0.2224 -0.0979
30670W        W44084   2.498   9.415   2.094 -0.2200  0.1392  0.1231
30671W        W44085   0.971  12.617  16.502  0.1079  0.0719 -0.0287
30672W        W44086   6.603  17.450  11.243 -0.2468 -0.0043 -0.1141
30673W        W44087   5.636   8.662  12.459 -0.2904  0.0923 -0.0313
30674W        W44088   6.287  13.920   4.569 -0.0798  0.0753 -0.0252
30675W        W44089  11.568   1.733   1.450 -0.0490 -0.1765 -0.0056
30676W        W44090  18.007   6.689  15.949 -0.0258  0.1291 -0.2131
30677W        W44091   2.562   1.601   0.911 -0.1458  0.0038 -0.3178
30678W        W44092   8.813  11.930  14.075  0.1006 -0.0719 -0.0938
30679W        W44093   7.369  11.100  15.923  0.0425  0.0841  0.1887
30680W        W44094   3.145   9.286  14.061  0.0461  0.1944  0.0449
30681W        W44095  13.439  10.035  13.265  0.0400 -0.0639  0.0682
30682W        W44096  17.988   9.501   0.310  0.1254  0.0757  0.1373
30683W        W44097  11.849   0.787   3.734 -0.2452  0.2357  0.1295
30684W        W44098  12.773   3.284  14.401 -0.2077 -0.1780 -0.0318
30685W        W44099   5.306  13.762  10.698  0.1820 -0.1170  0.2548
30686W        W44100  17.444  11.662  12.503 -0.1482  0.0535  0.0689
30687W        W44101   1.588  16.736  15.793 -0.2419  0.0306  0.0565
30688W        W44102   2.076  13.090   0.534  0.1869  0.3868 -0.1281
30689W        W44103   2.376   5.284   5.594  0.1000 -0.0465  0.0228
30690W        W44104   0.244   5.254  13.922  0.1289 -0.0112  0.1551
30691W        W44105   1.869  13.038  12.401 -0.0528  0.2455  0.2632
30692W        W44106  14.114   5.523  13.016 -0.0567 -0.1145  0.0224
30693W        W44107   9.525   4.505   3.398 -0.2521  0.0345  0.0043
30694W        W44108  13.572  17.100  13.833 -0.0573  0.0779 -0.1775
30695W        W44109   7.632   6.007  11.963  0.1946 -0.2389 -0.2175
30696W        W44110  16.707   8.358   2.221 -0.1646  0.0000  0.0313
30697W        W44111   2.020  14.429  14.470  0.1583  0.0357  0.1908
30698W        W44112  15.310   6.025  15.921  0.0717  0.0700  0.1453
30699W        W44113   5.602   6.026  10.390 -0.1879  0.0117  0.3430
30700W        W44114  17.720   5.218   5.195  0.0290  0.4126  0.2349
30701W        W44115   4.103  17.186   4.455 -0.1227  0.1822  0.1032
30702W        W44116   7.456   5.889  11.136  0.0894 -0.0333  0.0642
30703W        W44117  12.551  15.996   4.800 -0.0972 -0.0422  0.1121
30704W        W44118   5.584   7.581  15.712  0.1921  0.0659  0.1897
30705W        W44119   3.694   5.045  15.719 -0.2616  0.1149  0.0687
30706W        W44120  11.171   2.743  14.909  0.0089 -0.0280  0.0424
30707W        W44121   8.456   6.884   2.754  0.3807 -0.1461 -0.4074
30708W        W44122   0.882  12.504   5.012 -0.2154  0.0575  0.0900
30709W        W44123  17.807   2.095   1.294  0.1911 -0.0949  0.1066
30710W        W44124   8.770   7.568   1.134 -0.0812 -0.1439  0.0666
30711W        W44125   7.717   3.772   1.372 -0.2959  0.1509 -0.0242
30712W        W44126   0.530  15.200   2.509  0.1099 -0.0588 -0.0389
30713W        W44127  13.398  10.509  14.097 -0.2949  0.1292  0.0463
30714W        W44128   3.041   8.336   3.205  0.2098 -0.0520  0.3477
30715W        W44129   2.868   9.375  13.110 -0.0455 -0.2486 -0.0295
30716W        W44130   8.193   6.995  12.665 -0.0867  0.0123  0.1448
30717W        W44131  11.924   9.809   1.450 -0.0506 -0.0207  0.1507
30718W        W44132   9.227   3.749  15.007  0.0612 -0.0171 -0.0797
30719W        W44133  16.617  14.417  16.420 -0.1003  0.2018 -0.1919
30720W        W44134   5.654  12.670   4.619  0.1481  0.0495  0.4884
30721W        W44135   8.008   0.627  16.035  0.2684 -0.2183  0.1920
30722W        W44136  15.214  11.901   0.825  0.1597  0.2794  0.1025
30723W        W44137   9.674   6.146   2.116 -0.0313 -0.0562 -0.0373
30724W        W44138   9.120  14.559   2.889  0.0877  0.2125 -0.1958
30725W        W44139  15.252   0.635   0.623  0.0228  0.1887  0.1232
30726W        W44140   0.147  10.176   1.296  0.2802 -0.1224 -0.2506
30727W        W44141  15.838  10.591  13.725  0.0309 -0.2151 -0.0887
30728W        W44142   3.964  10.649  13.125  0.1574 -0.0174  0.2287
30729W        W44143  17.952   2.501   0.153 -0.0931  0.1267  0.0585
30730W        W44144   0.791   2.883   5.981 -0.0876 -0.0907 -0.2229
30731W        W44145   2.931  17.922  12.048 -0.0827  0.0507  0.0911
30732W        W44146   5.533  14.766   2.865 -0.0232 -0.0818 -0.2906
30733W        W44147   5.172  15.128  16.408  0.1583 -0.1458 -0.2768
30734W        W44148   4.388  14.752   3.755 -0.0205  0.0131  0.2485
30735W        W44149   3.087  14.778  11.380 -0.0281  0.0658  0.0050
30736W        W44150  13.353   7.300   0.814  0.1885 -0.1740 -0.1316
30737W        W44151   9.857   1.928   1.113  0.1812 -0.1700  0.3637
30738W        W44152  12.248   0.590  12.965 -0.0747 -0.0561  0.2079
30739W        W44153   5.857  16.509   3.379  0.3070  0.1432  0.0595
30740W        W44154   2.676   7.092   0.622  0.2947 -0.0127  0.2410
30741W        W44155  14.639   8.914   1.503 -0.1237  0.1066  0.1692
30742W        W44156   6.131   4.593   2.641 -0.2704 -0.1742 -0.1717
30743W        W44157   2.634  17.250   0.603 -0.1143 -0.2498 -0.0091
30744W        W44158   8.642  13.983   3.831 -0.0315 -0.0719 -0.3169
30745W        W44159   6.758  14.879  12.252  0.3006 -0.1871  0.5046
30746W        W44160  16.360   2.981   4.966  0.0174  0.0757  0.2186
30747W        W44161   8.802  15.211  15.554  0.3203 -0.0854  0.3081
30748W        W44162  12.008   0.172  15.292  0.0137 -0.1304 -0.0473
30749W        W44163  15.988  10.567  14.877 -0.0391  0.0701  0.1909
30750W        W44164   9.693  15.663  15.338  0.1327 -0.2071 -0.0961
30751W        W44165   2.751  10.252  11.990 -0.0685  0.2549 -0.1184
30752W        W44166   3.485  14.709  12.645  0.1217 -0.0360 -0.0329
30753W        W44167   4.665  15.119  10.510  0.0243 -0.2813 -0.0470
30754W        W44168  10.736   8.405  12.175  0.2525 -0.0531  0.0728
30755W        W44169  15.736  10.853   5.091  0.0648  0.2750  0.1773
30756W        W44170   3.063   9.952   5.180 -0.0818  0.0777  0.0418
30757W        W44171  11.084  13.793   3.765 -0.0795  0.0885 -0.0665
30758W        W44172   8.514  15.556   4.621  0.3631  0.3370 -0.2195
30759W        W44173  10.741   8.869   3.627 -0.0007  0.0261 -0.0427
30760W        W44174   9.164   1.677  10.661 -0.1508 -0.1823  0.2702
30761W        W44175   1.549  17.011  15.227  0.0476 -0.0223  0.0351
30762W        W44176   4.780  15.614   3.854 -0.1266 -0.0411 -0.1067
30763W        W44177   1.467   2.394   3.293 -0.3444  0.0475  0.1726
30764W        W44178  17.318  14.875   4.800  0.0745 -0.3085 -0.4215
30765W        W44179  16.556  16.382   1.640 -0.0786 -0.2810  0.2164
30766W        W44180   5.872  12.133   5.481  0.1520  0.0540  0.0866
30767W        W44181   3.330  10.308   0.677  0.4322  0.0627 -0.0565
30768W        W44182  11.624  15.521   4.806 -0.0642 -0.2880 -0.1861
30769W        W44183  16.605   8.022   7.058  0.2490  0.1598 -0.0354
30770W        W44184   0.719  12.944   0.093 -0.0869  0.4072  0.0938
30771W        W44185   3.977   6.104   0.568 -0.1897 -0.0433 -0.0029
30772W        W44186   9.213   9.147   3.724  0.3059 -0.0496  0.0172
30773W        W44187   0.423   1.473  14.775 -0.0637  0.2026 -0.1294
30774W        W44188  10.352   2.894  11.754 -0.1784  0.2040  0.0062
30775W        W44189   8.076  16.840   3.970 -0.0936  0.2280 -0.0765
30776W        W44190   3.389   0.735  13.842 -0.2535  0.2040 -0.0555
30777W        W44191   2.269  11.062   4.681  0.0616 -0.1224 -0.2314
30778W        W44192  11.559   1.691  13.996 -0.0477  0.0451  0.2145
30779W        W44193   7.913   1.394  15.779 -0.0311 -0.2824  0.2469
30780W        W44194  11.072   2.505   3.880 -0.1666 -0.3209 -0.0944
30781W        W44195   5.041  15.283   4.226 -0.0913  0.0987  0.0467
30782W        W44196   5.449   0.539   6.356 -0.2702  0.0989  0.1793
30783W        W44197  11.033  12.284  14.810 -0.2008  0.0341  0.1340
30784W        W44198   6.736   7.039  11.516 -0.1916 -0.0129  0.2015
30785W        W44199  12.657  18.035   0.938 -0.1317 -0.2853  0.2234
30786W        W44200   4.388   0.577   1.925  0.1061  0.0157 -0.1164
30787W        W44201  11.718   9.548   3.046 -0.0834  0.1470  0.3596
30788W        W44202   2.436  13.477  13.912 -0.1991  0.1355  0.1554
30789W        W44203   1.283   5.208  14.390 -0.2849  0.0098  0.1356
30790W        W44204   9.167   3.790  11.162 -0.0597 -0.2688 -0.1248
30791W        W44205   3.021   6.015  15.603  0.2052  0.0159  0.0822
30792W        W44206   2.820  16.841   2.874  0.0773 -0.0834 -0.4479
30793W        W44207  15.510  16.171   2.352  0.1399  0.3607 -0.2354
30794W        W44208  15.265   1.083   5.677  0.0720 -0.0636 -0.1722
30795W        W44209   4.112  17.233   5.834  0.1037  0.3869  0.0762
30796W        W44210   5.529  13.780   2.030  0.2282  0.0653 -0.1264
30797W        W44211  11.080  12.943   5.422 -0.0071 -0.1922 -0.2015
30798W        W44212   5.287   7.713  13.526 -0.0375  0.2354 -0.0702
30799W        W44213   4.390  15.960  11.011  0.3071 -0.1243 -0.1516
30800W        W44214   0.775  17.278  14.682 -0.3681 -0.3147  0.0656
30801W        W44215   0.776   1.455   0.984 -0.0636 -0.0281 -0.0988
30802W        W44216   4.640   2.693  12.145 -0.1999  0.0062 -0.3763
30803W        W44217   4.531  15.992  14.258  0.3779  0.0715  0.1752
30804W        W44218  12.657   2.760  10.312 -0.1090 -0.0498  0.0351
30805W        W44219   8.923  11.176   4.926  0.1741 -0.0785 -0.0483
30806W        W44220   6.555   2.670   5.478 -0.0884  0.1026 -0.1059
30807W        W44221  14.273   1.725  14.415 -0.0244 -0.2856  0.0998
30808W        W44222  12.380  16.722  10.696 -0.0872  0.0257  0.0107
30809W        W44223  11.930   4.287   1.820  0.0978 -0.0424 -0.3456
30810W        W44224   4.851   9.835  10.643 -0.1269  0.0987 -0.1503
30811W        W44225   7.905  13.633  15.981  0.1499  0.0584  0.2147
30812W        W44226  14.188  10.703  13.129 -0.3322 -0.3424 -0.0223
30813W        W44227  10.397  11.194  11.265  0.3836 -0.1299 -0.2593
30814W        W44228  16.523  16.801   4.165 -0.2676  0.1916 -0.1595
30815W        W44229  16.163  14.091   2.201  0.1053 -0.0578 -0.1017
30816W        W44230   1.088   6.900  16.415  0.1357  0.2778 -0.1515
30817W        W44231   8.513  15.051   2.262 -0.0792 -0.1589  0.1145
30818W        W44232   3.081   0.452  16.648 -0.0629 -0.1259 -0.0742
30819W        W44233   2.769   5.029   0.127  0.1387  0.0009  0.0429
30820W        W44234  13.444  17.515   4.605 -0.1745 -0.1337  0.3608
30821W        W44235   2.643   9.508   0.338  0.0223 -0.2533  0.0893
30822W        W44236   5.270   5.308   0.990 -0.2601  0.1962  0.0898
30823W        W44237   6.371   5.340   1.352 -0.0922 -0.2230  0.0389
30824W        W44238  16.940  16.078   4.385  0.0747 -0.1001  0.1567
30825W        W44239   9.822  10.283  14.795  0.1064  0.0332  0.0329
30826W        W44240  10.301  10.972  13.710  0.0112 -0.2383  0.3657
30827W        W44241   1.614  14.001  15.201  0.0038  0.1779 -0.0303
30828W        W44242  10.180  11.092  12.629 -0.4506  0.1744  0.2352
30829W        W44243   6.227   9.057  11.825  0.0424  0.0011 -0.0822
30830W        W44244   1.161   0.161  16.593 -0.0895  0.0089  0.1860
30831W        W44245   6.756  10.802  14.319 -0.0342  0.1072  0.3241
30832W        W44246  14.293   8.937  15.260 -0.0006 -0.0960 -0.0898
30833W        W44247  16.898   4.969   4.653 -0.0374  0.0269  0.2763
30834W        W44248  12.087   2.845  12.886 -0.0653  0.0573  0.0983
30835W        W44249  13.752   7.314  11.395 -0.2829  0.0660  0.1312
30836W        W44250   3.665   1.961  12.278 -0.2345 -0.0407  0.2957
30837W        W44251  10.457  10.558   2.240 -0.1274  0.2159 -0.1930
30838W        W44252   9.327   8.061   4.084  0.0336  0.0626  0.1517
30839W        W44253  15.573   0.305  12.744  0.0084 -0.1209  0.2606
30840W        W44254   9.842   5.763   4.316 -0.4601 -0.1307  0.2884
30841W        W44255   5.429   3.980   3.471  0.3395  0.1740  0.1274
30842W        W44256   0.048  13.087  10.633 -0.0781 -0.0532  0.0519
30843W        W44257  15.333   4.368  13.232  0.0234  0.0148  0.2629
30844W        W44258  16.514  15.563   0.407  0.1726 -0.2251 -0.3097
30845W        W44259  17.113  13.306   4.690  0.2154  0.1160  0.0495
30846W        W44260  12.469   1.564   6.308 -0.0813 -0.0162  0.0880
30847W        W44261  12.270   3.587   0.101 -0.1150 -0.0012 -0.1189
30848W        W44262  14.663   0.646   5.226 -0.1197 -0.0001  0.2464
30849W        W44263  15.355  16.081   4.484 -0.1526 -0.0652 -0.0640
30850W        W44264   9.306  12.033  12.998 -0.0786  0.1260 -0.1397
30851W        W44265   3.286  12.317  11.406  0.0483 -0.1231  0.2229
30852W        W44266  17.316   3.266   0.070 -0.1370 -0.2487 -0.1736
30853W        W44267   8.228  13.259   4.277 -0.1848  0.0906 -0.2427
30854W        W44268   3.968   8.613  13.140  0.3463  0.1197  0.1640
30855W        W44269  14.649  17.207   4.019  0.1675  0.0618 -0.1856
30856W        W44270   3.386   4.838  12.046 -0.0358  0.2221 -0.1368
30857W        W44271  15.709   7.695  12.753 -0.2779 -0.2155  0.2264
30858W        W44272  10.048  17.359  14.977 -0.0154 -0.2501  0.0446
30859W        W44273  12.923  14.495  14.654 -0.0790 -0.3499  0.0093
30860W        W44274   1.219   2.134  11.976  0.2965  0.1362 -0.0485
30861W        W44275  11.242   4.971  15.276  0.0939  0.0418 -0.2711
30862W        W44276  16.478   1.256   1.897 -0.2267  0.0067 -0.0913
30863W        W44277   6.968   9.473  14.319 -0.0360  0.0018  0.3404
30864W        W44278  14.605   9.317  15.385  0.2520  0.4835 -0.1403
30865W        W44279   3.311  16.728  11.031  0.0356 -0.1829 -0.0427
30866W        W44280  10.095   2.657   5.165 -0.2790 -0.0941 -0.0084
30867W        W44281  17.658   7.935   6.282 -0.3301  0.0022  0.1375
30868W        W44282   5.127  13.762  13.117 -0.1350 -0.1419  0.0425
30869W        W44283  11.542   1.627  12.130 -0.1939 -0.1513 -0.0062
30870W        W44284  16.918   3.667   0.121  0.0132  0.0973 -0.0709
30871W        W44285  17.455  16.153  16.585  0.0069  0.3297 -0.1274
30872W        W44286  14.340  13.257   2.472  0.0327 -0.3181 -0.0893
30873W        W44287   4.689  16.421  11.329 -0.2619  0.0885  0.1334
30874W        W44288   4.762   2.499  15.631  0.0473 -0.1837  0.1587
30875W        W44289  13.401   8.151   1.121 -0.2881 -0.0673 -0.1163
30876W        W44290   3.267   4.504   1.064  0.0943  0.1664  0.1229
30877W        W44291  17.389  13.289  12.640  0.2971  0.2002 -0.1499
30878W        W44292   4.898   6.728   1.994  0.3978 -0.0378  0.0302
30879W        W44293  10.027  10.967   3.624  0.1325 -0.2024 -0.0006
30880W        W44294  12.766  12.489  11.438 -0.2495  0.0709  0.2761
30881W        W44295   4.468   5.644   3.532  0.0665 -0.1892 -0.1262
30882W        W44296  13.213   5.229  13.880  0.0032 -0.0628 -0.0041
30883W        W44297  15.396  13.982   0.563  0.2194 -0.2070 -0.2133
30884W        W44298   4.983  15.397  10.840 -0.0176  0.2046 -0.0020
30885W        W44299   5.823   3.664  16.181  0.0843  0.1532 -0.3848
30886W        W44300   2.987  10.763  10.677  0.0511 -0.1127  0.0474
30887W        W44301   5.491   1.146   2.177  0.0373  0.2395  0.0779
30888W        W44302   4.305  11.297  15.788  0.3485 -0.0210  0.3318
30889W        W44303  11.188  11.903   0.389  0.1037 -0.0926  0.3978
30890W        W44304   6.883   2.804   3.243  0.1646  0.1313  0.2793
30891W        W44305  12.782   3.542   2.027 -0.2336  0.0145 -0.2791
30892W        W44306   5.673  10.784   3.291  0.1318  0.2042 -0.4030
30893W        W44307   3.381   9.660  14.344 -0.5320  0.0759 -0.0292
30894W        W44308  10.988   2.752  10.978  0.2645 -0.0072  0.1396
30895W        W44309  14.551  14.562  15.794 -0.1169  0.0250  0.0003
30896W        W44310  17.305   5.226   0.816  0.2313  0.0147  0.0309
30897W        W44311  15.124  17.243  14.333 -0.1336 -0.1023  0.0025
30898W        W44312  10.331   8.418  14.132 -0.1156  0.0566  0.0875
30899W        W44313   2.149  15.214   0.803  0.0289 -0.0668  0.0513
30900W        W44314  16.393   3.097  11.842 -0.1728  0.1658  0.3067
30901W        W44315  16.720   8.231   6.370  0.0179  0.1408 -0.1697
30902W        W44316   0.663  14.804   1.034  0.0240  0.1165 -0.1850
30903W        W44317   7.630   3.568  11.806  0.3542  0.0331 -0.0253
30904W        W44318  10.715   8.422   1.136 -0.0158  0.0528 -0.1559
30905W        W44319   7.970  17.183  12.641 -0.1337 -0.0275 -0.0839
30906W        W44320   2.711   5.142  15.429  0.1560  0.3087  0.1277
30907W        W44321   6.592   1.791   3.345  0.1043  0.1995 -0.0266
30908W        W44322  11.841   0.383  15.730 -0.0730  0.1800  0.1491
30909W        W44323   7.225   1.728  15.325 -0.1665 -0.0886  0.1475
30910W        W44324   5.515  16.349  16.520  0.1370  0.0072  0.0114
30911W        W44325  12.946  10.545   0.948  0.2480  0.2220 -0.2026
30912W        W44326  13.779  10.944   4.391 -0.2791 -0.0930 -0.2202
30913W        W44327   7.344  17.576  14.082 -0.1625  0.0662  0.1491
30914W        W44328  17.073   7.916   6.249 -0.1898 -0.3063  0.0578
30915W        W44329  13.428   6.793   4.666  0.1359 -0.0451 -0.2783
30916W        W44330   9.611   2.785   5.254  0.0264  0.3497  0.0175
30917W        W44331   4.068   7.447   0.883 -0.0927 -0.2143 -0.2317
30918W        W44332   2.816  14.260   3.345  0.0238  0.1224 -0.1291
30919W        W44333   0.413   4.828  15.452 -0.0476 -0.1322 -0.1260
30920W        W44334  14.557  11.173   2.747  0.1866  0.0658 -0.1058
30921W        W44335  17.609  12.297  10.433 -0.0298  0.0094  0.0229
30922W        W44336   1.689  15.631  14.752 -0.2059  0.1196  0.0427
30923W        W44337  10.918   2.997   1.641  0.0239 -0.3800  0.1689
30924W        W44338  15.030   3.788   3.619 -0.0491 -0.4118 -0.0805
30925W        W44339  12.026   7.345   4.004  0.0646  0.0774  0.0581
30926W        W44340   3.820   5.998  15.401  0.1969 -0.0367  0.0118
30927W        W44341   8.340  12.346  15.835  0.1980 -0.0032  0.1347
30928W        W44342  14.429   4.621  12.742 -0.0674 -0.4680  0.0479
30929W        W44343  12.949  10.418  10.193 -0.4620  0.1127  0.1532
30930W        W44344   3.590   8.775  13.545  0.2321 -0.2004  0.2388
30931W        W44345  15.412   5.585  13.566  0.2151  0.0866 -0.1211
30932W        W44346   3.983   7.861  15.877 -0.1933  0.0758 -0.0927
30933W        W44347   2.519   8.388  15.067  0.3070 -0.0071  0.1571
30934W        W44348   5.194  12.684   1.185 -0.3197 -0.1847 -0.2363
30935W        W44349  10.727  15.761   3.354  0.2386  0.1508  0.3385
30936W        W44350   0.935   4.130   5.282  0.0999 -0.0352 -0.0096
30937W        W44351   3.080  13.245  12.074 -0.2926  0.0058 -0.0032
30938W        W44352  11.581  16.550  16.047 -0.0209 -0.2977  0.0254
30939W        W44353   4.284   6.197  16.397  0.2149 -0.1047 -0.2453
30940W        W44354  10.426  14.621  15.323  0.1979 -0.0840 -0.0814
30941W        W44355  10.226  13.127   4.168  0.3101  0.2327  0.0366
30942W        W44356   1.327   9.851   4.489 -0.0280 -0.2251 -0.2526
30943W        W44357   1.462  16.407  13.097 -0.1648  0.1311  0.1737
30944W        W44358  16.712   0.705   6.920 -0.0726  0.1222  0.0358
30945W        W44359   7.837  12.698  15.462  0.3992  0.3523  0.1970
30946W        W44360   9.771   0.809   2.921  0.1066  0.1894  0.3008
30947W        W44361  10.082  12.921  12.007  0.2047  0.2736  0.0407
30948W        W44362   2.241  15.740   0.923  0.1068 -0.0649  0.2369
30949W        W44363  12.192   3.777  15.859 -0.3081 -0.2276 -0.1934
30950W        W44364  15.112   7.106  16.016 -0.0453  0.3248 -0.1662
30951W        W44365   7.069   0.149  10.863 -0.2767  0.5587 -0.3759
30952W        W44366   3.610   4.214   3.831  0.3161  0.1749  0.2484
30953W        W44367  12.244   3.759  10.674 -0.2066  0.0567  0.0817
30954W        W44368  12.901  17.526  10.676 -0.0624 -0.1706  0.0600
30955W        W44369   3.598  13.969   2.201  0.1179  0.0985  0.1291
30956W        W44370  17.433  17.562  12.465  0.2292 -0.1619  0.2063
30957W        W44371  11.498  11.814  14.706  0.1665 -0.0366 -0.2155
30958W        W44372   8.243   9.861  11.609 -0.0614  0.0327  0.0960
30959W        W44373  17.219   0.452  13.776  0.0044  0.1802 -0.1049
30960W        W44374   2.402  11.591  11.644  0.2251 -0.0576  0.1371
30961W        W44375  10.930   3.047   6.190  0.2412  0.1662 -0.3936
30962W        W44376  14.418  17.809   5.869  0.1367 -0.1128 -0.0374
30963W        W44377   2.761   8.277   4.066 -0.0302 -0.2528 -0.0257
30964W        W44378  10.549   2.422  13.473 -0.3931 -0.0093  0.3613
30965W        W44379  13.136  13.113  16.647  0.0878  0.1010 -0.0595
30966W        W44380  16.447  15.209  14.106 -0.0732  0.1565 -0.2145
30967W        W44381   7.969   9.410   1.300 -0.0027  0.0839  0.0442
30968W        W44382   2.731   8.853  15.226  0.0667 -0.1420  0.2745
30969W        W44383   8.447   0.923  14.759 -0.0078 -0.2949 -0.1426
30970W        W44384   5.397  11.585  14.244  0.1685 -0.0677  0.1390
30971W        W44385   2.210  15.808   2.289 -0.1496 -0.2640 -0.1276
30972W        W44386   8.977  16.757  15.863  0.1138  0.2698  0.1711
30973W        W44387   6.174   9.815  16.635  0.2488 -0.3364 -0.0952
30974W        W44388   0.120   7.119   4.708  0.1584  0.1761  0.0131
30975W        W44389   5.626  11.110  16.437  0.0325 -0.1055  0.0973
30976W        W44390   8.279   2.702   3.404  0.0053  0.3873  0.1874
30977W        W44391  12.705  16.693  14.776 -0.1415  0.0830  0.3104
30978W        W44392  11.301  17.263  10.613 -0.0719  0.1748  0.1057
30979W        W44393   1.211   3.739  14.136 -0.3183  0.0388 -0.2800
30980W        W44394  15.158  14.436   0.668  0.0271 -0.2298  0.2684
30981W        W44395  10.617   0.192  11.575  0.4611  0.0552 -0.1044
30982W        W44396  14.542   9.842   1.776 -0.2592  0.0218 -0.0990
30983W        W44397   3.827   3.660   6.325 -0.3146 -0.0488  0.2526
30984W        W44398   9.245  15.072   0.830  0.1669  0.0742 -0.0582
30985W        W44399  16.453   4.782   4.417  0.2007 -0.2137 -0.0338
30986W        W44400   5.760  10.003   0.923 -0.5137 -0.0158  0.3297
30987W        W44401   2.885   8.296  15.745 -0.3127  0.0142 -0.2187
30988W        W44402   2.279  11.790   4.864  0.2100  0.0045  0.0766
30989W        W44403   1.253   8.087  12.262 -0.1175  0.2418  0.0122
30990W        W44404   8.574   9.967  16.183 -0.3660 -0.2596 -0.0623
30991W        W44405  12.938  10.758  12.687  0.2909 -0.1054  0.1090
30992W        W44406  13.342   6.448  16.021  0.0091  0.1386 -0.1159
30993W        W44407  17.744   5.531  15.928 -0.2435 -0.0376  0.1453
30994W        W44408   4.328   1.853   5.602  0.0756 -0.2877  0.1159
30995W        W44409   5.740   8.403  16.431  0.0173 -0.2108 -0.0418
30996W        W44410   1.511   6.235   3.600 -0.3230 -0.1509 -0.0317
30997W        W44411   2.516   5.661   2.355 -0.0041 -0.1431 -0.1075
30998W        W44412   1.207   5.165   6.549  0.0039 -0.2636  0.1418
30999W        W44413   9.129   5.579   2.643 -0.0014  0.1400  0.1569
31000W        W44414   6.005   9.668   1.862  0.0453 -0.0106  0.0283
31001W        W44415   9.925  14.350  13.022 -0.0517 -0.0148  0.0591
31002W        W44416  12.242   8.019   5.050 -0.1174 -0.1836 -0.0062
31003W        W44417   7.775   3.962  16.392  0.1484 -0.1567  0.0587
31004W        W44418  12.055   8.649  12.896 -0.0662  0.1660  0.1063
31005W        W44419  14.908  16.568  11.837 -0.0839 -0.1381 -0.1550
31006W        W44420   2.542  12.741   0.579 -0.1018  0.0052  0.2093
31007W        W44421  16.349  12.214  14.037 -0.0790 -0.1566 -0.3690
31008W        W44422   6.431   4.224   6.103  0.1173  0.0070  0.0665
31009W        W44423  14.461  13.342  12.463 -0.1725 -0.1540 -0.0041
31010W        W44424   2.842   2.117   0.922  0.4182  0.0167 -0.1363
31011W        W44425  17.496  17.772  11.928 -0.2024 -0.0069 -0.1289
31012W        W44426   4.033  12.593  13.889 -0.2959 -0.0205  0.1697
31013W        W44427   5.958  10.292  16.562 -0.0877 -0.0739 -0.1391
31014W        W44428  11.375   1.283  14.717  0.0407  0.1656 -0.2561
31015W        W44429   0.119   1.534   4.940 -0.2604  0.3107  0.0056
31016W        W44430   7.738   5.761   4.048 -0.0582 -0.2780 -0.4878
31017W        W44431   9.997  15.081   4.846  0.0968  0.1216 -0.0170
31018W        W44432   5.412   4.812  11.416  0.2358  0.0641  0.0938
31019W        W44433   5.353  14.742  15.575 -0.0328 -0.2028  0.1477
31020W        W44434  12.528   5.668  11.676 -0.1572  0.0484  0.0890
31021W        W44435  16.212   0.922   0.166 -0.3651  0.1437 -0.0473
31022W        W44436   7.251   6.049   2.955 -0.1448  0.3610 -0.0039
31023W        W44437  15.872   7.220  10.473  0.0146 -0.2608  0.2175
31024W        W44438  17.028  14.847  13.458  0.1672  0.0665 -0.0517
31025W        W44439   8.309   3.954   0.557 -0.0211 -0.0684  0.0924
31026W        W44440  13.113   5.926   3.577 -0.2098  0.0912  0.0722
31027W        W44441   2.031   4.456  12.996 -0.1060  0.3619  0.0343
31028W        W44442   1.236   3.518  12.293 -0.2298 -0.2028 -0.2367
31029W        W44443   3.290  10.175  15.120  0.0257  0.1198 -0.1031
31030W        W44444  10.161  10.630   1.243  0.2290 -0.0755 -0.2078
31031W        W44445   7.535   1.144  12.015 -0.0075 -0.0791  0.1692
31032W        W44446  14.273  17.110   4.897 -0.1201  0.0882  0.0911
31033W        W44447  15.239  16.868   1.810 -0.0116 -0.3509  0.0443
31034W        W44448   8.576  17.627   0.187  0.0702  0.2079  0.0235
31035W        W44449  16.761  13.483   2.257  0.0755 -0.0629 -0.0324
31036W        W44450   5.824   6.076  12.550  0.3098  0.0153 -0.1409
31037W        W44451  17.028   9.646  14.718  0.1774  0.1491  0.0094
31038W        W44452   7.233   9.172   1.527 -0.2396  0.2655  0.0518
31039W        W44453  17.916   4.883  13.794 -0.1873 -0.0085 -0.0746
31040W        W44454  13.489   6.441  10.673 -0.0866 -0.2966  0.0692
31041W        W44455  10.562   4.346  11.566 -0.0568 -0.2136  0.1378
31042W        W44456   4.422   5.786  16.586  0.1267 -0.1207  0.3837
31043W        W44457   6.276   8.926   2.481 -0.1985 -0.0343  0.0230
31044W        W44458   5.661   1.331  13.200  0.1097  0.0671 -0.3176
31045W        W44459   7.973   5.689  16.414  0.1481 -0.0251 -0.0172
31046W        W44460  11.146  15.493  12.569 -0.1074 -0.0802  0.0126
31047W        W44461   9.336   6.430   0.331  0.1523 -0.1067  0.0575
31048W        W44462  17.988  13.717  14.351 -0.0855 -0.0595  0.0270
31049W        W44463   8.896  11.233   0.886  0.0496  0.0766  0.1206
31050W        W44464   2.042  13.466  14.602 -0.0887  0.0603 -0.2094
31051W        W44465  15.824  16.336   3.454 -0.1473  0.0386  0.2719
31052W        W44466  11.032   3.731  11.193  0.2164  0.3692  0.0332
31053W        W44467   0.896   1.968   5.994 -0.1866 -0.0034  0.1430
31054W        W44468  17.829   2.134  15.083  0.2567 -0.1167 -0.1123
31055W        W44469   8.082  17.122   3.069 -0.0079  0.0845  0.1616
31056W        W44470   3.003  14.122  16.341  0.1307  0.0228 -0.3128
31057W        W44471  12.333   3.212   3.099  0.0737  0.0435 -0.1161
31058W        W44472   8.808   4.502  14.609 -0.0742  0.1497 -0.0741
31059W        W44473   8.355   1.410   3.679  0.0492 -0.1712  0.2473
31060W        W44474   2.037  15.631  15.125 -0.0693  0.1011 -0.4932
31061W        W44475  14.669   8.405   1.512  0.2190 -0.0114  0.1096
31062W        W44476  14.759   6.460  14.829  0.1033  0.0161  0.1586
31063W        W44477   2.679  15.704   0.570  0.1917 -0.0609  0.0332
31064W        W44478   7.467  11.739  15.992  0.1430  0.2528  0.1367
31065W        W44479  10.074   1.141   2.621 -0.3584  0.2565 -0.2495
31066W        W44480   3.342  11.746  10.683 -0.3903  0.2148 -0.2797
31067W        W44481  14.021  10.507   6.606  0.1839  0.0485  0.2200
31068W        W44482   4.430   5.382  15.013  0.1308 -0.1236 -0.1036
31069W        W44483  12.383   3.028   0.790 -0.0718  0.1205 -0.2925
31070W        W44484  15.493  16.577  13.254 -0.2167 -0.0336  0.0004
31071W        W44485   8.663   2.514  15.594  0.1548 -0.1016 -0.0518
31072W        W44486  12.052  10.075   0.672  0.1285  0.0671  0.3715
31073W        W44487   1.665   4.841   3.363  0.0069 -0.0343  0.0373
31074W        W44488  17.743   4.941  12.003 -0.1199 -0.0536 -0.0708
31075W        W44489   9.688  15.478   5.584  0.2215 -0.1086  0.5136
31076W        W44490  15.321  17.098  12.525  0.0952 -0.0152  0.0214
31077W        W44491   9.355  14.251  12.228  0.1443  0.1135 -0.2396
31078W        W44492  12.005  12.018  12.820  0.3382 -0.1254 -0.1469
31079W        W44493  11.645  14.849  14.979  0.3872  0.0113  0.0175
31080W        W44494   3.970   7.692   2.115 -0.3823 -0.1566  0.0737
31081W        W44495   5.196  11.875   2.842 -0.1538  0.0806  0.3017
31082W        W44496  10.716   7.328   1.186 -0.1766  0.0860  0.1946
31083W        W44497   4.214  13.680   0.085  0.3516 -0.4370  0.1619
31084W        W44498  10.900  14.522  11.953  0.1703  0.1642 -0.1660
31085W        W44499  17.656  17.622   5.192 -0.0993  0.1137 -0.1068
31086W        W44500   1.411   7.942   6.362  0.1453  0.1288 -0.3227
31087W        W44501   5.577   5.326  13.235  0.0642  0.2621  0.0041
31088W        W44502   5.007   4.280  11.289  0.1390 -0.0363  0.1876
31089W        W44503  13.670  13.097   0.830  0.0715 -0.2483 -0.3729
31090W        W44504  10.246  13.274   0.582 -0.2100  0.2122  0.3963
31091W        W44505  10.306   9.474   4.637  0.1108  0.1477 -0.1358
31092W        W44506   7.330  17.963  12.963 -0.0084  0.0311 -0.5618
31093W        W44507   6.923   9.566   5.566 -0.0560  0.0555 -0.0197
31094W        W44508  17.640   2.358  13.702 -0.2984  0.2257  0.0904
31095W        W44509   6.530   2.728  10.321 -0.1029  0.5839  0.0676
31096W        W44510   7.685  17.943  15.381 -0.1011  0.0266  0.0787
31097W        W44511   1.154   7.498   0.666 -0.0036 -0.0939 -0.0251
31098W        W44512  15.001   4.210   1.319  0.2888  0.0655 -0.3804
31099W        W44513  14.189   6.016   1.583 -0.2020 -0.0566 -0.5050
31100W        W44514  16.677   2.414   1.330  0.1715  0.1980 -0.0052
31101W        W44515  10.463  11.109   5.293 -0.0467 -0.1942  0.0870
31102W        W44516   0.283   6.760   1.407 -0.2830 -0.0924  0.0114
31103W        W44517   8.318  15.136   5.303  0.0605 -0.0619  0.0092
31104W        W44518  16.569   6.912   0.968 -0.1886 -0.2033 -0.1562
31105W        W44519   8.567   1.292  12.461  0.1493 -0.1627 -0.2350
31106W        W44520   8.860   3.218   4.892  0.2055  0.0950  0.1201
31107W        W44521   4.190   4.751   6.539 -0.2674  0.2907 -0.0688
31108W        W44522   8.818  16.434   0.857  0.1620 -0.1375  0.0654
31109W        W44523   7.922  17.904   1.499 -0.2812  0.0734 -0.1282
31110W        W44524   1.922   5.882   1.352 -0.0436  0.0052 -0.0687
31111W        W44525  17.697   8.580   4.287 -0.2410 -0.1143  0.0490
31112W        W44526   4.505  14.696  12.822  0.1424  0.2786  0.0661
31113W        W44527  16.886  10.644  14.325  0.0678 -0.1596 -0.1277
31114W        W44528  13.227  16.273  10.623  0.0883  0.1232 -0.0080
31115W        W44529   1.869   6.260   0.051 -0.0984  0.2077 -0.2667
31116W        W44530  15.725  16.745   3.093  0.2580 -0.2109 -0.1465
31117W        W44531   7.660   7.476  14.358 -0.4291 -0.2362  0.0331
31118W        W44532  17.559   7.762  13.730  0.1575 -0.3021  0.0588
31119W        W44533  17.180  13.300   0.304  0.0787 -0.0962 -0.1486
31120W        W44534  17.943   0.261   1.738 -0.0345  0.0667 -0.0381
31121W        W44535  11.788   3.076   1.724 -0.1671  0.0313 -0.0689
31122W        W44536   5.684  17.033  12.256 -0.0881  0.2694 -0.2015
31123W        W44537  16.994  15.616   3.123 -0.1301 -0.1564 -0.0573
31124W        W44538   4.855  14.967   0.075 -0.0904  0.1416 -0.1918
31125W        W44539  14.840  15.769  16.396 -0.1188  0.2743 -0.0747
31126W        W44540  17.440  15.252  16.005 -0.1330  0.2085  0.0906
31127W        W44541  10.514   7.574  12.629 -0.0229  0.1724 -0.1187
31128W        W44542  17.301  17.136  12.743 -0.2020 -0.1949 -0.0749
31129W        W44543  17.017  11.676   9.796  0.3274  0.3875  0.2743
31130W        W44544   6.738  16.347  13.261 -0.0627  0.1270 -0.0405
31131W        W44545  12.904  11.949   2.699  0.2125  0.1700  0.1726
31132W        W44546   2.896   1.939   3.920  0.0353  0.1219  0.1021
31133W        W44547   4.570   2.314  14.298  0.3328 -0.0817  0.0730
31134W        W44548   2.814   7.264   5.509  0.3849  0.1248  0.1589
31135W        W44549   1.547   2.558  11.965 -0.0414  0.2055 -0.0437
31136W        W44550  15.537  17.738   2.671 -0.1486  0.0049 -0.0637
31137W        W44551   3.186  12.884  10.339  0.0609  0.2583  0.0985
31138W        W44552  16.146   6.733  15.290  0.1383 -0.0461  0.0533
31139W        W44553   4.939   3.847  16.624 -0.2451 -0.1566 -0.0300
31140W        W44554  15.447  15.378   3.439 -0.1956  0.0908 -0.1230
31141W        W44555   3.247   3.326   4.078 -0.0360  0.2508  0.1084
31142W        W44556   0.836   2.724  13.094 -0.1757 -0.2485 -0.2340
31143W        W44557  15.080   4.783   1.622  0.0527 -0.0689  0.2225
31144W        W44558   9.057  13.592   3.786 -0.2554 -0.2873  0.3644
31145W        W44559  14.784   7.444  12.917  0.2198 -0.0673 -0.2131
31146W        W44560  11.429  15.820  10.751 -0.0963 -0.1513  0.3977
31147W        W44561   2.006   6.986  14.530 -0.0685 -0.1770  0.1995
31148W        W44562  13.274  13.172   3.362  0.1087 -0.2527  0.4220
31149W        W44563   2.312  15.057   2.258  0.3221 -0.0892 -0.2887
31150W        W44564   7.547  16.411  15.719  0.0762  0.2576 -0.0373
31151W        W44565   7.995   2.047   1.750  0.1196  0.1071  0.1971
31152W        W44566  13.998   0.447   2.051 -0.0546 -0.2430 -0.1143
31153W        W44567   9.663  17.748   5.436  0.2470  0.0710  0.3455
31154W        W44568   1.092  10.085   2.198  0.0022 -0.0162 -0.1503
31155W        W44569  11.931  16.688  13.914  0.1112  0.3172 -0.1757
31156W        W44570   8.600   2.176   3.281 -0.0032  0.1335 -0.1285
31157W        W44571  16.633  17.096  13.612 -0.3717 -0.0023 -0.0773
31158W        W44572   1.027  10.851  13.153 -0.1921 -0.1112 -0.1424
31159W        W44573  17.700   8.969  13.205 -0.2346 -0.1243  0.1338
31160W        W44574   8.732   4.119   5.283 -0.1830 -0.0860  0.2581
31161W        W44575  16.124  13.266  13.271  0.1982 -0.0440 -0.1402
31162W        W44576   0.447   9.510  13.442 -0.0424 -0.0478 -0.0853
31163W        W44577   4.205   0.561  14.836 -0.3183 -0.4093 -0.2094
31164W        W44578   3.221  16.891  10.512 -0.2646 -0.2596  0.3030
31165W        W44579  12.775   4.912  13.948 -0.1219  0.0332 -0.1042
31166W        W44580  13.684  17.284   5.535 -0.1703  0.0323  0.0068
31167W        W44581  16.427   1.500  12.930  0.1015  0.0189  0.1118
31168W        W44582   9.591  15.775  16.690 -0.0555 -0.0225 -0.3432
31169W        W44583   6.920   2.893   5.199  0.1548  0.3688 -0.1175
31170W        W44584  14.356  12.049   1.069  0.1641  0.3298 -0.1152
31171W        W44585  15.712  15.764   2.148 -0.1243  0.0476 -0.1168
31172W        W44586  11.973   2.169  11.899 -0.0341  0.1520 -0.2051
31173W        W44587   8.771   2.005  16.283 -0.3262  0.1683 -0.0071
31174W        W44588  15.186  15.665  12.107  0.0039 -0.3379 -0.2775
31175W        W44589   5.803   1.385   3.482  0.1920 -0.3148 -0.1342
31176W        W44590  14.061  12.879  15.440  0.0198 -0.1750 -0.0946
31177W        W44591   1.999  11.304   3.005 -0.1899  0.0956  0.2719
31178W        W44592   6.700  15.090  15.524 -0.0405  0.1914 -0.1371
31179W        W44593  17.296   9.883   5.750 -0.1688  0.0201 -0.2029
31180W        W44594  10.166   7.216  13.949 -0.0509 -0.1351 -0.2735
31181W        W44595  17.992   4.726   6.294  0.0407 -0.7274  0.3261
31182W        W44596   1.531   6.159   4.410  0.1940  0.2040  0.2790
31183W        W44597  10.886   2.975   2.959 -0.1823  0.2791 -0.0304
31184W        W44598   6.107  15.609   0.284  0.1547 -0.3887  0.2430
31185W        W44599  16.604  17.342   0.734  0.1051 -0.2286 -0.1557
31186W        W44600   4.094   0.069  12.904 -0.1073 -0.5233  0.0711
31187W        W44601  14.072  10.665   3.560  0.1489  0.2278  0.1035
31188W        W44602   5.034   5.416   1.707  0.0038  0.0267  0.2916
31189W        W44603   0.137  11.938  14.123 -0.2048  0.1309  0.3151
31190W        W44604  17.096  10.944   0.032 -0.2409  0.1336  0.1599
31191W        W44605   2.879   5.812  14.476 -0.0613 -0.2280 -0.0927
31192W        W44606   8.856   7.568  14.347 -0.2319  0.4493 -0.0212
31193W        W44607  15.372  10.657  12.493 -0.1684  0.2448 -0.5044
31194W        W44608   9.800  11.262  13.564 -0.2541 -0.0555  0.2168
31195W        W44609  13.516  14.221  13.469  0.2275  0.2514 -0.3420
31196W        W44610  13.919  15.997  16.409 -0.0194  0.3535 -0.0807
31197W        W44611  13.363  12.022   4.395  0.0607  0.0224  0.0668
31198W        W44612   8.281   0.862   1.564 -0.2197  0.1264 -0.0405
31199W        W44613   9.800   6.653   0.434 -0.0086 -0.0056  0.1621
31200W        W44614   6.097  14.596   3.979  0.1035 -0.2227  0.0705
31201W        W44615  17.320  10.900  16.232  0.2247 -0.0798  0.0716
31202W        W44616  10.505   4.371   4.146 -0.0706 -0.0483  0.3067
31203W        W44617   4.150   2.732   2.891 -0.0223  0.2149 -0.0917
31204W        W44618   3.419   4.153   2.459 -0.2029 -0.1929 -0.0285
31205W        W44619  15.857   5.574  12.731 -0.0831 -0.1302 -0.2697
31206W        W44620   0.864   3.846  10.989  0.0017 -0.2700  0.2886
31207W        W44621   7.227   6.638   1.855 -0.1901 -0.4735  0.0437
31208W        W44622  12.354  17.454  14.533  0.0319 -0.4480  0.0715
31209W        W44623   4.669   7.836   4.068  0.3182  0.0912 -0.0922
31210W        W44624   8.887   9.869   4.639  0.1011 -0.1476  0.1003
31211W        W44625  17.935  11.652  13.296 -0.4236  0.0126 -0.2161
31212W        W44626   6.664   1.889   1.065 -0.0053 -0.1202 -0.4390
31213W        W44627   4.452   1.688  13.562  0.1055  0.2946  0.3207
31214W        W44628   9.066   7.822  16.248 -0.0699  0.0261 -0.0457
31215W        W44629  17.028   2.867  16.490  0.0908  0.0120  0.0340
31216W        W44630  12.793   2.380   4.548 -0.1983  0.2279  0.3503
31217W        W44631  17.894   7.105   0.539  0.1565 -0.2166  0.0517
31218W        W44632  10.358  14.277   2.649 -0.0608 -0.0748 -0.5326
31219W        W44633   4.491   6.830   2.673  0.0365 -0.1006  0.0286
31220W        W44634  13.125   4.705   3.063  0.1602  0.2295 -0.2321
31221W        W44635  14.063  17.916  11.734  0.1115  0.0346  0.0245
31222W        W44636   2.743   8.863  12.814  0.0831  0.3359  0.1404
31223W        W44637   9.131  14.449  14.045 -0.0624 -0.2616  0.2255
31224W        W44638   3.834   6.024   3.859  0.1155  0.0560  0.0739
31225W        W44639  13.453   9.137  15.331 -0.1482  0.0889 -0.1307
31226W        W44640  16.806   9.159   1.869 -0.1842  0.1752  0.0960
31227W        W44641   1.975  14.795   0.966  0.0954  0.0400 -0.1399
31228W        W44642  15.217   2.019   2.879  0.1575  0.2406  0.0127
31229W        W44643  15.785  14.954   1.544  0.2809  0.0957 -0.3342
31230W        W44644  13.441   0.446  14.127 -0.1472 -0.0627 -0.0467
31231W        W44645  15.551   6.437   5.019 -0.0898 -0.3114  0.2259
31232W        W44646   9.310   5.735  13.429 -0.3360 -0.3143  0.0480
31233W        W44647  16.462   9.445   5.741 -0.0203  0.1587  0.0647
31234W        W44648   6.789  12.326   5.064  0.1155 -0.1865 -0.2940
31235W        W44649   4.735   1.946   3.256  0.0055 -0.0485 -0.0866
31236W        W44650   8.410   6.031  13.351 -0.1529  0.0520  0.2966
31237W        W44651  10.050   2.210   4.222  0.2457  0.0173  0.0109
31238W        W44652   5.344   3.937   5.805  0.0741  0.0777 -0.2103
31239W        W44653   7.564   0.726   5.253  0.1227 -0.0943 -0.1005
31240W        W44654   1.992   0.272   1.759  0.3040  0.1656  0.0132
31241W        W44655  12.207  12.184   3.974  0.1397 -0.0325  0.0965
31242W        W44656  15.115  16.191  12.144  0.2406  0.0210 -0.3954
31243W        W44657  13.028   6.527   2.023  0.0651  0.2414  0.0839
31244W        W44658  10.153   0.784  10.471  0.0495  0.0631  0.0899
31245W        W44659   2.580  12.143  12.817 -0.1877  0.1220 -0.1432
31246W        W44660  15.419  11.772  14.390  0.1714 -0.0039  0.2014
31247W        W44661   0.654  12.315  11.211 -0.1407 -0.0063 -0.1938
31248W        W44662  10.098   4.747  16.539 -0.2037 -0.0369  0.1388
31249W        W44663  15.363  10.507   3.041 -0.1436 -0.0724  0.0919
31250W        W44664  12.161   1.495   0.249 -0.1289  0.0079  0.1212
31251W        W44665  10.859  17.647   5.605  0.1666 -0.1490  0.2471
31252W        W44666  17.036   3.663   3.508 -0.2023  0.0588 -0.0718
31253W        W44667  14.212   2.150   4.916  0.1570  0.1170 -0.0942
31254W        W44668  14.332   4.430   5.211 -0.4127 -0.4727 -0.1337
31255W        W44669  12.939  11.532   0.033  0.0666  0.0176 -0.0108
31256W        W44670   2.426  11.490   5.594  0.2547  0.0600  0.1168
31257W        W44671   8.344   3.475   3.822  0.0588  0.0232  0.2930
31258W        W44672  14.914  14.430   3.047 -0.2234  0.2495  0.4357
31259W        W44673   5.052  10.975  12.108  0.0260 -0.0121  0.2481
31260W        W44674  13.677  14.371   1.388 -0.0141 -0.1333 -0.2003
31261W        W44675  17.868  16.427  14.817  0.0655 -0.3127  0.0567
31262W        W44676   6.251   9.298   0.750  0.0889  0.0497  0.1033
31263W        W44677   0.148   8.406   6.000 -0.1906  0.0181  0.0596
31264W        W44678   3.548   7.372   4.944 -0.0921  0.0586  0.1687
31265W        W44679   2.732   1.039  16.097  0.1730 -0.1457  0.0774
31266W        W44680   2.416   4.788   1.756  0.1376 -0.2857 -0.1143
31267W        W44681  15.007   5.493  16.279  0.2863  0.1349 -0.0449
31268W        W44682   2.017   9.660  13.550  0.0387 -0.1276  0.0920
31269W        W44683  11.967  10.958  15.041 -0.0656 -0.0453 -0.0711
31270W        W44684   4.640  11.901   5.796  0.0021 -0.0705 -0.4135
31271W        W44685   0.422   0.047   1.966 -0.2801  0.3132  0.1087
31272W        W44686  13.281  18.046  16.022 -0.0148  0.1400  0.1404
31273W        W44687   5.815   8.610   3.186  0.2187 -0.1097  0.1030
31274W        W44688  17.441   7.931   0.800  0.0580 -0.2380 -0.1664
31275W        W44689   4.710  12.826   5.695  0.0982 -0.2603 -0.1238
31276W        W44690   9.597  15.175   5.174 -0.0736 -0.1950 -0.2552
31277W        W44691  16.339   0.972   3.995 -0.0579  0.1354  0.1404
31278W        W44692  12.072  10.851   0.525  0.1614 -0.3875 -0.2246
31279W        W44693  15.468  16.661   0.801 -0.1162  0.1510 -0.1770
31280W        W44694   0.433  12.235  10.633  0.0483  0.0875 -0.4403
31281W        W44695  10.448   2.590  12.896 -0.1645 -0.2507  0.0683
31282W        W44696   7.303   4.293   2.623  0.1408 -0.0897  0.3024
31283W        W44697  17.169   7.209   5.454  0.1391  0.0493 -0.3862
31284W        W44698  10.732   4.297   1.452 -0.1257  0.1232  0.2074
31285W        W44699   4.106  12.744  12.918 -0.1514  0.0996  0.1313
31286W        W44700   7.450  13.416   3.943  0.0859 -0.3004 -0.1876
31287W        W44701  15.620   3.137  12.446 -0.4441 -0.1987  0.1325
31288W        W44702   0.732   3.375   5.235 -0.2465  0.2443 -0.2917
31289W        W44703   5.964  13.700   3.833  0.1997  0.2037 -0.0578
31290W        W44704  12.857  10.089   4.044  0.0005  0.2013 -0.2036
31291W        W44705   0.943   4.089   5.884 -0.1562 -0.0756 -0.1573
31292W        W44706  11.352   4.776   0.259 -0.1235  0.0973 -0.1735
31293W        W44707   6.678  12.128  15.378 -0.1849 -0.2207  0.2574
31294W        W44708  10.312  13.731   5.050  0.1080 -0.0904  0.0584
31295W        W44709   0.474   6.437  14.789 -0.0601 -0.1712 -0.0573
31296W        W44710  15.861   1.677   0.656  0.1604  0.1230 -0.0845
31297W        W44711  10.123   5.914  11.663  0.1402 -0.0668 -0.1688
31298W        W44712   7.288  16.129  12.205  0.2162 -0.2237 -0.1396
31299W        W44713  16.298   4.189   5.921  0.0033 -0.0091  0.0083
31300W        W44714   4.339  17.561  12.964 -0.0859 -0.0044 -0.0187
31301W        W44715   3.874   0.906  15.129 -0.0828 -0.0620  0.0068
31302W        W44716   0.803   2.237  12.935 -0.0149 -0.2055  0.0326
31303W        W44717  16.728  15.092   3.346  0.0104 -0.0341  0.2228
31304W        W44718   2.051   5.402   4.568  0.0520  0.1235  0.2602
31305W        W44719   5.344  12.242  13.196  0.0276 -0.1235  0.1501
31306W        W44720  17.546   4.495  14.412  0.1980  0.1130  0.1665
31307W        W44721   0.776  16.223   4.158  0.1313 -0.0492  0.0719
31308W        W44722  14.067  11.693  15.076  0.2471 -0.3096 -0.0669
31309W        W44723   1.707   7.349  15.759  0.0195 -0.1994  0.1275
31310W        W44724  12.112  13.065   1.799 -0.0205 -0.0226 -0.0082
31311W        W44725  11.014   2.509  15.320 -0.1475 -0.0777 -0.1776
31312W        W44726   3.940   5.166  16.179  0.0309 -0.1651  0.2628
31313W        W44727   8.424  15.636  15.112  0.1695  0.3718  0.1704
31314W        W44728   7.125   1.165  15.225  0.0200 -0.0721  0.0584
31315W        W44729  12.539   9.763   5.700  0.1997  0.1112 -0.1068
31316W        W44730  15.181  14.914   0.398  0.0856  0.0505 -0.2255
31317W        W44731   8.608   2.556  11.902 -0.1332  0.1673 -0.3039
31318W        W44732   8.052  13.949   4.655  0.0140 -0.2885  0.3335
31319W        W44733   3.593  16.032   5.282 -0.0444  0.1298  0.2082
31320W        W44734   8.505  14.204   4.732  0.2469  0.1383  0.2102
31321W        W44735   8.620   1.478  10.986  0.0529  0.3440  0.0600
31322W        W44736   1.753  15.117   1.192  0.1478 -0.1618 -0.2425
31323W        W44737  10.228   9.500  11.876  0.0888 -0.0788 -0.0285
31324W        W44738  17.829   5.623  12.705 -0.0078  0.0418  0.1552
31325W        W44739  16.445   2.611  13.617  0.1029  0.0100  0.0187
31326W        W44740   9.034   5.479  13.112  0.1708 -0.0267  0.0687
31327W        W44741   0.427  15.959  14.486  0.0990 -0.0824 -0.3636
31328W        W44742   6.765   6.156  15.286  0.0880  0.2671  0.0227
31329W        W44743   2.823   9.924  13.182  0.0329 -0.2024 -0.0671
31330W        W44744   4.694  10.245  10.944  0.1749  0.0630  0.0400
31331W        W44745   2.912  15.007  15.946  0.3307  0.0600 -0.0816
31332W        W44746   8.658  11.273  10.696  0.1191 -0.0641 -0.2794
31333W        W44747  11.643   9.927   4.092 -0.2350  0.1600  0.0892
31334W        W44748   5.046   1.546  12.403  0.1804  0.0122  0.1237
31335W        W44749   8.598  12.556   5.945  0.1079  0.4803  0.2108
31336W        W44750   1.643  11.333  12.361 -0.2789 -0.1605  0.2470
31337W        W44751   6.109  13.031   2.517 -0.3458  0.1923  0.0405
31338W        W44752  11.309  13.274  11.185  0.0917  0.0679 -0.2150
31339W        W44753  11.069   8.253   2.967  0.0589  0.1395  0.1579
31340W        W44754   6.296   2.172  14.066  0.0440  0.0231 -0.3309
31341W        W44755   7.841   9.318  15.138  0.1278  0.0028 -0.1363
31342W        W44756   8.749   2.106  12.685 -0.2219  0.0382 -0.3028
31343W        W44757   1.918   0.160   6.577 -0.2136  0.1514  0.1657
31344W        W44758  13.711   4.058   6.504  0.0862  0.1539 -0.2233
31345W        W44759  15.121   3.979  11.776  0.0820  0.0905  0.2689
31346W        W44760   7.604   2.363   5.484  0.0326 -0.1933 -0.0041
31347W        W44761   2.780  16.407  12.996 -0.0932 -0.1130 -0.0772
31348W        W44762   5.287  14.780  16.074 -0.3723 -0.0588 -0.1602
31349W        W44763   1.943  12.832  16.472  0.2141 -0.1540 -0.1906
31350W        W44764  12.918  12.949  11.464  0.1229 -0.0177 -0.2464
31351W        W44765  17.811   5.463  13.822 -0.2511 -0.1920  0.2192
31352W        W44766   9.176   8.632  15.830  0.1230  0.0896  0.1999
31353W        W44767   9.723  15.963   3.785  0.0524  0.2336  0.0598
31354W        W44768  15.611   9.089   2.565  0.1819  0.1818 -0.1590
31355W        W44769   9.263   6.045  11.843 -0.1651 -0.1720  0.4320
31356W        W44770  10.226   7.775  13.974 -0.1007 -0.0717 -0.0906
31357W        W44771   8.948  16.493   5.072 -0.2222 -0.0032  0.1600
31358W        W44772   3.747  17.510   6.094  0.0579 -0.2985  0.0229
31359W        W44773  13.647   2.603  15.056  0.0626  0.0971  0.3214
31360W        W44774   3.173   9.394   5.081 -0.0941 -0.0560 -0.0121
31361W        W44775   1.103   3.982  14.618 -0.0985 -0.0485 -0.1116
31362W        W44776  11.817   7.124  11.293  0.1439  0.0054  0.0145
31363W        W44777  15.557   1.231   5.252 -0.0463 -0.0463  0.3814
31364W        W44778   4.112   0.999  13.127  0.0426  0.1975  0.2436
31365W        W44779  14.686   2.254  14.987 -0.0374  0.0505 -0.1305
31366W        W44780   0.064   3.858   3.645  0.2196  0.1597 -0.3476
31367W        W44781   8.231  15.542   0.157  0.0369 -0.0638  0.0548
31368W        W44782  15.745  16.924  16.135  0.1467 -0.0810  0.1500
31369W        W44783  13.745  17.699   3.723 -0.1546 -0.0426 -0.1770
31370W        W44784   2.551  14.619   0.028 -0.1070 -0.1776 -0.0689
31371W        W44785   0.520  12.711   0.518 -0.0259 -0.1351 -0.1671
31372W        W44786  13.135  17.745  15.613 -0.1579 -0.0914 -0.0079
31373W        W44787  12.794   6.511  11.899  0.0353  0.0933  0.0692
31374W        W44788  11.532   4.678   1.720 -0.2617 -0.0034  0.1874
31375W        W44789   4.801   8.723   6.587 -0.0069  0.1408 -0.3889
31376W        W44790   3.923  14.970  12.556  0.2599 -0.1427 -0.0956
31377W        W44791  13.811   7.558   2.164  0.0737 -0.0710  0.1831
31378W        W44792  11.367  17.751   5.420 -0.0737 -0.3258 -0.0605
31379W        W44793   6.764   2.929  11.759  0.1485 -0.1447  0.2404
31380W        W44794  11.804   1.807   4.696 -0.4028 -0.1934  0.2041
31381W        W44795   7.510   8.947  15.117  0.1081 -0.1640 -0.1585
31382W        W44796   9.256   2.444   4.091 -0.2073 -0.0871  0.0459
31383W        W44797  15.950  10.263   5.340 -0.2544 -0.2195 -0.0501
31384W        W44798  17.049   8.185  11.279  0.2030 -0.1685  0.0474
31385W        W44799   4.958   4.025   2.481 -0.0773  0.2559 -0.4596
31386W        W44800  14.290  17.933  11.265  0.0822 -0.5224  0.0604
31387W        W44801  13.131   2.880   2.380 -0.1818 -0.0824 -0.1260
31388W        W44802   1.548  17.395  16.314  0.3208 -0.2081 -0.0945
31389W        W44803  12.980   5.524  11.943 -0.0978 -0.1237 -0.0627
31390W        W44804  12.654  15.614   9.982  0.0732 -0.1708  0.4193
31391W        W44805  13.239   0.909  13.226  0.2659 -0.1400  0.1454
31392W        W44806   9.787  14.103   2.656  0.1428  0.0463 -0.0369
31393W        W44807   4.350  13.885   5.415  0.1196 -0.1867  0.0198
31394W        W44808   5.318   8.125   0.845 -0.0476  0.0739 -0.2379
31395W        W44809  15.872  14.520   3.455 -0.2033 -0.0632 -0.0456
31396W        W44810  13.552   4.995  12.655 -0.0016 -0.3972  0.0146
31397W        W44811   5.001  16.710   2.911  0.0434 -0.5645 -0.2199
31398W        W44812   5.447  14.844  12.098 -0.1904  0.0234  0.3307
31399W        W44813   4.555   0.592   0.906 -0.1669  0.0610  0.1127
31400W        W44814  11.287  10.673  13.451 -0.0768  0.2337  0.2352
31401W        W44815   1.335  11.864   2.675  0.0645  0.0435  0.0918
31402W        W44816  11.002  13.919   1.972 -0.2344  0.0319  0.2595
31403W        W44817   1.862   0.774  15.836  0.2179  0.0641  0.1455
31404W        W44818   8.358  15.996  11.369  0.1156  0.2317  0.2920
31405W        W44819  13.556  11.604  13.789 -0.1347  0.1068 -0.1941
31406W        W44820   4.839   0.949  13.731  0.1438  0.2225  0.0938
31407W        W44821   9.272   9.342  15.212 -0.0206  0.1654 -0.4632
31408W        W44822   5.102   0.637   0.978 -0.1526  0.2937  0.1485
31409W        W44823   2.803  12.300  11.114  0.0727  0.0382 -0.0652
31410W        W44824  11.016   0.732   3.348 -0.0201 -0.0624  0.2977
31411W        W44825  13.293  17.332   5.055  0.0436 -0.0928 -0.2706
31412W        W44826   1.133  10.199  10.731  0.0769  0.0515 -0.3928
31413W        W44827   7.235  12.898   4.498 -0.2155  0.1222  0.0566
31414W        W44828   7.295   1.815  13.667  0.0427 -0.1367 -0.3549
31415W        W44829   3.377   2.460   0.553  0.1001  0.0158  0.0511
31416W        W44830  15.190   6.740  12.761 -0.3313 -0.0466  0.1192
31417W        W44831  13.604   0.298   1.256  0.3576  0.2823  0.1935
31418W        W44832   1.704   2.548  16.327  0.0320  0.0142  0.2352
31419W        W44833  13.350  11.933   2.433 -0.1360  0.0376  0.0470
31420W        W44834   5.724  17.302   5.942 -0.2011  0.2419  0.1399
31421W        W44835   3.721  14.411  14.604  0.0789 -0.1624  0.0849
31422W        W44836   0.496   5.437   3.193  0.1069 -0.0086  0.2594
31423W        W44837   3.547  14.731  13.596 -0.0675 -0.0081 -0.2823
31424W        W44838  16.102   6.821   0.223  0.0036  0.1315  0.1168
31425W        W44839   4.354  10.125  15.807  0.1945  0.2539  0.1336
31426W        W44840  14.576   9.388  13.600 -0.0738  0.0304  0.2143
31427W        W44841   7.254   7.686   0.973 -0.0388 -0.1041 -0.0951
31428W        W44842  14.055  11.586  13.592 -0.1637 -0.1854 -0.4598
31429W        W44843   7.801   8.402   4.989 -0.3548  0.1750  0.2080
31430W        W44844  14.722   8.304  12.980  0.1470 -0.0256 -0.0033
31431W        W44845   4.098   1.459  10.352 -0.1418  0.0692  0.0703
31432W        W44846   5.944  12.733  10.899 -0.0928  0.2144 -0.0560
31433W        W44847  15.359  11.974  13.145  0.0731 -0.2542 -0.1990
31434W        W44848  13.025   8.615  12.315  0.0633 -0.1504 -0.0427
31435W        W44849   3.570  15.741  15.223  0.1321  0.1969  0.0734
31436W        W44850   2.054   6.161   6.068  0.1190 -0.1318 -0.1492
31437W        W44851  11.616  11.978  11.056 -0.0207 -0.2530  0.1547
31438W        W44852  11.315  12.377   0.370 -0.0782  0.1487 -0.1454
31439W        W44853   4.849   5.853   0.185 -0.1909 -0.3459 -0.0445
31440W        W44854  10.465   6.016  15.666  0.0211 -0.0713  0.0973
31441W        W44855   8.878  18.024  15.885  0.0377  0.1985  0.1016
31442W        W44856  15.289   5.294  14.003 -0.0602 -0.2030 -0.2576
31443W        W44857   9.384   8.799  14.998 -0.0492  0.0370 -0.0221
31444W        W44858  17.241   4.209   6.463  0.0384  0.3103  0.3541
31445W        W44859  12.934  16.829  14.011 -0.2466 -0.0736  0.2462
31446W        W44860  16.548   3.202  13.778 -0.1093 -0.0913 -0.1607
31447W        W44861   3.722   6.437   2.248  0.2574 -0.0076 -0.1666
31448W        W44862   2.059   5.421  16.211 -0.1360 -0.3080 -0.2695
31449W        W44863   5.806   2.389  15.839 -0.2884  0.0385  0.0121
31450W        W44864   0.604  12.132  13.733  0.0482 -0.0389  0.1499
31451W        W44865  10.172  14.058   2.254 -0.1295  0.1800  0.0407
31452W        W44866   6.086  17.810  11.308 -0.0796  0.1142  0.0012
31453W        W44867   3.598   2.922  12.310 -0.0222 -0.0965  0.1797
31454W        W44868  14.179  11.160   5.560 -0.0782 -0.0254  0.1590
31455W        W44869  14.154  15.302   3.727 -0.0013  0.2261 -0.0086
31456W        W44870  17.988   3.928   5.135 -0.1914  0.0342  0.2321
31457W        W44871   0.789  10.542  10.951 -0.2772 -0.0685 -0.2616
31458W        W44872   2.898  17.398  14.845 -0.1162 -0.0503  0.1012
31459W        W44873  14.578   5.502  13.864 -0.1029  0.2454  0.0998
31460W        W44874   9.460  11.926   3.482  0.1418  0.0427 -0.1907
31461W        W44875   7.566  10.960  12.538  0.0592  0.3070  0.0490
31462W        W44876  15.567   2.301  14.503  0.1383  0.1512 -0.1390
31463W        W44877   1.215   9.582  14.946 -0.1194  0.1898 -0.0033
31464W        W44878  14.538   2.289   1.026  0.2699  0.1628 -0.1634
31465W        W44879   4.359   3.562   3.738  0.0332 -0.0832 -0.4720
31466W        W44880  11.630   5.740   4.495 -0.2773  0.1318  0.1610
31467W        W44881  16.746  14.347  11.139 -0.0046  0.2781  0.0155
31468W        W44882  11.517   9.564   5.375  0.0643  0.1183  0.2039
31469W        W44883   0.565   0.443  13.422  0.1782  0.0799  0.0332
31470W        W44884   7.245   2.554   4.091  0.1372  0.0769  0.1950
31471W        W44885  15.710   9.878   5.625 -0.1410  0.1432  0.0428
31472W        W44886  17.581  12.047   0.191  0.1024 -0.2225 -0.0450
31473W        W44887   8.076  13.017  10.971  0.2513  0.2133 -0.0800
31474W        W44888  11.055   2.362   5.157  0.1787 -0.0883 -0.1665
31475W        W44889  14.788  12.010   2.416 -0.0083 -0.2636 -0.2397
31476W        W44890  15.792   7.532   2.690  0.1132 -0.1425 -0.2376
31477W        W44891  15.656  12.829  15.542 -0.0498  0.5552 -0.2101
31478W        W44892  12.772   6.500  13.634 -0.0573 -0.1501  0.0432
31479W        W44893  14.678  11.118  11.077  0.0852 -0.2305 -0.1966
31480W        W44894  16.558   1.756   1.872  0.1504  0.0889 -0.1436
31481W        W44895   7.688  14.715  16.590  0.0053 -0.1888 -0.2262
31482W        W44896  10.235   3.743  11.372 -0.1217 -0.1176 -0.1244
31483W        W44897   4.925   3.922  15.274  0.2885  0.0069  0.0056
31484W        W44898   1.407  10.944   0.584 -0.2531  0.1502  0.1197
31485W        W44899  13.026  15.897  14.089  0.1944  0.1869 -0.1654
31486W        W44900  10.560   3.367   2.951 -0.3578  0.0261 -0.0610
31487W        W44901   2.137  15.645   5.426  0.1779 -0.1823  0.3580
31488W        W44902   2.714   1.233  12.890  0.2329  0.0878 -0.2521
31489W        W44903  15.473  17.268  11.589 -0.1937 -0.1209  0.0436
31490W        W44904  15.137   5.700  11.217 -0.0342 -0.0414  0.0671
31491W        W44905   8.165   8.652  15.638 -0.1869 -0.0242  0.0251
31492W        W44906  17.888   4.330   1.783  0.2137 -0.1362 -0.0776
31493W        W44907  16.006  12.412  10.595 -0.0693 -0.0073  0.1034
31494W        W44908  16.951  10.891   4.652 -0.0736  0.0519  0.0230
31495W        W44909   7.308   9.448   2.517 -0.1909 -0.1649  0.1930
31496W        W44910   0.581   3.619   0.435 -0.3731 -0.0137 -0.2053
31497W        W44911   1.950  14.892  15.816 -0.1251  0.3475  0.1013
31498W        W44912  14.448  10.530   2.075  0.2656 -0.2866  0.1081
31499W        W44913   4.982  12.752   4.049  0.3520 -0.0300  0.0461
31500W        W44914  10.832  17.420   3.545 -0.0511  0.3127  0.0644
31501W        W44915   4.631   4.828  14.975  0.0581 -0.3439 -0.0063
31502W        W44916  10.199   0.485  11.034 -0.2586  0.0308  0.1455
31503W        W44917  12.471   8.077   5.555  0.0145 -0.0724 -0.1200
31504W        W44918   8.600  17.117   1.352 -0.0066  0.0074 -0.0758
31505W        W44919   6.305  15.958   1.984 -0.0363 -0.0318  0.1766
31506W        W44920   3.004  16.083   0.606  0.1849 -0.0260  0.0552
31507W        W44921   8.866   8.294   4.179 -0.0604  0.2930 -0.0094
31508W        W44922   9.633   8.221  14.603  0.1995  0.1757 -0.1619
31509W        W44923   6.300   2.405  12.375  0.0877 -0.0782  0.2468
31510W        W44924   2.737   5.609  15.607  0.2575  0.1959 -0.0635
31511W        W44925  17.966   3.417   3.310  0.1589 -0.2087 -0.4463
31512W        W44926   4.587   5.370   5.403  0.0118  0.1331 -0.2375
31513W        W44927   2.366   1.214   2.522  0.0707  0.1702 -0.1243
31514W        W44928   4.770   7.137   0.872  0.1457  0.0767 -0.1194
31515W        W44929   0.924  15.942   5.053 -0.0622  0.1584  0.0339
31516W        W44930   4.739  15.428   4.719  0.1067 -0.0078 -0.0161
31517W        W44931  15.703   0.904  14.416  0.2245  0.2639 -0.0817
31518W        W44932   5.252   3.250   5.088 -0.0906  0.0048  0.1948
31519W        W44933  13.759  10.950  16.668 -0.2954  0.0103  0.2866
31520W        W44934   8.666   6.264   5.993 -0.1966 -0.1825 -0.1643
31521W        W44935   2.126   4.152   1.683  0.1244 -0.2458 -0.3512
31522W        W44936  15.577  13.763  13.301 -0.1755  0.0510 -0.2213
31523W        W44937   4.094   8.006  10.572 -0.0977  0.0847  0.0177
31524W        W44938   8.074   3.927   3.196  0.0321 -0.0459  0.4295
31525W        W44939   7.395  10.296   3.599  0.1793 -0.2204 -0.1158
31526W        W44940  11.191   9.977   3.780  0.0522  0.1397 -0.0548
31527W        W44941  10.718   9.274  14.903  0.0659  0.3595 -0.1046
31528W        W44942   7.326   8.755  14.710 -0.1043 -0.3151 -0.1068
31529W        W44943  17.537  13.999   2.113  0.0888  0.0787 -0.3652
31530W        W44944  13.032   9.991   0.984 -0.2689 -0.1542  0.1389
31531W        W44945  16.468  13.956  14.645 -0.4675  0.0150 -0.0183
31532W        W44946  14.977   0.369   6.321  0.1103  0.3134 -0.0426
31533W        W44947  14.286  17.397   2.290 -0.0653  0.0134  0.3440
31534W        W44948  16.427  13.815   4.773 -0.0941  0.1587  0.0751
31535W        W44949  14.201   1.300   1.507  0.0833  0.1313 -0.1229
31536W        W44950   9.181   8.594  10.631  0.1206 -0.0763 -0.1572
31537W        W44951  17.666   6.872  15.560 -0.2037  0.0716 -0.0146
31538W        W44952   5.338  14.002   1.532  0.3285 -0.0964  0.0973
31539W        W44953  10.658  13.724  16.127 -0.0960  0.0913 -0.2249
31540W        W44954   5.725  11.950  13.603  0.0915  0.1525  0.1836
31541W        W44955   5.992   5.238   2.818 -0.0728 -0.4124 -0.2457
31542W        W44956  13.487  15.892   4.473 -0.0257  0.1582 -0.1265
31543W        W44957   3.137   7.800  15.192 -0.2634 -0.1043  0.0253
31544W        W44958   6.848  10.782   4.401  0.1351  0.0051  0.0408
31545W        W44959   2.768  14.679   0.538 -0.1375 -0.2311  0.0912
31546W        W44960   4.982  18.042  15.532  0.0501  0.0486  0.2287
31547W        W44961  15.168  14.746  12.283  0.0113  0.2646  0.0007
31548W        W44962  11.391  17.544  14.227  0.0972  0.0088  0.2393
31549W        W44963  11.840   5.268  14.024 -0.1581 -0.1878  0.0936
31550W        W44964   4.482   6.731   0.965 -0.3639  0.1008 -0.0080
31551W        W44965  10.930  14.927  16.622  0.1805 -0.1460  0.0566
31552W        W44966   1.466   5.043  13.904  0.0184 -0.2692 -0.4493
31553W        W44967  14.540  10.473   5.986  0.3604  0.0390  0.2120
31554W        W44968   4.311  12.677  14.310  0.2764  0.1639  0.2031
31555W        W44969   8.287   2.820   5.102  0.0913 -0.2826  0.1382
31556W        W44970   8.951   0.690   4.783 -0.0723 -0.2862  0.3449
31557W        W44971   3.615   8.493  11.658  0.0940  0.3619 -0.0548
31558W        W44972  14.004  13.843   5.907 -0.2368 -0.0455 -0.0587
31559W        W44973   5.007   0.899   3.401  0.0344  0.0014  0.2980
31560W        W44974   3.666   2.122  14.074  0.3308  0.4096 -0.1934
31561W        W44975  12.620   1.188  11.427  0.0151 -0.2228 -0.1514
31562W        W44976  17.240   3.593  11.280  0.1107 -0.0432 -0.1173
31563W        W44977   9.649   7.333   1.875 -0.0232  0.0950  0.0582
31564W        W44978  12.893   7.296   5.420 -0.6399  0.1442  0.0147
31565W        W44979   3.239   2.641  15.199 -0.3456 -0.2140 -0.1732
31566W        W44980   6.326  10.097   3.768  0.1580 -0.2624 -0.4820
31567W        W44981   2.299   8.583   0.865 -0.3574  0.0288  0.0242
31568W        W44982   9.585   3.316   4.688  0.1610 -0.4377  0.2957
31569W        W44983   5.855   5.978  15.328  0.3449 -0.2315  0.0359
31570W        W44984  12.100  15.640   2.444  0.0678  0.1155  0.0065
31571W        W44985   0.110   9.347  14.695 -0.0976  0.2677 -0.0048
31572W        W44986   2.037   9.239   1.815 -0.3551 -0.7324  0.1673
31573W        W44987  10.437  16.133  10.870 -0.2392  0.2337 -0.0563
31574W        W44988  13.798   9.875  12.905  0.2424 -0.2056  0.2852
31575W        W44989  16.692  14.319  15.895 -0.3072 -0.1996 -0.2640
31576W        W44990   2.321   8.462   3.885 -0.1488 -0.0743  0.0560
31577W        W44991   0.480   0.707  16.333  0.0466  0.0280  0.1193
31578W        W44992  16.992  15.858  15.434 -0.0680  0.0671 -0.2891
31579W        W44993   6.120  16.251   0.032  0.0024  0.0013 -0.1389
31580W        W44994  17.121  15.800   4.798 -0.1411 -0.1329  0.0022
31581W        W44995   8.861   2.271   4.937  0.1769 -0.1255  0.1990
31582W        W44996   4.641   0.620   2.741  0.1283 -0.2892  0.3860
31583W        W44997   0.349   8.176   3.062 -0.0805 -0.1535 -0.2438
31584W        W44998   1.559   5.479  11.802 -0.2863  0.0688  0.0978
31585W        W44999   8.888  13.237   2.364  0.1645  0.2504  0.1966
31586W        W45000  17.088   4.776  10.690 -0.0265 -0.1981  0.2295
31587W        W45001   5.009  15.239  11.343  0.4621 -0.2238  0.2133
31588W        W45002   1.132  10.702   2.133 -0.1274 -0.0271 -0.3285
31589W        W45003   7.914   4.632   4.218  0.5255  0.0430 -0.1938
31590W        W45004  16.673  13.366   4.477 -0.1692 -0.0064  0.2544
31591W        W45005   1.626  14.403  10.575 -0.0657 -0.1738 -0.3011
31592W        W45006   1.404  16.707   1.693 -0.3343  0.1832  0.0142
31593W        W45007  11.257  14.116  13.368  0.1097 -0.1682  0.2126
31594W        W45008  11.523  11.992   4.893 -0.0666  0.1843 -0.1686
31595W        W45009  13.977  11.690   3.910 -0.1473 -0.0188 -0.0663
31596W        W45010  12.633   6.588   4.381 -0.1591 -0.1428 -0.1246
31597W        W45011  15.630  13.601   0.400  0.0050 -0.2471 -0.2462
31598W        W45012   8.751   5.357  15.308 -0.3870  0.1502 -0.1416
31599W        W45013   8.253  17.465  12.986 -0.1131 -0.0031  0.0849
31600W        W45014  16.510   0.739  14.051  0.1648 -0.1566 -0.1067
31601W        W45015  12.331  17.225  15.474  0.0053  0.2564 -0.0850
31602W        W45016   4.564  14.257  16.178 -0.5150  0.0186 -0.4043
31603W        W45017   7.270  13.032   1.436  0.1191 -0.2472  0.1204
31604W        W45018   0.038  18.042   0.703 -0.0735  0.0481  0.0444
31605W        W45019   5.831   5.933   5.855  0.1398 -0.2353 -0.0775
31606W        W45020   1.717   7.119  14.948  0.2257  0.3396  0.0409
31607W        W45021   6.496   7.960  13.191  0.1509 -0.0300 -0.0571
31608W        W45022   1.608  10.192   5.442 -0.0609 -0.1919  0.2047
31609W        W45023  11.698  16.934   6.099 -0.0949 -0.3213 -0.0774
31610W        W45024  17.142   6.173  13.349  0.3465 -0.0097 -0.1661
31611W        W45025   1.098  17.681   6.936  0.2302  0.3554 -0.0316
31612W        W45026  13.895   5.964  13.576 -0.0713 -0.0315  0.0700
31613W        W45027  10.929  11.295   2.141  0.3121 -0.1310 -0.0324
31614W        W45028   8.822   5.750  14.892 -0.0078 -0.0981 -0.1291
31615W        W45029   0.266  11.444   4.098 -0.0634 -0.3007 -0.1117
31616W        W45030  12.725   6.284  10.656 -0.2246  0.1222  0.2984
31617W        W45031  17.869  16.713   3.657  0.0676 -0.0542 -0.0263
31618W        W45032   6.673   6.532   1.150 -0.0110 -0.1262 -0.0733
31619W        W45033   2.489  14.014   3.026  0.2257  0.0482  0.0539
31620W        W45034  13.423   6.020   5.776  0.1726  0.0110 -0.0719
31621W        W45035  11.663  15.888  16.175 -0.0438  0.5337  0.0835
31622W        W45036   5.726   0.840  11.360  0.2619  0.2008 -0.1019
31623W        W45037   9.227  11.263   3.385  0.0029 -0.0283  0.0522
31624W        W45038   6.905  11.292  14.074 -0.0888 -0.3153  0.2011
31625W        W45039   9.305   0.898   3.748  0.0518 -0.2463 -0.3013
31626W        W45040  16.364  17.246   4.192  0.0098 -0.0897 -0.1499
31627W        W45041  14.731  15.085   4.091  0.0620  0.0751 -0.2378
31628W        W45042   7.122  11.726  13.653 -0.3414  0.0030 -0.0835
31629W        W45043  11.888  13.792   2.412 -0.0883  0.0657 -0.3241
31630W        W45044  14.052  17.218  15.586  0.1061 -0.0211  0.2056
31631W        W45045   0.035  12.023  12.004  0.4602  0.2088  0.2922
31632W        W45046   8.968   0.046   1.938 -0.2474  0.0395 -0.4398
31633W        W45047   1.244  11.430  13.595 -0.0306 -0.1591 -0.1093
31634W        W45048   4.081  11.538  10.150  0.3198 -0.1325 -0.0195
31635W        W45049  17.352   9.038  15.979 -0.0912 -0.2440  0.1934
31636W        W45050  15.896   5.190  16.209 -0.5237 -0.0412  0.0419
31637W        W45051   2.122   7.402   6.688 -0.1315 -0.0933 -0.4424
31638W        W45052   5.867   9.076  12.713  0.1343 -0.3301  0.1654
31639W        W45053   9.296   3.736   2.744 -0.2325  0.1410 -0.1535
31640W        W45054   0.421   1.302   5.711  0.3108  0.2079  0.0115
31641W        W45055  14.191   5.754   6.928  0.1011 -0.0593 -0.0575
31642W        W45056  11.312   0.058   1.201 -0.2279 -0.3356  0.1460
31643W        W45057  17.877  12.571  13.891 -0.0943  0.0263  0.1743
31644W        W45058   1.742   4.662  15.654  0.0722  0.2712 -0.1066
31645W        W45059  13.903   7.391   4.212  0.1841 -0.0036  0.0930
31646W        W45060   1.106   6.612   6.263 -0.1478 -0.0918  0.1055
31647W        W45061  13.158   7.159   4.886 -0.0045  0.0064 -0.0811
31648W        W45062   9.752   1.168  14.355 -0.0609  0.1425  0.1185
31649W        W45063   7.110  13.299   3.508  0.2387  0.0120  0.1749
31650W        W45064  16.711   4.008   2.597 -0.0591  0.2558 -0.1413
31651W        W45065  15.812   5.459   1.538 -0.1403  0.1215 -0.2641
31652W        W45066   7.372   3.663   1.806 -0.1188 -0.0105  0.2495
31653W        W45067  15.066   7.992   4.184 -0.3615 -0.0011  0.0435
31654W        W45068   1.532   4.256  13.303  0.3847  0.1267  0.3555
31655W        W45069  16.243  12.160  15.136  0.1846  0.0793  0.3447
31656W        W45070  10.044   9.932  15.108 -0.1078  0.1611  0.0833
31657W        W45071  11.582  13.099  14.104 -0.2004 -0.1644  0.0456
31658W        W45072   2.125  15.621   1.652  0.0383 -0.1348  0.0849
31659W        W45073   8.838   9.135   5.512 -0.0538 -0.1949  0.0466
31660W        W45074   1.806   4.515  14.935 -0.1722 -0.0070 -0.0744
31661W        W45075  10.569   8.536  11.674  0.3132  0.0972 -0.1629
31662W        W45076   9.536  17.265   2.756 -0.0520 -0.3318 -0.3253
31663W        W45077   4.917  13.082   1.385  0.1817  0.0774 -0.1295
31664W        W45078  17.684  16.712  12.639 -0.4938 -0.1725 -0.1361
31665W        W45079   5.013   0.293   2.573  0.3868  0.0384  0.0806
31666W        W45080   0.679  14.993   3.416  0.0004 -0.0670  0.2624
31667W        W45081  14.522  15.859   1.150  0.2849  0.1596 -0.1006
31668W        W45082   6.453  10.991  13.959 -0.1514 -0.0608 -0.1626
31669W        W45083  17.022  13.576  12.903  0.1277  0.2977  0.1442
31670W        W45084   0.901   9.693   1.694  0.0527  0.1297 -0.3071
31671W        W45085   1.938   6.663   2.555 -0.2280 -0.0837 -0.0480
31672W        W45086  11.452   4.179  12.771  0.0590  0.1047 -0.1210
31673W        W45087  11.159  11.211  11.390  0.2587 -0.0652  0.0678
31674W        W45088  16.107  14.489  15.186 -0.0713 -0.2231 -0.1770
31675W        W45089  11.829   7.410  15.269  0.3425  0.1321  0.0456
31676W        W45090   0.780  14.851  13.213  0.0498 -0.2852  0.0274
31677W        W45091  16.457   2.604  15.072 -0.0523 -0.2794 -0.1843
31678W        W45092  10.275  11.538  13.842  0.1488 -0.1569  0.0520
31679W        W45093   8.991  17.435   3.303  0.1113 -0.2406 -0.1933
31680W        W45094  11.742   1.256  11.848 -0.0748 -0.0011 -0.2514
31681W        W45095  14.463  13.160   4.951  0.1328 -0.1869 -0.3764
31682W        W45096  10.140   7.030   2.083  0.1973 -0.2578 -0.1062
31683W        W45097  10.613  13.910  14.558 -0.0164  0.1105 -0.0549
31684W        W45098   2.813   9.041   4.940  0.4110  0.2254  0.1605
31685W        W45099   5.991   6.771  13.765  0.1057  0.0463 -0.1059
31686W        W45100   8.065  13.980  15.555  0.0272 -0.0253  0.0198
31687W        W45101   6.543   6.560   5.038 -0.0430 -0.1199  0.0733
31688W        W45102  12.377  17.116  15.955 -0.0806 -0.0733  0.3334
31689W        W45103  16.445   9.702  12.727  0.1134 -0.1615 -0.0216
31690W        W45104   0.596   3.578  14.017 -0.1029 -0.0811  0.3195
31691W        W45105  13.077   5.028  11.183 -0.0228  0.0799 -0.2383
31692W        W45106   4.615   6.940   3.292 -0.0237 -0.0045 -0.0750
31693W        W45107   5.350  11.257  11.700  0.1047  0.0346 -0.3454
31694W        W45108  12.053   8.585  14.437  0.0021  0.0279 -0.0812
31695W        W45109  10.888  11.643   6.477  0.3591  0.0897 -0.1427
31696W        W45110  15.596  13.442   3.139  0.0380  0.0666  0.1009
31697W        W45111   8.951  11.314   3.022  0.2179  0.0135  0.2065
31698W        W45112  13.372  17.701  11.280  0.0620 -0.0460 -0.1761
31699W        W45113  12.199   1.512  12.733 -0.0935  0.3191 -0.1782
31700W        W45114  14.909   9.182   3.618 -0.1511  0.0089  0.0332
31701W        W45115   9.874   9.847  14.554  0.2178 -0.1355  0.1251
31702W        W45116   4.941   0.089  10.343  0.2497 -0.3240  0.0828
31703W        W45117  11.844   7.938   3.695 -0.1070  0.3260 -0.1062
31704W        W45118   7.627   6.473  11.936  0.0522 -0.1253 -0.1765
31705W        W45119   2.629   2.467   2.202 -0.0869  0.0120  0.0710
31706W        W45120  11.412  11.674   2.727  0.2077  0.0730  0.1854
31707W        W45121   9.350  17.179  15.868  0.1488 -0.1961  0.0822
31708W        W45122   5.590   3.365   1.836 -0.3559  0.3101 -0.2046
31709W        W45123   8.213   3.990   3.759  0.2303 -0.0984  0.0278
31710W        W45124   5.048   4.570  14.220  0.2181  0.0855 -0.1477
31711W        W45125   6.273  14.701   2.556 -0.2673  0.0661  0.2071
31712W        W45126  15.324  18.015  13.049 -0.1881  0.1290 -0.2330
31713W        W45127   1.559   4.205  16.258 -0.0891  0.3472  0.0378
31714W        W45128  12.768   5.141  10.818  0.0330 -0.4012  0.1335
31715W        W45129  12.263   1.928  10.485  0.1431 -0.0380  0.0699
31716W        W45130  12.353  13.319   4.055 -0.1722  0.0979  0.0550
31717W        W45131  12.038   5.197   4.036 -0.1733  0.0398  0.1269
31718W        W45132  10.650   9.852  10.592  0.0463 -0.1294 -0.0653
31719W        W45133  15.171  16.285  12.628 -0.1089  0.1758 -0.1958
31720W        W45134  12.826   5.802  14.362 -0.3678  0.1836  0.2381
31721W        W45135   7.331   3.784   2.582  0.1230  0.5529 -0.0881
31722W        W45136   3.874   5.647   2.799  0.1193 -0.0597  0.0908
31723W        W45137   8.881   1.992  14.334  0.1663 -0.2209 -0.2380
31724W        W45138   0.069   0.520  14.239 -0.0851  0.2447 -0.0825
31725W        W45139  12.921  11.132  16.371  0.0940 -0.1388 -0.1121
31726W        W45140   5.439  16.899   2.040  0.1253 -0.1493 -0.1107
31727W        W45141   5.570  11.973  10.377  0.2406  0.1839  0.1540
31728W        W45142   9.481   7.202   2.321 -0.1156  0.3275 -0.1363
31729W        W45143   2.816   8.461  14.626  0.1019 -0.0638  0.2912
31730W        W45144  17.132   8.989  15.220 -0.2165  0.0512 -0.2055
31731W        W45145   7.853  11.707  12.947 -0.1184 -0.1872 -0.0242
31732W        W45146  18.017   0.691  10.946 -0.1242  0.3041  0.1000
31733W        W45147  11.751  13.154   0.117 -0.0350 -0.1620  0.4321
31734W        W45148   3.774   3.280   2.082  0.1259  0.1838 -0.0607
31735W        W45149  14.055  12.160   1.441 -0.0111  0.0758 -0.0325
31736W        W45150   8.693   1.905   0.513 -0.4100 -0.2269 -0.0090
31737W        W45151   2.278  16.344  12.792 -0.1151 -0.1104  0.0042
31738W        W45152  17.585  18.011  15.507 -0.1217  0.4162 -0.3165
31739W        W45153  11.033   4.265  14.625 -0.0440  0.0388  0.2008
31740W        W45154  12.126   0.989   2.582  0.2114  0.0020  0.0134
31741W        W45155  16.651  15.649  13.491 -0.1848  0.0498 -0.1648
31742W        W45156   0.166   6.852   4.253 -0.1386  0.1842  0.0099
31743W        W45157  12.546   3.688   5.830  0.4258  0.0251  0.0879
31744W        W45158  14.906   2.807  16.321 -0.1819  0.1525  0.1825
31745W        W45159   9.804   0.563   5.074 -0.1939  0.3185 -0.2220
31746W        W45160   2.338   2.265  15.122 -0.0251 -0.0308  0.3935
31747W        W45161  11.973  13.138  13.753  0.1874  0.0985 -0.0109
31748W        W45162   7.611   5.721   0.693 -0.0623 -0.3897 -0.0227
31749W        W45163  14.654  17.402   3.577 -0.2787  0.2601 -0.1174
31750W        W45164   4.886   5.972  14.011  0.2330  0.3856 -0.0299
31751W        W45165  16.990  12.583   2.224  0.1141  0.0529  0.0580
31752W        W45166  12.983  12.443  15.928  0.1741 -0.1662 -0.1963
31753W        W45167   5.897  11.701  15.739 -0.1562  0.2072 -0.0746
31754W        W45168   9.185   7.005   4.235  0.0039 -0.1958  0.0511
31755W        W45169   0.212  14.901   4.364 -0.0768  0.0188  0.2833
31756W        W45170   8.573  12.829   2.185  0.0968  0.1141  0.0290
31757W        W45171   9.768   1.309   2.967  0.4141  0.3345  0.1074
31758W        W45172  17.247   1.681   5.733 -0.0067  0.2038  0.0277
31759W        W45173  13.552   0.684   0.948 -0.4004  0.0264 -0.0737
31760W        W45174   9.274   1.141  16.506  0.1154  0.2444  0.0972
31761W        W45175   4.551   4.909   4.667  0.3324  0.1760  0.0794
31762W        W45176  10.792  14.954   5.158 -0.0939 -0.0330 -0.0883
31763W        W45177  12.297   7.936   1.911  0.0168 -0.2703  0.3090
31764W        W45178  11.580  10.024  10.303  0.0578  0.0559 -0.0613
31765W        W45179   6.043   2.823  12.382  0.1118  0.3570  0.2670
31766W        W45180   8.023  12.932   1.940  0.1337  0.1565  0.2073
31767W        W45181  17.719   4.898  15.763 -0.0283  0.0821  0.1406
31768W        W45182  14.123   8.173  12.930  0.1251  0.0507 -0.1702
31769W        W45183   1.356   4.919   4.688  0.0399 -0.1009 -0.1305
31770W        W45184  12.697   1.246   3.556  0.0329  0.0161  0.2120
31771W        W45185   1.372   0.640   6.045  0.1111  0.0432 -0.4393
31772W        W45186   7.321   1.396  10.524  0.0411 -0.2366  0.2190
31773W        W45187  10.604  15.492  15.345 -0.1279 -0.0724  0.1472
31774W        W45188  14.753  12.339  16.150 -0.2014 -0.0583  0.1656
31775W        W45189   4.007  12.711  16.554 -0.2466  0.1439 -0.4969
31776W        W45190   6.368  11.156  12.144  0.0688 -0.3052 -0.2062
31777W        W45191   7.297   2.792  16.180 -0.1739 -0.0052  0.3981
31778W        W45192  11.936   2.527  14.608  0.1881  0.0623 -0.0110
31779W        W45193  16.817   0.525  11.545 -0.0520  0.0525 -0.2101
31780W        W45194  14.968  11.029  16.248  0.1617 -0.0682  0.1802
31781W        W45195  16.094  16.992   2.192 -0.2139  0.0383 -0.1933
31782W        W45196   8.875  10.898  13.326 -0.0808  0.1508 -0.2594
31783W        W45197   9.621  16.338  16.105 -0.1942 -0.0746  0.2932
31784W        W45198   4.791   3.892   3.604  0.1000  0.3053 -0.0653
31785W        W45199   2.917  15.465   2.976 -0.0646 -0.2704 -0.0997
31786W        W45200   5.107  14.909  11.677  0.0206 -0.2972 -0.2995
31787W        W45201  16.757  14.751   2.256  0.2148  0.1639  0.0229
31788W        W45202   4.576   4.182   5.983  0.2232 -0.0207  0.1380
31789W        W45203   0.786  17.187   1.216  0.2816 -0.0529  0.1683
31790W        W45204  16.153   7.839  12.996  0.4409  0.0467 -0.4574
31791W        W45205  10.882  13.258  16.138  0.0559  0.1606  0.1357
31792W        W45206   3.089   7.689  10.846  0.0439 -0.2461 -0.0986
31793W        W45207   0.683  15.198   4.494  0.0727  0.0512 -0.0199
31794W        W45208   2.755   0.058   2.733 -0.2589 -0.1261  0.2506
31795W        W45209  14.593  17.166   1.898 -0.2334 -0.0136  0.0277
31796W        W45210   5.443   1.732   5.611 -0.0146 -0.0278 -0.3544
31797W        W45211   1.936   2.870  12.402  0.1929  0.4432 -0.1205
31798W        W45212   7.896   6.293  13.763  0.2852 -0.3241 -0.1077
31799W        W45213   6.948   3.577   2.132 -0.0458  0.1055  0.0148
31800W        W45214   6.025  12.985  13.222 -0.0313  0.1264  0.0369
31801W        W45215   8.046  15.533  10.732 -0.0625  0.0699 -0.1285
31802W        W45216  11.685  15.632  15.759 -0.0830 -0.1841  0.2188
31803W        W45217  10.747  10.772   4.998 -0.0581  0.0972 -0.0415
31804W        W45218  12.561  13.927   1.925  0.1777  0.0493  0.0060
31805W        W45219  11.917  16.909  13.300  0.0322  0.1481  0.2662
31806W        W45220   4.385  10.307  13.154 -0.0990 -0.2843 -0.1665
31807W        W45221  10.088  10.588  12.856  0.0834  0.0210 -0.1801
31808W        W45222  13.455  15.102   0.910  0.1057  0.0069  0.1728
31809W        W45223   5.664   2.413   1.862 -0.2306  0.0819 -0.1180
31810W        W45224  17.702  17.624   5.686 -0.1080 -0.1479  0.0144
31811W        W45225   1.719  12.707  16.048  0.3364  0.0470  0.0174
31812W        W45226  15.855   2.592   1.013  0.1659  0.0223  0.1006
31813W        W45227  13.482  12.678   4.690  0.0142 -0.2852 -0.2242
31814W        W45228  16.657  10.521   2.749 -0.2978 -0.1649 -0.1101
31815W        W45229   4.093   2.513  12.269 -0.4075  0.1967 -0.0494
31816W        W45230   4.485   5.684   5.833  0.2044 -0.0840 -0.2060
31817W        W45231   6.108  17.361   6.473  0.1636 -0.0107 -0.0961
31818W        W45232  17.877  12.944  11.079  0.0424  0.2826 -0.1169
31819W        W45233  14.956  17.512  13.545  0.0686  0.0607 -0.0767
31820W        W45234  15.094  13.471   0.468 -0.0054 -0.3728 -0.0479
31821W        W45235   9.101   0.634   0.181  0.0957 -0.1124 -0.1651
31822W        W45236  17.666  15.158   3.527 -0.3041 -0.1531  0.1439
31823W        W45237   8.437  17.831   1.867  0.2332  0.0985  0.1263
31824W        W45238  14.510   9.981  14.266 -0.0861 -0.2598  0.3059
31825W        W45239  12.535  13.922  15.130  0.0781  0.3108  0.0253
31826W        W45240   4.835   0.508   1.585  0.2058  0.0655  0.1316
31827W        W45241   9.006  14.147   2.073 -0.0264  0.1490 -0.1431
31828W        W45242   2.552   6.433   4.859  0.0260 -0.0113 -0.0062
31829W        W45243  11.036   9.546  14.542 -0.1263  0.1458 -0.0478
31830W        W45244  17.551  17.559   2.655  0.0531  0.2136  0.0435
31831W        W45245   1.761   7.923   3.241  0.1230  0.2839 -0.0057
31832W        W45246  10.171  18.032   2.700  0.0159  0.0115  0.1357
31833W        W45247  12.748   2.293  13.339  0.0892  0.1720  0.2732
31834W        W45248   2.021   2.899  14.431 -0.1108  0.2612 -0.0815
31835W        W45249   5.458   5.975  13.776  0.2146  0.0530  0.1625
31836W        W45250   3.543   5.541   0.360 -0.1699  0.1567 -0.1540
31837W        W45251   9.383   8.637   3.428 -0.1864 -0.0992  0.2510
31838W        W45252   1.866  15.841   4.011 -0.0398  0.4461 -0.2428
31839W        W45253   2.047   6.297  14.808  0.1880  0.1490  0.1602
31840W        W45254   1.636   7.618  13.944  0.0695 -0.0234  0.0485
31841W        W45255  12.261  15.715  10.892 -0.0318  0.2163 -0.1127
31842W        W45256   6.936  14.705  11.302  0.0082  0.0691 -0.1840
31843W        W45257   9.040  17.602   5.449  0.0096 -0.0548  0.2858
31844W        W45258   6.626   1.262   4.779  0.0194 -0.0551 -0.2500
31845W        W45259   2.970  12.333   3.003 -0.2912 -0.1711  0.2666
31846W        W45260  15.612  12.787  14.210 -0.1215  0.0846  0.2981
31847W        W45261   0.687  11.280  15.852 -0.0290 -0.1276  0.0506
31848W        W45262   4.420   6.550   6.895 -0.1152 -0.1174 -0.1499
31849W        W45263  11.883  14.081  13.696 -0.1056  0.2716  0.1632
31850W        W45264   8.378  13.261   5.187 -0.1525  0.2383 -0.3218
31851W        W45265   1.264  11.310  14.878  0.0316  0.2401 -0.1605
31852W        W45266  17.581   3.591   1.261  0.0148  0.3955 -0.0556
31853W        W45267  16.581  17.599   6.121 -0.2262 -0.2789 -0.1499
31854W        W45268   4.406  12.959  13.868  0.2074 -0.1929 -0.0645
31855W        W45269  11.590  14.697   2.060  0.0624 -0.2548 -0.0919
31856W        W45270   7.046   4.018   4.399  0.2865 -0.1289  0.2405
31857W        W45271   8.001  10.211  15.322  0.2459  0.0556 -0.2002
31858W        W45272  15.744   8.851   1.994 -0.0558 -0.0601 -0.2598
31859W        W45273   8.395  12.013   4.861  0.0667  0.4412  0.0739
31860W        W45274  12.620  11.314  12.154 -0.0723 -0.3286  0.0358
31861W        W45275  12.756   9.745   1.406 -0.0831  0.1146 -0.0350
31862W        W45276   9.140   2.682  15.863  0.1803 -0.2415  0.2028
31863W        W45277  13.625   5.263  11.814 -0.0839 -0.1019 -0.1706
31864W        W45278  13.160  12.146  11.267 -0.1944 -0.0819  0.0655
31865W        W45279   6.492  12.324   3.477 -0.2736 -0.0739  0.2107
31866W        W45280   0.732   2.867  11.742 -0.0833 -0.1272  0.1341
31867W        W45281   0.107  16.783  15.009  0.3341  0.0697 -0.1106
31868W        W45282   9.355   4.157  15.327  0.0580  0.1344 -0.2351
31869W        W45283   2.231  14.744   1.430 -0.1787 -0.1617  0.2173
31870W        W45284   3.911   1.604  15.118 -0.0641  0.4742 -0.0240
31871W        W45285  17.958  12.757   5.207  0.0719 -0.2790 -0.0238
31872W        W45286   5.257  15.704   5.200 -0.0408  0.0812 -0.0471
31873W        W45287  11.970  12.758   1.076 -0.1888 -0.0002  0.1002
31874W        W45288   6.257  17.806  15.185  0.0892  0.0950 -0.1344
31875W        W45289  14.956  14.895  13.718  0.0781  0.3133 -0.0728
31876W        W45290   2.654   0.029   3.321  0.0438 -0.2307  0.1966
31877W        W45291   6.247   6.567  10.796  0.2414  0.2294 -0.0877
31878W        W45292  10.354   9.546  11.343  0.1630 -0.3156 -0.0805
31879W        W45293   7.401  12.466   1.338  0.0002  0.2457 -0.1153
31880W        W45294   8.364   1.416  14.605  0.3344 -0.1452  0.1352
31881W        W45295   7.845   1.054   5.460  0.2289  0.1551  0.2906
31882W        W45296  11.127   2.012  12.590  0.2140  0.0597  0.0688
31883W        W45297  16.343   3.512   2.149  0.0254  0.3024 -0.1926
31884W        W45298   7.434   2.720   4.510 -0.1504 -0.0688  0.2234
31885W        W45299   9.135  17.106  12.210  0.2604  0.3349  0.1016
31886W        W45300   7.313   0.653   1.482 -0.2327  0.5003 -0.1778
31887W        W45301  11.775   5.893   2.375  0.5311  0.1791 -0.0236
31888W        W45302  16.165   3.018  15.980  0.0603  0.1525 -0.1023
31889W        W45303  10.800  17.550  12.852  0.1533 -0.1621 -0.2058
31890W        W45304   8.594  14.171  14.644 -0.0214 -0.1466  0.1545
31891W        W45305   9.180  11.049  12.910 -0.0351 -0.1496  0.1137
31892W        W45306   4.014   0.480  16.497 -0.0793 -0.1348 -0.2043
31893W        W45307   4.892   3.681   4.022 -0.1095  0.0730  0.1663
31894W        W45308  15.853   1.085  13.641 -0.2260 -0.3337  0.2115
31895W        W45309   2.814  15.742   4.322 -0.3424  0.0837 -0.1076
31896W        W45310  10.426   0.742   0.414  0.0165 -0.0200  0.5522
31897W        W45311   4.724  10.462   2.338 -0.1620  0.2325 -0.1196
31898W        W45312  13.315  11.058   5.265  0.1332  0.0127 -0.4494
31899W        W45313   9.651  12.777   0.588 -0.1065  0.0833 -0.0655
31900W        W45314   5.456   3.344  10.268  0.2688  0.3096  0.0757
31901W        W45315   2.306  17.877   1.166  0.1956  0.1434  0.0022
31902W        W45316  13.797   5.106   4.663  0.0539 -0.3066 -0.0114
31903W        W45317  13.253   4.541   0.249  0.2731 -0.0148 -0.2125
31904W        W45318  12.358   3.203   2.000 -0.1656 -0.0339  0.1657
31905W        W45319  12.182   3.920  11.102 -0.0572  0.1542 -0.1667
31906W        W45320  13.131  15.421   3.745  0.0198  0.0609  0.0780
31907W        W45321  12.231   9.972  12.079 -0.0400  0.0682 -0.2188
31908W        W45322   1.397  17.802   0.651  0.0266  0.0381  0.0128
31909W        W45323  14.261  16.755  14.810  0.1074 -0.1300  0.0480
31910W        W45324  15.141   3.706  12.197 -0.0165 -0.5304 -0.0318
31911W        W45325  15.977   1.535   4.996 -0.0693 -0.1338  0.2485
31912W        W45326  13.461  16.917  12.221  0.0210  0.0781  0.1854
31913W        W45327   9.997   4.309   3.789 -0.3265  0.0966  0.2319
31914W        W45328   4.272   3.212   5.107 -0.0860  0.1794 -0.0941
31915W        W45329   1.078  14.008   5.337 -0.1160 -0.0891  0.0410
31916W        W45330  14.641  12.373   1.996 -0.0666  0.0494  0.0742
31917W        W45331   6.804   8.991  14.664  0.3246 -0.3656  0.4674
31918W        W45332  16.481  14.638  15.515  0.1015  0.0923  0.0962
31919W        W45333   1.261  10.469  14.302 -0.0781  0.2345 -0.1181
31920W        W45334   6.796  17.355   0.787 -0.2394 -0.1577  0.1711
31921W        W45335   1.682   8.936  12.069 -0.0018 -0.1728  0.0978
31922W        W45336  11.855  11.316  13.289 -0.0135 -0.0166 -0.0720
31923W        W45337  14.204   2.054  13.164  0.1921 -0.0925  0.2905
31924W        W45338   3.991   2.114  11.901  0.1593  0.0864 -0.0668
31925W        W45339   7.238   2.214  10.756  0.0287  0.0956 -0.1195
31926W        W45340  16.098  15.306   5.461  0.1039  0.0129 -0.2150
31927W        W45341   6.407   7.834   0.996 -0.0167 -0.0911  0.1108
31928W        W45342  10.963   4.203  10.946 -0.1103 -0.0309  0.2030
31929W        W45343  11.064  16.965  12.462 -0.2299  0.2402  0.1368
31930W        W45344   8.831   5.025   2.655  0.0476  0.0471 -0.1413
31931W        W45345  11.336  14.203   5.249 -0.1469  0.3149  0.1008
31932W        W45346  15.957   8.252  14.250 -0.2059  0.0719 -0.1860
31933W        W45347   1.602  10.421  10.829 -0.1157  0.0682 -0.3298
31934W        W45348  10.680  17.776  16.319  0.0924  0.2369  0.1525
31935W        W45349   5.350   0.584   0.588 -0.0554  0.2585 -0.0567
31936W        W45350   1.642  11.611   3.062 -0.0451  0.1096  0.0573
31937W        W45351  14.698  13.806  14.441 -0.3203 -0.0816 -0.0122
31938W        W45352  14.914   0.184  14.983 -0.1075 -0.0527  0.0007
31939W        W45353  17.850   6.146  11.024  0.0767 -0.0660 -0.0138
31940W        W45354   1.777  15.026   2.486  0.2467  0.0974 -0.2874
31941W        W45355   1.019  13.918   2.736 -0.0840  0.0320 -0.5211
31942W        W45356   8.370   0.618   0.618  0.2211 -0.0729  0.2824
31943W        W45357   5.519   1.013   2.640 -0.0633 -0.0988  0.1389
31944W        W45358  11.900  17.102  15.294 -0.2389  0.2876 -0.1588
31945W        W45359   5.704   8.615   5.056 -0.2008 -0.2008 -0.0200
31946W        W45360  17.635  17.678   4.704  0.2004  0.0395  0.2255
31947W        W45361  13.822  11.754  11.493 -0.1433  0.1401 -0.1241
31948W        W45362  14.421   9.991   0.509 -0.0406  0.2076 -0.2896
31949W        W45363  11.607   7.100   0.281  0.0289 -0.0697  0.0103
31950W        W45364  11.608   9.738   3.606 -0.2829  0.0578  0.0438
31951W        W45365   8.963  16.569   1.359 -0.0602  0.1521 -0.2042
31952W        W45366   6.263   3.919  12.755  0.0445  0.1873  0.1410
31953W        W45367  10.617   6.213  11.487  0.1274  0.2839 -0.1166
31954W        W45368   1.283   8.357   0.804  0.1357 -0.1274 -0.1818
31955W        W45369   8.044  13.194  13.377 -0.1306  0.0639 -0.1233
31956W        W45370   5.834  14.701  13.661  0.0338 -0.1096 -0.0367
31957W        W45371   2.240  13.111  10.838  0.0673  0.1011 -0.0489
31958W        W45372   6.719  13.467  13.883  0.0471  0.0884  0.1444
31959W        W45373   4.402   3.304  14.059  0.1631 -0.1783 -0.0502
31960W        W45374  10.437   4.766   1.383  0.3974  0.2258 -0.0711
31961W        W45375   9.771   1.574   3.456 -0.4059  0.0315 -0.2199
31962W        W45376   7.022  11.929  13.214  0.2121 -0.0541  0.2844
31963W        W45377  16.917  14.771  16.661 -0.1779 -0.1383  0.1981
31964W        W45378  16.667   2.697  12.610 -0.0009  0.2048 -0.0579
31965W        W45379   4.823  10.509   3.980 -0.2125  0.1435 -0.1115
31966W        W45380   7.166   6.370  12.754  0.0275  0.0456  0.1455
31967W        W45381  15.227  13.850  16.098 -0.1055  0.3747 -0.1164
31968W        W45382   1.619  11.218   0.177  0.0319 -0.2011 -0.0548
31969W        W45383   2.941   0.714  14.084  0.0333 -0.0687  0.0715
31970W        W45384   2.823  16.385   5.173  0.1447 -0.0683 -0.0326
31971W        W45385  10.074   6.721   9.952 -0.1769 -0.2916 -0.0827
31972W        W45386   7.543   4.406  16.630 -0.0337 -0.0096  0.0220
31973W        W45387   7.343   1.571  12.187 -0.0089 -0.1586 -0.2317
31974W        W45388   5.262  14.178   3.636 -0.1087  0.1260 -0.3375
31975W        W45389  15.435   2.529  11.863  0.3540  0.0252  0.2580
31976W        W45390  10.716  16.019  13.297 -0.0937 -0.1380  0.0986
31977W        W45391  12.845   6.450  16.180  0.2887  0.1671 -0.1759
31978W        W45392   2.920   4.792   0.565 -0.0452  0.0104 -0.1116
31979W        W45393  17.128  17.381  16.112 -0.2515  0.0895 -0.0047
31980W        W45394   1.777   5.120   5.629 -0.3108  0.5246 -0.3661
31981W        W45395   9.081  12.123   5.376  0.0664 -0.2145 -0.2516
31982W        W45396  11.353  16.621   2.743 -0.1124  0.0402 -0.1112
31983W        W45397   7.254   9.163  12.832 -0.0471 -0.0079 -0.0002
31984W        W45398   1.014  17.312   4.680  0.1285  0.2397 -0.1846
31985W        W45399  13.114   3.200   4.108 -0.0736 -0.0575 -0.1765
31986W        W45400   5.786  13.250   5.105 -0.2992 -0.2228  0.0773
31987W        W45401  14.529   5.108   3.451 -0.4552  0.0371  0.0316
31988W        W45402  15.196   2.634   6.451 -0.1700  0.0978 -0.0846
31989W        W45403   6.433   6.711   4.574  0.2884 -0.1107  0.0527
31990W        W45404   1.058   9.966  14.526  0.1631  0.1732 -0.0781
31991W        W45405  12.657  13.646  11.531  0.1976 -0.0098  0.2254
31992W        W45406  10.596  15.532  13.347 -0.1386  0.0812 -0.0358
31993W        W45407   8.071   0.444  14.774  0.0135  0.0208 -0.0353
31994W        W45408   4.206  14.982   0.606  0.1370 -0.1080 -0.1545
31995W        W45409  16.342  12.952  14.749 -0.3015  0.0815  0.0482
31996W        W45410   4.667  14.216  12.833 -0.0007  0.0299 -0.3138
31997W        W45411   5.175   2.892  10.689  0.1380  0.0608  0.0437
31998W        W45412   2.487   8.593  16.064 -0.1811  0.3314 -0.1895
31999W        W45413   0.434  14.423   2.062 -0.0471  0.1973  0.0447
32000W        W45414   5.754   0.055  16.037 -0.3055 -0.3265  0.0345
32001W        W45415  16.139  14.539  12.964 -0.0782 -0.2397  0.2983
32002W        W45416   8.215   4.215   5.152  0.0590 -0.1147 -0.1337
32003W        W45417  15.953   5.038  15.390 -0.1815 -0.0010  0.0913
32004W        W45418   3.732   1.606  14.138 -0.2861  0.1248 -0.2518
32005W        W45419  13.128  11.393   1.410 -0.0379 -0.0671 -0.1678
32006W        W45420   3.773  15.203  15.917 -0.0305 -0.0267 -0.0255
32007W        W45421   8.117  12.837  15.004 -0.1728  0.0022  0.0228
32008W        W45422   8.740  14.864   0.605 -0.1939 -0.0980 -0.2098
32009W        W45423   3.211   7.671   1.885  0.1471  0.2153  0.0339
32010W        W45424   5.925  16.947   4.186 -0.0079  0.0857  0.3162
32011W        W45425   5.161   1.543   2.005 -0.0808 -0.1792  0.0465
32012W        W45426   6.345  17.802   2.920  0.1119 -0.1273 -0.0512
32013W        W45427   0.489   2.504  11.475  0.0772 -0.0335  0.0326
32014W        W45428  16.283   5.399  15.783  0.1919 -0.0423  0.2179
32015W        W45429  14.941  18.020   5.946 -0.0197  0.0858 -0.1072
32016W        W45430   8.668   9.704  11.242  0.0110  0.0784  0.2385
32017W        W45431   2.200   8.668  10.508  0.3097  0.0513  0.1802
32018W        W45432  14.332   8.079  12.459 -0.3220 -0.1409  0.0206
32019W        W45433   3.129   7.829   3.249  0.0756 -0.1654  0.0310
32020W        W45434  10.203  11.620   0.162  0.0088 -0.0362 -0.1340
32021W        W45435   9.150  17.069   2.998 -0.0079 -0.0490  0.2099
32022W        W45436   7.205  16.304  15.258 -0.0070  0.1937 -0.1774
32023W        W45437  11.923  13.767   4.615  0.1246 -0.1845  0.1158
32024W        W45438  10.551   4.360   2.589 -0.0903 -0.0195 -0.1353
32025W        W45439  13.579   9.176  14.691  0.1424 -0.2236  0.2137
32026W        W45440   9.268   9.638  13.371 -0.0004 -0.0714 -0.1343
32027W        W45441   2.873  12.502  14.456 -0.0690  0.0899  0.0947
32028W        W45442   5.158  15.258  13.571  0.0358  0.0337 -0.0672
32029W        W45443  13.911   5.586  12.106  0.2499 -0.0734  0.0744
32030W        W45444   2.151   3.773  11.918 -0.3812  0.1932 -0.1180
32031W        W45445   6.881   8.953   3.315  0.1920  0.2364  0.0765
32032W        W45446   1.108   1.602  12.027  0.0591  0.2189 -0.0639
32033W        W45447  14.787  16.426  13.907 -0.1597 -0.1439  0.2340
32034W        W45448   1.747  14.340  11.952  0.0861  0.0784  0.0469
32035W        W45449  15.581   7.184  15.728 -0.0025 -0.1684 -0.0001
32036W        W45450   3.917   6.202  12.359  0.1945 -0.3582 -0.3344
32037W        W45451  11.723   7.322  13.544  0.1771  0.2061  0.1923
32038W        W45452  12.768  14.082  14.345 -0.1976  0.0011  0.0682
32039W        W45453  13.851   9.891  13.705 -0.2362 -0.1313  0.2871
32040W        W45454   8.636   4.750   3.626  0.2061 -0.3309  0.3072
32041W        W45455   7.771  10.457  14.611  0.1549  0.3193  0.1356
32042W        W45456   3.811  11.415   0.238 -0.2054  0.1086  0.1047
32043W        W45457   8.646  10.832   0.190 -0.0687  0.1210  0.0103
32044W        W45458  17.630  12.324   9.912 -0.1134 -0.1669  0.0178
32045W        W45459   1.529  15.876  16.675  0.2723 -0.1880 -0.1983
32046W        W45460   2.125   4.889   0.938  0.0555 -0.2298  0.0336
32047W        W45461  12.424  15.829  11.784  0.0309 -0.0774  0.0428
32048W        W45462   7.254   4.508   1.437  0.1052  0.1480  0.0729
32049W        W45463  17.728  10.897   5.112  0.0611  0.3027 -0.0548
32050W        W45464   3.562   2.452  12.230  0.0641 -0.0951 -0.1645
32051W        W45465   5.460   7.911  10.954 -0.0941 -0.2658 -0.2825
32052W        W45466   5.380  14.495  13.288 -0.0466 -0.3849 -0.1713
32053W        W45467  13.144   7.579   5.786 -0.0694  0.1985 -0.2079
32054W        W45468  10.510   0.638  14.371 -0.0537  0.2358  0.1515
32055W        W45469   5.919  14.141   5.083 -0.0083  0.1312 -0.2625
32056W        W45470   4.111  14.600   3.292  0.0674 -0.1013 -0.0819
32057W        W45471   8.177  12.467   4.871 -0.3162  0.0667  0.2827
32058W        W45472   1.184   2.585  13.974  0.1967 -0.1725  0.5095
32059W        W45473   5.449  14.946  12.817 -0.0146  0.2604 -0.3907
32060W        W45474   0.447  17.386  14.278 -0.2462  0.0854  0.4236
32061W        W45475  16.529  14.730   0.777  0.0661 -0.2599 -0.2338
32062W        W45476  12.238  13.915   9.718  0.1515 -0.0960  0.2159
32063W        W45477   7.690   6.853   1.787 -0.0182  0.0888 -0.2419
32064W        W45478   2.135  14.002   4.177  0.2168 -0.1512  0.0336
32065W        W45479   9.407   6.886  10.700  0.2177 -0.0588  0.0433
32066W        W45480   3.524  10.322   3.866  0.1036 -0.2176  0.0711
32067W        W45481   0.404   5.957  15.044  0.1266 -0.0919 -0.0729
32068W        W45482  14.398   5.871  13.400  0.0449 -0.0397  0.1765
32069W        W45483   7.040   3.628   4.010  0.2961  0.2129  0.2051
32070W        W45484   8.787  15.400  11.791 -0.1114 -0.3015 -0.2066
32071W        W45485   4.670  13.065  15.233 -0.4214  0.1079 -0.1745
32072W        W45486  10.076   9.921   0.493 -0.2853  0.2876  0.4556
32073W        W45487   0.295   0.921  14.445  0.0113  0.1376 -0.1008
32074W        W45488   0.650   6.749  15.590  0.1044  0.3381 -0.0565
32075W        W45489  11.059   1.252   4.165  0.0010  0.1162  0.2400
32076W        W45490  16.385  13.018   4.156  0.2506 -0.0583  0.0467
32077W        W45491   6.930  15.677  14.837 -0.0762 -0.1608 -0.2084
32078W        W45492  11.747  13.379   2.144  0.2764  0.0582  0.0677
32079W        W45493  11.051   9.770  16.259  0.1232 -0.0342 -0.0629
32080W        W45494   5.621   6.682   2.419  0.4231  0.1817  0.1382
32081W        W45495   4.226   7.416  13.444 -0.2149  0.0839 -0.1786
32082W        W45496   1.038  15.925  13.834 -0.0730  0.0882 -0.2563
32083W        W45497   3.563  14.125   1.390 -0.2803  0.2403  0.1860
32084W        W45498   9.272  16.127  13.342 -0.1313 -0.2050 -0.1841
32085W        W45499  11.845   4.027   1.368  0.2096 -0.2796 -0.2029
32086W        W45500  13.345   7.307  11.681 -0.1291 -0.1085  0.1064
32087W        W45501  13.694   2.370  13.810  0.2489  0.0933  0.0543
32088W        W45502   3.768  16.477  11.035  0.3497  0.1655  0.1106
32089W        W45503   9.691  10.086   3.626  0.0765  0.0427  0.1624
32090W        W45504   4.341  12.605  11.738  0.2421 -0.2601 -0.2218
32091W        W45505   1.688  17.383   0.981  0.1596  0.4797  0.1248
32092W        W45506   4.806   8.009   1.057 -0.1392  0.0784  0.2519
32093W        W45507  16.988  10.006   1.615  0.0964 -0.2045 -0.1020
32094W        W45508  15.104   5.734   7.099 -0.4116 -0.2617  0.4120
32095W        W45509  14.462  13.608   4.586 -0.1546  0.2114  0.2676
32096W        W45510  10.635   1.599  14.290 -0.1499  0.0227 -0.0546
32097W        W45511  13.709   7.363  12.414  0.2862 -0.0639 -0.0202
32098W        W45512  13.181  10.950  12.245  0.1844 -0.1257  0.1575
32099W        W45513  14.771   8.937   2.254  0.2816  0.2724 -0.0364
32100W        W45514   8.497   3.452   2.367  0.0779  0.0712  0.3411
32101W        W45515  10.263   6.976  13.536  0.1653  0.1092 -0.3417
32102W        W45516  12.319  16.180   1.587  0.0016  0.1154 -0.4252
32103W        W45517   7.107   6.134  13.706  0.1460 -0.0286 -0.1159
32104W        W45518   6.627   4.259   4.227  0.2650  0.2221  0.4066
32105W        W45519   5.498  13.487  11.108  0.3773  0.0123  0.1302
32106W        W45520  10.229   2.463  13.848  0.0679  0.2114 -0.0603
32107W        W45521  11.876   4.609   0.398  0.1320  0.1823  0.2809
32108W        W45522   4.262   9.584  14.863 -0.0893  0.2052 -0.0858
32109W        W45523   9.450  10.373   1.836 -0.1179 -0.0924 -0.2269
32110W        W45524   4.794  15.181  14.039 -0.2602  0.1691 -0.3630
32111W        W45525  16.767  17.560  14.483 -0.1378 -0.0175 -0.0614
32112W        W45526  10.700  15.321  12.498 -0.1477 -0.0073 -0.3300
32113W        W45527   0.264  13.955  15.722 -0.0338 -0.1781 -0.0361
32114W        W45528  14.020   4.927  15.417  0.0683 -0.0063  0.2608
32115W        W45529  13.352  11.933  14.652 -0.0291  0.1553 -0.0674
32116W        W45530   0.993  12.666   0.848  0.1526 -0.0393 -0.2294
32117W        W45531  12.201   1.908   1.053 -0.0984  0.0026 -0.1812
32118W        W45532   7.749   3.885  13.016  0.5387 -0.0362  0.2830
32119W        W45533  15.098  13.513  12.602 -0.3403 -0.0676 -0.1100
32120W        W45534   7.244   4.961   3.801  0.1850  0.0096 -0.0940
32121W        W45535   9.352  13.800  14.264  0.0338  0.2043  0.2100
32122W        W45536   1.163  17.350  14.964  0.1745 -0.3207 -0.0936
32123W        W45537   6.281   1.627  14.891  0.0412  0.1152  0.0451
32124W        W45538   4.248   6.501  11.317 -0.0119 -0.3736  0.2872
32125W        W45539   5.778   2.357  14.185 -0.3009  0.2527  0.0094
32126W        W45540  16.979  10.122   2.723 -0.0288  0.0562 -0.1598
32127W        W45541  16.291   4.308   4.598  0.0069 -0.0388 -0.0647
32128W        W45542  14.119  15.790  14.202 -0.1997  0.1458  0.2523
32129W        W45543   0.869  17.916   3.887  0.2030 -0.0482 -0.3071
32130W        W45544   4.729  13.441  16.571 -0.0547 -0.1441 -0.2459
32131W        W45545  16.478   1.753  11.415 -0.0408  0.0198 -0.1320
32132W        W45546   3.075   9.945   2.046 -0.3102  0.2279  0.1781
32133W        W45547   4.627  11.954  13.816  0.3152  0.0311 -0.0172
32134W        W45548  12.650   8.541   4.612  0.0242  0.0608 -0.1141
32135W        W45549  12.558  10.727  14.429  0.0508  0.0462 -0.0046
32136W        W45550  13.005  10.729  15.989  0.3672  0.1867  0.0756
32137W        W45551   4.899  17.655  13.786  0.2260 -0.2095 -0.0274
32138W        W45552   6.748   1.591  12.267  0.4239 -0.0026  0.1287
32139W        W45553   9.800   9.900  11.852 -0.2017 -0.0889  0.1057
32140W        W45554  15.073   3.338  14.662 -0.1718  0.0282 -0.3733
32141W        W45555   1.175  11.977  16.098  0.0113  0.0412 -0.2675
32142W        W45556   4.027  15.255   4.285  0.0093 -0.1852  0.0367
32143W        W45557  12.056  15.027  14.174 -0.0536 -0.0431  0.0669
32144W        W45558   4.734  14.129  11.326  0.0596 -0.0351 -0.4325
32145W        W45559   2.122  17.413  12.290  0.0533  0.0617  0.1081
32146W        W45560  16.902   6.645  16.216  0.3325  0.0903  0.0194
32147W        W45561  15.593   9.271  14.758  0.2516 -0.1355 -0.0410
32148W        W45562  12.176   8.303  13.311  0.0495  0.1453 -0.1416
32149W        W45563   5.179  12.340   3.727  0.1180 -0.0080 -0.0432
32150W        W45564  10.002   8.228   4.664 -0.3050  0.0909 -0.0479
32151W        W45565  14.846   4.352   5.152 -0.0821 -0.3716 -0.0005
32152W        W45566  17.284  16.667  10.478  0.2381 -0.2598  0.0391
32153W        W45567   2.109  11.860   2.982 -0.2203 -0.4495  0.0885
32154W        W45568   4.061   5.891  12.781 -0.0038 -0.3480  0.1496
32155W        W45569   3.470  14.483   1.882 -0.1234  0.3242 -0.0297
32156W        W45570  13.506  10.178  12.129 -0.0823 -0.0437  0.2393
32157W        W45571  12.368  17.393   4.270 -0.1811  0.2239 -0.0361
32158W        W45572   2.313   7.548  14.460 -0.2653  0.0468 -0.1705
32159W        W45573   1.410   7.427  11.748 -0.2269  0.1740 -0.0592
32160W        W45574  16.860  11.472   2.998  0.0227 -0.1423 -0.2652
32161W        W45575   3.508   7.832   2.245 -0.0646  0.0184  0.1972
32162W        W45576  11.466   4.825  14.718  0.1478 -0.1294  0.0096
32163W        W45577   2.277   2.739  16.495  0.0747  0.1937 -0.1880
32164W        W45578  12.906  15.812   3.667  0.0507  0.0739 -0.0920
32165W        W45579  17.541   6.788  13.860 -0.0364  0.1926 -0.0313
32166W        W45580  14.327   5.811   3.113 -0.0649  0.1018  0.0670
32167W        W45581  16.802  16.598  12.506  0.0332  0.1116 -0.1572
32168W        W45582   1.878   5.220  15.621 -0.1096 -0.0319  0.2809
32169W        W45583   4.772  15.602  13.032 -0.0748 -0.2591  0.2930
32170W        W45584   5.644   0.500  15.882 -0.0179 -0.0138  0.2950
32171W        W45585   5.856   7.309  14.194 -0.1388  0.1348 -0.2067
32172W        W45586  16.635  12.250  15.656 -0.0933 -0.0461  0.0150
32173W        W45587  10.047  15.044  11.257  0.3203  0.0659  0.0941
32174W        W45588  10.520   1.325   0.107  0.1570 -0.1465 -0.1580
32175W        W45589  16.416   1.896  16.262 -0.0952 -0.0762 -0.1764
32176W        W45590   6.287  16.167  12.240  0.0527 -0.4282  0.3148
32177W        W45591   5.689   1.142  11.784 -0.0762 -0.0261  0.0084
32178W        W45592  10.239  13.238  10.979 -0.1191  0.1860  0.1306
32179W        W45593   0.753   7.817   3.746  0.2198  0.0177 -0.0179
32180W        W45594   6.574  16.416   2.742  0.3258 -0.1957 -0.1967
32181W        W45595   6.613   8.291  10.697  0.1103 -0.2300 -0.1448
32182W        W45596   6.790  14.665   4.025  0.0411  0.1088  0.2247
32183W        W45597  14.305  10.403  12.378 -0.1206 -0.1137 -0.0302
32184W        W45598  10.552  15.152   2.322  0.1575  0.1620  0.1520
32185W        W45599   7.977   2.527   3.748  0.2275  0.2376  0.2126
32186W        W45600   8.191   9.927   0.528  0.0495  0.0411  0.1792
32187W        W45601  13.202  14.900  11.738 -0.0513 -0.0067 -0.0285
32188W        W45602   5.565   6.618  14.477  0.0995 -0.4057 -0.1039
32189W        W45603  13.323   0.653  10.381 -0.0341 -0.1459  0.2255
32190W        W45604  12.504   9.876  12.881 -0.0807 -0.1896 -0.1693
32191W        W45605  12.888   4.422   2.770  0.2012  0.1410 -0.2761
32192W        W45606   7.158   7.655  13.139 -0.0341 -0.0962 -0.2143
32193W        W45607  10.488   5.204   1.770  0.0143  0.2676 -0.0528
32194W        W45608   7.683   3.153   3.356  0.0681  0.2363  0.2341
32195W        W45609   7.347   3.936   4.830  0.2002  0.0833 -0.1036
32196W        W45610   3.273   8.743   5.909  0.0011 -0.0357 -0.0196
32197W        W45611  10.323   7.154  12.318 -0.1547  0.1552 -0.0887
32198W        W45612   2.974  13.667   1.488 -0.1911 -0.0991 -0.0044
32199W        W45613   7.932   9.057  11.783 -0.2084 -0.2113  0.0930
32200W        W45614   5.896  10.769  16.634  0.1855  0.0538 -0.0478
32201W        W45615   7.552  10.658  15.535 -0.0021 -0.2998 -0.1207
32202W        W45616   9.033   9.533   3.312 -0.1951  0.1980  0.3235
32203W        W45617   6.740   8.683   2.333  0.0944  0.0276  0.4001
32204W        W45618   4.697  17.631  16.483  0.1744  0.4490 -0.3920
32205W        W45619   7.282   3.402  10.541 -0.0666 -0.0299 -0.0057
32206W        W45620  16.280   0.643  14.847 -0.0018  0.0320 -0.1576
32207W        W45621  12.125  12.234   0.048  0.2529  0.3533  0.1822
32208W        W45622   3.434  18.025  15.420  0.0923 -0.0265 -0.0479
32209W        W45623   5.511   2.110   2.632 -0.1163  0.0847  0.1109
32210W        W45624   4.061   4.835   3.469  0.1031  0.0087 -0.1130
32211W        W45625  16.169  10.602  12.904 -0.1900 -0.2143  0.2045
32212W        W45626   9.330  17.389  16.301 -0.0587 -0.1206  0.0638
32213W        W45627   7.568   6.143   5.540 -0.1650 -0.1349 -0.2611
32214W        W45628  12.106   5.539   2.222  0.0823  0.0638 -0.1849
32215W        W45629   5.599   8.309   2.815 -0.0079 -0.0445 -0.1790
32216W        W45630   3.693   7.294   5.775 -0.0803 -0.0432  0.2535
32217W        W45631  17.664   5.758   3.446  0.2145  0.2239  0.0619
32218W        W45632  15.100   2.390  13.070  0.0569  0.1276  0.0595
32219W        W45633  17.778  10.440   0.100  0.2491 -0.0994 -0.1188
32220W        W45634  16.782  10.676   3.337  0.1734  0.0770 -0.0971
32221W        W45635   3.866  13.202  12.713  0.1074  0.1586  0.1785
32222W        W45636   5.399   5.764  15.103  0.1437 -0.3492 -0.1413
32223W        W45637  13.561   9.057  14.207  0.1748 -0.2667  0.2426
32224W        W45638   2.264  15.005   5.477 -0.1493  0.2487  0.1472
32225W        W45639  16.047  13.722   0.634 -0.1461 -0.0240 -0.1416
32226W        W45640  17.708   5.698   5.244  0.0286  0.0111 -0.0565
32227W        W45641   1.332   2.034   1.208 -0.1701  0.0405  0.1353
32228W        W45642  10.309  18.013   4.847  0.0094 -0.0982  0.0034
32229W        W45643   0.194  14.179   5.552  0.2845 -0.0059  0.1655
32230W        W45644   2.722  14.679  11.003 -0.0734 -0.2345 -0.1798
32231W        W45645  15.682   5.409  12.180  0.2818 -0.0471  0.0798
32232W        W45646  17.699   3.335   0.358 -0.0352  0.1865  0.0228
32233W        W45647  15.440  10.529  14.922 -0.3363 -0.1480  0.0906
32234W        W45648   4.967   1.760  11.685  0.0510  0.0166  0.0673
32235W        W45649  12.104   5.656  13.578  0.0930 -0.0383 -0.0306
32236W        W45650  11.630   9.693   4.609  0.0541 -0.3347 -0.6387
32237W        W45651  10.198  16.996  12.987 -0.0183  0.1412  0.2754
32238W        W45652  12.174  10.496  14.758  0.2581  0.0605  0.0880
32239W        W45653  11.175   1.426   1.554  0.1929  0.1694 -0.1560
32240W        W45654   6.646  15.520   3.366 -0.0786  0.0297 -0.2507
32241W        W45655   0.715  14.999   1.558  0.0584 -0.0706 -0.0597
32242W        W45656  16.467   2.498  10.622  0.0339  0.0555  0.0022
32243W        W45657   5.603   8.983   4.118  0.0510 -0.0094  0.1377
32244W        W45658   2.550   8.579  14.252 -0.0401 -0.0602 -0.0868
32245W        W45659   9.420   5.431   3.411 -0.2669  0.0536 -0.1417
32246W        W45660  14.349  10.763   6.338 -0.0579  0.0447 -0.0369
32247W        W45661  12.891   2.897  15.751 -0.1577 -0.2040 -0.0647
32248W        W45662  12.694  10.952   4.559 -0.2864  0.0091 -0.2791
32249W        W45663  16.415  16.298   4.053  0.0345 -0.0963  0.0691
32250W        W45664   9.556   1.318   2.103  0.1732 -0.2468 -0.1227
32251W        W45665  17.725  14.915   2.697 -0.0572  0.1270 -0.0443
32252W        W45666   3.237   1.283   1.322 -0.1146 -0.3143 -0.0013
32253W        W45667   4.931   8.868   4.089 -0.3609 -0.1600 -0.1464
32254W        W45668  16.566   5.129  14.073 -0.1509 -0.0794  0.2038
32255W        W45669   0.884  13.050   4.211 -0.0572  0.0332  0.1004
32256W        W45670   4.865   7.100  11.866 -0.1811 -0.0373  0.0658
32257W        W45671   8.075   5.260   5.490 -0.2070  0.0280  0.2442
32258W        W45672  16.432   9.067   4.866  0.2116  0.1713  0.1161
32259W        W45673   0.274  11.985   1.858 -0.1507 -0.0177 -0.1906
32260W        W45674  13.429  16.852  14.313  0.1320 -0.0580 -0.1034
32261W        W45675  15.363   1.210  13.612 -0.3131  0.0068 -0.1340
32262W        W45676   8.608  13.985  12.880 -0.2331  0.0631  0.0726
32263W        W45677  16.206  16.215   0.388 -0.1322  0.1763 -0.1324
32264W        W45678   4.789   6.087  16.390 -0.0394  0.1464 -0.1009
32265W        W45679   1.147   3.618   0.532  0.3605 -0.0528 -0.0584
32266W        W45680   1.048  10.405  15.628 -0.1452  0.0289 -0.0482
32267W        W45681   6.757   9.231  13.025 -0.2125  0.0013 -0.0028
32268W        W45682   1.642  16.817   4.024  0.1904 -0.0338  0.0929
32269W        W45683  14.430   4.846   0.314 -0.1199  0.0440 -0.3567
32270W        W45684  14.544  17.353   1.027 -0.0550 -0.0764 -0.0074
32271W        W45685   8.026   3.500   3.406 -0.1889  0.1590 -0.0745
32272W        W45686  16.569  10.809   3.867 -0.2845  0.0784 -0.2137
32273W        W45687   4.567  13.130  15.703  0.1854  0.3698  0.0724
32274W        W45688  11.668   1.215   0.147 -0.0627  0.0948 -0.0258
32275W        W45689  14.063  17.400  11.839  0.1655 -0.2187  0.1453
32276W        W45690  14.066  11.087  13.719 -0.1331 -0.0523  0.3034
32277W        W45691  15.204   8.373   3.183 -0.0223  0.0830  0.2531
32278W        W45692  14.476  16.583  11.641  0.1095 -0.0074 -0.0922
32279W        W45693   0.877   7.405  13.017 -0.1962 -0.3064 -0.2256
32280W        W45694   1.364   5.449   2.687  0.1883  0.0525  0.1460
32281W        W45695   7.375   6.719   1.397  0.0235 -0.1139  0.0791
32282W        W45696   0.328  14.649  11.377  0.1147  0.3119  0.2620
32283W        W45697   3.388   1.529   0.742  0.3372 -0.0706  0.1423
32284W        W45698   8.264  13.304  11.569  0.1452 -0.0041 -0.0059
32285W        W45699   8.572  16.223  13.627  0.2246 -0.2088 -0.0014
32286W        W45700   5.553  12.680   0.809  0.1679  0.6042 -0.0168
32287W        W45701  14.769  14.834   0.751 -0.0401  0.1342  0.0273
32288W        W45702  10.363   0.877   5.874  0.1785  0.0889  0.2068
32289W        W45703  10.642  17.207  16.397 -0.0753 -0.1540  0.2105
32290W        W45704   8.302  15.203   3.247 -0.0107  0.0256 -0.0017
32291W        W45705   8.459   2.264  14.036  0.0890 -0.2525 -0.0873
32292W        W45706   1.925  12.352  15.398 -0.2047  0.2412 -0.2573
32293W        W45707   4.670  11.479   3.622 -0.0045 -0.1584  0.1589
32294W        W45708   8.513  14.246  12.499 -0.4965 -0.3185 -0.1624
32295W        W45709   0.493   6.471   4.001  0.0631  0.0924 -0.1814
32296W        W45710   4.020  14.448   3.768  0.3411  0.2045 -0.1337
32297W        W45711   7.103   0.681  14.882  0.0292 -0.4127 -0.3184
32298W        W45712  15.292   2.634   1.710 -0.0419 -0.0934  0.0205
32299W        W45713   0.505  15.675   4.959  0.0549 -0.3468 -0.1137
32300W        W45714   1.919   8.719  15.589 -0.1463  0.2931  0.4047
32301W        W45715  11.918   8.052   0.389  0.1169 -0.1172  0.1137
32302W        W45716   1.528  17.253  13.972  0.0621 -0.2531  0.0621
32303W        W45717   6.176  11.372   4.107  0.1836  0.3706  0.1496
32304W        W45718   9.071  12.708  11.761 -0.2679 -0.3645  0.0815
32305W        W45719  15.658   9.612   0.422  0.2053 -0.0915 -0.2979
32306W        W45720   6.920   5.919   4.785  0.2053  0.1868 -0.0646
32307W        W45721   4.476   9.112  15.466  0.1846  0.0954  0.0734
32308W        W45722  10.321   3.429   2.161 -0.0074 -0.0749 -0.2240
32309W        W45723   1.826   6.599  16.224 -0.2000 -0.1468 -0.2087
32310W        W45724   0.495  11.295  14.926 -0.1159 -0.1594 -0.2025
32311W        W45725   4.648   3.033  13.612  0.0923 -0.0071 -0.0098
32312W        W45726   8.746   0.904   0.431 -0.0242  0.2876 -0.3991
32313W        W45727   4.696   6.920  13.257 -0.1391 -0.0030  0.0341
32314W        W45728   5.173   8.270   1.371  0.0325  0.1244  0.1938
32315W        W45729  10.214   7.220  11.088  0.1218 -0.3776  0.1694
32316W        W45730   5.707  10.837   0.690  0.2367 -0.3767  0.0314
32317W        W45731   3.167  13.371   1.889 -0.3408 -0.2206  0.4680
32318W        W45732  13.431   8.373   6.380  0.0227 -0.0091 -0.0149
32319W        W45733   1.824  13.982  12.466 -0.4049 -0.0961 -0.1103
32320W        W45734  15.703  17.511  12.445  0.3141 -0.3476  0.0455
32321W        W45735   1.336  17.463  14.430  0.2960 -0.3357  0.2157
32322W        W45736  17.097   4.294  11.827 -0.1137  0.1386  0.0657
32323W        W45737  16.827  15.595   4.420  0.0314 -0.0768  0.1084
32324W        W45738  14.921   3.820   1.025 -0.0839  0.0743 -0.0486
32325W        W45739   7.228  13.889   4.091 -0.2904 -0.3034 -0.2488
32326W        W45740  14.890   5.985  12.309  0.0495 -0.0440 -0.1076
32327W        W45741  10.608   5.981  11.930  0.1476 -0.1001  0.1099
32328W        W45742   0.328  10.142  12.971  0.2550  0.3924  0.1599
32329W        W45743   0.688  10.437  14.397 -0.1738  0.0616 -0.1023
32330W        W45744  11.374   8.345  15.423  0.1586  0.1223 -0.0258
32331W        W45745   6.348   9.253   4.662 -0.0740  0.2039 -0.2771
32332W        W45746  14.696   4.983  13.117 -0.1914  0.2907  0.3298
32333W        W45747   3.112   9.617   2.738 -0.0442 -0.1389 -0.0454
32334W        W45748  13.552  14.636   4.132  0.0408 -0.1366  0.0479
32335W        W45749  16.223   5.664   6.638  0.0136  0.2965 -0.2140
32336W        W45750   7.220   1.483  16.120 -0.0716  0.1642  0.1673
32337W        W45751   9.117  10.443  14.722  0.1178 -0.0429  0.0903
32338W        W45752  16.520   0.734   0.984 -0.1979 -0.0993 -0.4090
32339W        W45753  16.049   1.046  14.058 -0.0425  0.0884 -0.1139
32340W        W45754  12.626   8.652  11.603  0.2731 -0.2541  0.1390
32341W        W45755  15.158   4.624  12.149 -0.2723 -0.2241  0.3255
32342W        W45756   5.965  11.431  12.228  0.3264 -0.0063  0.1358
32343W        W45757  11.957   9.387   4.878  0.2809  0.1739  0.0558
32344W        W45758   1.134   8.708   2.197  0.1269 -0.4062  0.3406
32345W        W45759  13.257   2.000   5.916 -0.2829 -0.0449 -0.1514
32346W        W45760  15.420  12.292   4.714 -0.1509  0.0303  0.0772
32347W        W45761   6.248   9.041  14.176 -0.1846 -0.0866  0.1434
32348W        W45762  13.594   7.518   0.362  0.0947 -0.0434 -0.1190
32349W        W45763   8.703   9.060   3.823 -0.1676  0.0967  0.0371
32350W        W45764   3.771   5.415   2.240  0.0730 -0.1140 -0.0493
32351W        W45765  10.120   1.169   0.360 -0.1166 -0.2360 -0.0812
32352W        W45766   5.807   2.331  12.345 -0.0112  0.0258  0.3413
32353W        W45767  16.001  15.592  16.434  0.1892 -0.2822 -0.3268
32354W        W45768   5.172  17.267   2.951  0.3822  0.1076  0.2149
32355W        W45769  15.412   8.019   0.444  0.1398 -0.2109  0.0888
32356W        W45770  14.711  12.476   3.391  0.2665 -0.2768 -0.0004
32357W        W45771   0.698   6.088   4.369  0.0368  0.1155  0.0773
32358W        W45772  10.927  17.509   4.658 -0.0452  0.1094  0.2599
32359W        W45773   1.102   9.060  12.984  0.0428 -0.1461  0.1635
32360W        W45774   2.758   8.812  12.269  0.0103 -0.1880  0.0043
32361W        W45775  14.518  12.270   4.478  0.0174 -0.0080 -0.0753
32362W        W45776  16.036  13.588  14.820 -0.0597  0.2422  0.1509
32363W        W45777  12.769   9.099   0.674 -0.0583 -0.1378  0.0139
32364W        W45778   1.420   4.347   5.785  0.3502  0.0364 -0.1824
32365W        W45779  13.303   2.058  14.742  0.2498 -0.5717 -0.2007
32366W        W45780   6.207  12.248  12.689  0.1123 -0.1594 -0.1065
32367W        W45781  10.471  15.154   0.477  0.1103  0.0873  0.2171
32368W        W45782   6.613   8.884  11.647  0.3198 -0.1239 -0.0922
32369W        W45783   2.712   3.912  11.709 -0.1934 -0.1220  0.2765
32370W        W45784  15.528   5.024  15.862  0.2094 -0.3444  0.0139
32371W        W45785   8.005   0.864  10.127  0.1274  0.1078 -0.2735
32372W        W45786   3.894   9.977   2.936 -0.1366  0.1465  0.2306
32373W        W45787   6.939   6.816   1.406  0.2975 -0.1084  0.1950
32374W        W45788  12.849  15.254  16.259 -0.0161  0.1444  0.0526
32375W        W45789   7.661  12.579   2.208 -0.2125  0.0967 -0.0148
32376W        W45790   5.202   9.327   4.239  0.2587 -0.2433  0.0251
32377W        W45791   7.979   6.869  10.411 -0.2599  0.0996  0.0495
32378W        W45792   5.474  17.794   0.090  0.0876 -0.2272 -0.2913
32379W        W45793   4.486   7.813  11.079  0.1825  0.4097 -0.0839
32380W        W45794   3.932  11.339  15.482  0.0330  0.0799 -0.0779
32381W        W45795  16.655  10.146  13.551 -0.0124 -0.0102 -0.0677
32382W        W45796  14.449   2.051   3.086  0.1696 -0.0363  0.2087
32383W        W45797   4.035  10.808  11.545  0.1694  0.0994  0.0831
32384W        W45798  17.053  15.000  12.964  0.0733 -0.0680  0.0854
32385W        W45799   9.901   1.935   4.876  0.0787  0.1544  0.0095
32386W        W45800   5.347   2.173  13.541 -0.2403  0.2399  0.4159
32387W        W45801   4.060   5.453   5.982 -0.0598 -0.1677 -0.0659
32388W        W45802   7.353  16.639  12.126 -0.0726 -0.0851 -0.0584
32389W        W45803   8.823  10.195  15.780 -0.1036 -0.0254 -0.2597
32390W        W45804   3.416   1.779   3.423 -0.1298 -0.2632 -0.1761
32391W        W45805  11.066   7.045   0.752 -0.2482  0.0789  0.0178
32392W        W45806   6.529  11.896  11.505 -0.0926 -0.1041 -0.1657
32393W        W45807  11.655   2.568   0.451 -0.1642 -0.0356  0.0717
32394W        W45808  13.222   3.253  12.183 -0.2372 -0.1321 -0.2309
32395W        W45809   4.541  11.236  14.689 -0.2649  0.1111 -0.1981
32396W        W45810   2.081   8.064  12.118 -0.0026  0.1992  0.0366
32397W        W45811   5.061  16.130   5.317  0.2321 -0.1909 -0.0262
32398W        W45812   9.423   9.581  14.486  0.1637 -0.0060 -0.0129
32399W        W45813  15.869  11.334  15.013 -0.1013 -0.2831  0.1949
32400W        W45814   8.170   4.882   3.417 -0.0880 -0.0118 -0.0546
32401W        W45815  16.658  15.786  15.044 -0.1229 -0.0935 -0.2026
32402W        W45816  14.444  16.431  13.549  0.0585 -0.1814  0.1713
32403W        W45817   5.689   0.028  12.649 -0.1131  0.1984  0.1172
32404W        W45818  15.266   0.119   0.624  0.2563  0.4729  0.0711
32405W        W45819  10.533   3.436  10.477 -0.1414  0.3195 -0.0743
32406W        W45820  17.954  13.930   0.158  0.0737  0.1071 -0.0871
32407W        W45821   7.864  14.007   3.008 -0.1340 -0.0763  0.2345
32408W        W45822  17.231  13.369   1.872 -0.0682  0.1299 -0.1032
32409W        W45823   4.842   5.201   5.025  0.0388  0.0263  0.0110
32410W        W45824   8.134   6.101  15.375  0.0939 -0.0802  0.0736
32411W        W45825   0.473   1.875  12.911 -0.0273 -0.3905  0.1840
32412W        W45826  16.540   8.311   5.643 -0.0298  0.1787 -0.2003
32413W        W45827  15.884   3.584  12.658  0.2573  0.1833 -0.0595
32414W        W45828   7.583   6.261  11.476 -0.1308  0.0007 -0.1779
32415W        W45829   6.499  14.140   3.246  0.0172 -0.0953 -0.0759
32416W        W45830  12.275   8.885  15.916  0.3307 -0.0604  0.2117
32417W        W45831  17.995   4.991  16.691 -0.3068 -0.1465  0.0569
32418W        W45832   3.189   2.913   1.024  0.1988 -0.0656 -0.2071
32419W        W45833   4.956   8.577   0.998 -0.0727  0.2601 -0.2033
32420W        W45834   7.313   6.293   3.985  0.0125 -0.0900  0.1682
32421W        W45835  13.400   5.825   4.454  0.0111 -0.1634 -0.1584
32422W        W45836  17.722   6.088  12.157 -0.3952 -0.1727  0.1500
32423W        W45837   7.534   7.037  13.493  0.1417 -0.0202 -0.0897
32424W        W45838   3.121  10.549  15.599  0.1046 -0.1218  0.2295
32425W        W45839  11.472   4.014  14.816 -0.2084  0.1529  0.3387
32426W        W45840  13.565   7.306  13.605  0.0638  0.0619 -0.1023
32427W        W45841   6.527   8.118  15.855 -0.0963  0.1173  0.0757
32428W        W45842   5.134   1.518  14.222 -0.0975  0.0406 -0.0297
32429W        W45843   5.565  10.438   2.258 -0.1013  0.2364 -0.2358
32430W        W45844  13.239   0.691  14.628 -0.3900 -0.0926  0.4149
32431W        W45845  16.063   6.498   2.561 -0.1114 -0.0649  0.0296
32432W        W45846  13.358  16.473  15.324  0.2274  0.4188 -0.1694
32433W        W45847   9.546   5.649   3.904 -0.0343  0.0812 -0.0768
32434W        W45848  17.169   2.154  13.660  0.2510 -0.0193  0.1349
32435W        W45849   1.073  14.563  14.657 -0.1873 -0.0519 -0.2465
32436W        W45850   7.999   9.512  12.108  0.1872  0.0082  0.6074
32437W        W45851   4.457   1.467   3.210  0.0739 -0.2362 -0.0641
32438W        W45852   6.809   1.459   5.223 -0.0619 -0.0843 -0.3334
32439W        W45853  15.463  16.064  14.052 -0.0204 -0.1180  0.0807
32440W        W45854   7.492   6.560   3.627 -0.0122 -0.2518  0.0305
32441W        W45855   9.121   0.262  15.405 -0.1330 -0.0834  0.0119
32442W        W45856   8.758   4.112   3.060 -0.1605 -0.3955 -0.0212
32443W        W45857  12.260   5.371  11.168 -0.1147  0.2370 -0.0453
32444W        W45858  10.580  11.189   3.768 -0.1219 -0.2521  0.1947
32445W        W45859  15.653   2.940  13.456  0.1980 -0.1282 -0.0730
32446W        W45860  16.543   8.802   2.224  0.1505  0.0065 -0.2116
32447W        W45861   7.044  15.235  11.006 -0.1156  0.1449 -0.1580
32448W        W45862   6.535  14.352  13.962  0.4279 -0.0206 -0.0074
32449W        W45863  16.411  16.442  12.220  0.1567  0.0266 -0.0267
32450W        W45864  11.235  11.849  12.037  0.0374 -0.1223 -0.4065
32451W        W45865   5.727   9.632   0.135 -0.1036 -0.0948  0.1201
32452W        W45866  17.122   6.180  16.090 -0.1982  0.4101  0.0681
32453W        W45867   0.653   4.502  16.518  0.1086  0.0165 -0.1402
32454W        W45868  11.568  11.795  16.039 -0.0135  0.0788 -0.2187
32455W        W45869   5.106   3.284   1.278 -0.1900  0.3813  0.0248
32456W        W45870  10.241  14.832   1.665 -0.0725 -0.0230  0.3033
32457W        W45871  17.219  13.814  12.475 -0.1712  0.1135  0.0518
32458W        W45872   2.694  16.090   5.616 -0.0470  0.0423 -0.3305
32459W        W45873  12.808  17.675   4.982 -0.2611 -0.1547  0.0762
32460W        W45874   1.216  11.611   4.045 -0.0536  0.2054 -0.0671
32461W        W45875   4.409   8.021  14.289  0.1738 -0.0940 -0.1825
32462W        W45876   2.051   4.148   4.999  0.0857  0.3395  0.3269
32463W        W45877   9.106  17.793   4.620 -0.1606 -0.2009 -0.0688
32464W        W45878   5.087   4.324  12.310  0.1794 -0.3489  0.2475
32465W        W45879   1.473  16.276   6.689  0.0704  0.2928  0.0317
32466W        W45880  15.938   5.924   3.840  0.0489  0.1602  0.0480
32467W        W45881  16.556  13.590  12.738 -0.1135 -0.1090  0.0675
32468W        W45882   1.389   4.580  12.973 -0.2242  0.2064  0.0880
32469W        W45883  11.138  16.658   2.018  0.1113  0.2046  0.0179
32470W        W45884   4.224   4.147   1.875  0.2944 -0.0955 -0.2267
32471W        W45885   3.007   4.587   5.778  0.2531 -0.1361 -0.2671
32472W        W45886  11.476  12.526   1.242 -0.1104  0.1516  0.1960
32473W        W45887   3.388   3.624  15.585 -0.0719 -0.2984 -0.2695
32474W        W45888   4.364  14.071   4.964  0.1798 -0.1869 -0.2957
32475W        W45889   0.848   6.820   3.111  0.0411 -0.0872  0.0084
32476W        W45890  12.202   8.074  11.645  0.2327 -0.0112  0.2552
32477W        W45891   3.439   3.945  12.308  0.0821  0.1017  0.3528
32478W        W45892   7.657  13.139  15.176 -0.1123  0.0303 -0.1038
32479W        W45893  17.619  11.258  12.223 -0.1409  0.0475 -0.0214
32480W        W45894   0.545  15.010   2.043  0.1305 -0.1430  0.0639
32481W        W45895   2.452   7.659  10.789  0.0141 -0.2850 -0.2181
32482W        W45896  12.637   4.200  13.584  0.3499 -0.1003 -0.1770
32483W        W45897  16.419   3.403   5.765 -0.0730 -0.1605 -0.2240
32484W        W45898   3.153  11.269   4.299 -0.2053  0.1276  0.4424
32485W        W45899   3.627  10.576  15.464  0.2103 -0.3424  0.1663
32486W        W45900  15.308  15.003  16.272  0.2161  0.0031 -0.0551
32487W        W45901   9.679   6.801  16.144 -0.1185  0.3710  0.2114
32488W        W45902   3.000  16.937  12.326  0.0121 -0.2044 -0.0502
32489W        W45903   8.687   6.611   0.932  0.0739 -0.0487  0.3165
32490W        W45904  14.624  15.637  15.810 -0.0544 -0.4067 -0.2231
32491W        W45905   1.068   5.924  11.472  0.3338  0.2171  0.1878
32492W        W45906  13.780   4.769  16.199 -0.1336 -0.2170  0.1615
32493W        W45907   3.742   0.115   6.779 -0.0673 -0.1663 -0.1294
32494W        W45908   0.364  17.108   5.657  0.0123  0.0566  0.0065
32495W        W45909   6.024   7.097  16.036 -0.0018 -0.1493 -0.0511
32496W        W45910  16.903  14.536   4.930  0.4088  0.1823 -0.0966
32497W        W45911  17.878   1.862   3.502 -0.0827  0.3668 -0.1549
32498W        W45912   4.133   3.127  15.489 -0.1092 -0.1605  0.0949
32499W        W45913  10.635   8.962   5.026  0.2013  0.0815  0.0134
32500W        W45914   0.336   7.915  10.852  0.0909  0.3990 -0.1914
32501W        W45915   3.084   8.466  10.431  0.2805  0.3131 -0.1136
32502W        W45916  16.608   8.334  15.422 -0.2523  0.1814 -0.0926
32503W        W45917   3.376   8.029  11.812 -0.0629  0.0926 -0.1607
32504W        W45918  14.028  15.959  13.746 -0.3010 -0.2938  0.1611
32505W        W45919   2.829  17.219   0.123  0.3507 -0.0060  0.0120
32506W        W45920  14.774  15.555  13.389  0.0671 -0.2248  0.1273
32507W        W45921  10.844  13.941   4.150  0.1905  0.0082 -0.0701
32508W        W45922   9.217  15.437   1.256  0.3553  0.2314  0.2347
32509W        W45923   0.988  12.304   1.657 -0.1007  0.1227 -0.0363
32510W        W45924  11.955   6.434  13.441 -0.2484  0.0031  0.0503
32511W        W45925  16.547  11.053   4.367  0.2683  0.1026 -0.1762
32512W        W45926   9.727   2.790  14.198 -0.0448 -0.0566 -0.0210
32513W        W45927  13.357   9.642  12.958  0.3170 -0.2197  0.0085
32514W        W45928   6.830  12.493  11.685  0.2372 -0.0632  0.2538
32515W        W45929   6.365  15.196  12.134 -0.1944 -0.1675 -0.2334
32516W        W45930  14.571  12.170  11.067 -0.1738 -0.0454  0.2045
32517W        W45931  17.628  12.159  12.695 -0.0066  0.1358 -0.2825
32518W        W45932  12.172  11.876   0.411 -0.1363 -0.1843  0.1995
32519W        W45933  15.320  16.657  15.803  0.0591  0.1873  0.2133
32520W        W45934   1.867  13.942  11.358  0.6182 -0.3299 -0.3225
32521W        W45935  11.097   3.792   3.170 -0.0837  0.1500 -0.0538
32522W        W45936   6.317  16.634  14.364 -0.0355 -0.1316 -0.2491
32523W        W45937  12.095  15.142   1.842  0.0347  0.2101 -0.0013
32524W        W45938  10.678   6.060   3.778  0.0234  0.0036  0.0410
32525W        W45939   3.820   0.134  11.905  0.0366  0.0933 -0.1653
32526W        W45940   2.701  17.592   3.411  0.1247  0.3646  0.1340
32527W        W45941   3.307   0.831   4.578  0.0808  0.0864 -0.1722
32528W        W45942  15.777   6.768   1.153  0.0696  0.0249  0.0761
32529W        W45943   8.485  14.810  16.323  0.0344  0.0937  0.1460
32530W        W45944   7.824   5.869  12.624  0.0092 -0.0611 -0.1949
32531W        W45945   5.169   5.509  11.960 -0.0162  0.4621 -0.1294
32532W        W45946   4.740  13.295  12.923 -0.0120 -0.1042 -0.1926
32533W        W45947  14.443   3.121  15.414  0.1696  0.1078 -0.0785
32534W        W45948  13.340  11.995   5.271 -0.1152  0.1516  0.0316
32535W        W45949   1.084   6.446   4.483  0.0455 -0.1563  0.1268
32536W        W45950   0.461   1.359  12.153 -0.1658  0.0847  0.0618
32537W        W45951   7.889   2.512   4.878  0.0107  0.0492 -0.2901
32538W        W45952  12.648   2.846  16.207 -0.0698 -0.1532 -0.0796
32539W        W45953   0.488   2.639   0.151  0.0004  0.2097 -0.0175
32540W        W45954  17.520   1.082   6.679 -0.1200  0.2490  0.2839
32541W        W45955  17.432   8.034   4.977 -0.0024  0.1642  0.0990
32542W        W45956   8.717   7.203  15.411 -0.0508  0.0659  0.0258
32543W        W45957  17.232   9.064  13.078 -0.1893 -0.1800 -0.1637
32544W        W45958   4.313  13.042   4.466 -0.1892 -0.1689 -0.1438
32545W        W45959  12.189  10.275  13.235  0.1197  0.0223  0.0161
32546W        W45960  11.717   3.576   4.372 -0.1706  0.0418  0.0032
32547W        W45961   3.755  17.858  11.459  0.1932  0.0804  0.1472
32548W        W45962   7.350   0.649  16.604  0.3890 -0.3420  0.0461
32549W        W45963  14.143   3.423  13.446 -0.1697  0.0105  0.0081
32550W        W45964   0.100  12.119   3.970  0.0280  0.2435  0.0394
32551W        W45965   6.502  12.195  11.088 -0.0103 -0.0227 -0.1307
32552W        W45966   7.816   5.180  16.574 -0.0011 -0.0634  0.0438
32553W        W45967   0.300   6.456  10.792 -0.1419  0.0049  0.4916
32554W        W45968  15.900   9.510   2.615 -0.0008 -0.1349  0.2582
32555W        W45969   7.950  16.729   4.499 -0.0866 -0.0772 -0.0301
32556W        W45970   7.841   7.649  10.914 -0.0118  0.0728  0.2442
32557W        W45971  11.234  16.587  12.779 -0.1690 -0.0005  0.0129
32558W        W45972   7.367  12.681  12.947  0.0275  0.4536  0.1659
32559W        W45973   9.673   8.846   5.031 -0.0904  0.3865 -0.0853
32560W        W45974  10.049   9.262   3.827  0.0394  0.0825  0.1180
32561W        W45975  12.360   6.341  16.310 -0.0555 -0.0564  0.0921
32562W        W45976  14.017  16.661  12.965  0.2584 -0.0351  0.0841
32563W        W45977  12.234  13.538  15.222 -0.0524 -0.2241  0.0547
32564W        W45978   9.196  12.528   6.326 -0.0145  0.1973  0.3676
32565W        W45979  11.574  12.595  14.238 -0.2408 -0.1180 -0.0817
32566W        W45980   0.709   2.068  15.310 -0.1534  0.0120 -0.1437
32567W        W45981  11.858   5.765   4.965  0.1041  0.1375  0.1008
32568W        W45982   0.213   1.638   3.190  0.1664  0.1805  0.0881
32569W        W45983  10.154   1.426   6.068 -0.0918  0.0747 -0.0447
32570W        W45984   1.765  13.858  13.780  0.0877  0.2110 -0.3082
32571W        W45985  17.248   5.672  15.941  0.0717 -0.0123  0.6042
32572W        W45986   4.723   2.786   4.337  0.1724 -0.0728  0.0101
32573W        W45987  17.373  11.651  14.730  0.1242 -0.1445 -0.0277
32574W        W45988  11.130   2.495  14.202  0.1925 -0.1139  0.2936
32575W        W45989   1.698  16.828  13.343 -0.0899 -0.1697 -0.1841
32576W        W45990   6.749   1.485  15.192 -0.0134  0.0940 -0.0566
32577W        W45991   1.926   9.142  11.573 -0.0435  0.0831  0.1167
32578W        W45992  11.306   9.497   2.795 -0.0148  0.0533 -0.0597
32579W        W45993   2.827   5.599  11.715  0.1147 -0.4643 -0.1646
32580W        W45994  14.251   0.930   5.369  0.0547 -0.1094  0.3441
32581W        W45995  14.371  17.240  12.249  0.0027 -0.1766 -0.1491
32582W        W45996  15.854  16.610   5.639  0.2714 -0.1590  0.1235
32583W        W45997  14.111   6.162   0.406  0.1444  0.1098  0.2055
32584W        W45998   1.432  10.004   1.044 -0.3212  0.1807  0.1500
32585W        W45999   1.049   7.741  14.812 -0.1569 -0.0873 -0.2445
32586W        W46000  14.082   3.972   0.982 -0.2832  0.0334  0.1392
32587W        W46001  12.675  13.277   5.907 -0.1370  0.5246 -0.1435
32588W        W46002   6.631   8.957   5.014  0.1030 -0.2493  0.0623
32589W        W46003   9.077   4.493  12.963  0.0296 -0.0803  0.2100
32590W        W46004   6.741   1.628  11.766  0.5145  0.1977 -0.0546
32591W        W46005   6.155  17.314  15.086  0.3643 -0.0712 -0.1377
32592W        W46006  14.073   0.780   2.721  0.0999 -0.0932 -0.0337
32593W        W46007   7.444   9.968  12.825  0.3167  0.0693  0.4404
32594W        W46008   9.861  15.176  15.167 -0.0412  0.0574 -0.1236
32595W        W46009   2.427  11.524   3.280 -0.0818 -0.0692  0.5398
32596W        W46010   2.591  14.636   2.436 -0.3700 -0.2982 -0.1502
32597W        W46011  16.575   7.701   0.585  0.2130 -0.1178 -0.3677
32598W        W46012   3.317  12.261  10.945 -0.1941  0.3614 -0.0271
32599W        W46013  10.857  12.600  11.614  0.1926  0.1340 -0.1461
32600W        W46014   5.834   0.177   4.660 -0.0728  0.0534 -0.1204
32601W        W46015  14.699  17.165   2.475 -0.0514  0.0998  0.1326
32602W        W46016   9.564   0.161  13.049  0.0819 -0.1005  0.2003
32603W        W46017  15.935   8.517  16.408  0.0562  0.0254 -0.2141
32604W        W46018  13.237  15.945   0.585  0.0721 -0.1852 -0.1617
32605W        W46019   2.071  13.774   1.686 -0.1365  0.0441  0.0772
32606W        W46020  10.215  10.288   0.869  0.1863 -0.2041 -0.0419
32607W        W46021  10.308   7.387   0.257  0.1262 -0.0274  0.0813
32608W        W46022  16.469  14.719  13.357  0.0831 -0.0417 -0.1643
32609W        W46023  10.960  17.645  10.803 -0.2277  0.3346  0.0346
32610W        W46024   5.248  18.039  13.034  0.0555  0.1881 -0.1972
32611W        W46025  16.431  14.473   2.009 -0.0574 -0.0776  0.0997
32612W        W46026  17.844  17.579  15.451  0.0026  0.3036  0.1267
32613W        W46027   2.072  17.115   5.568  0.0916  0.0412  0.1930
32614W        W46028   6.480   2.190   1.425  0.2582  0.0961  0.0447
32615W        W46029   6.377  15.268   2.774 -0.1514 -0.0454 -0.3653
32616W        W46030  15.194  11.861   2.157 -0.0721  0.1561  0.2658
32617W        W46031   1.170  16.076   3.833 -0.1390  0.3692 -0.0642
32618W        W46032   7.039   5.296   0.082  0.2801 -0.2012  0.0879
32619W        W46033  13.470   7.818  14.421 -0.1185  0.1047 -0.2165
32620W        W46034   6.956  10.177  13.026  0.0200 -0.2806  0.2414
32621W        W46035  12.796   4.872  13.192 -0.0866  0.1374  0.1665
32622W        W46036  16.960   1.060   1.032  0.2404  0.1184  0.5740
32623W        W46037  17.386   0.224   4.711  0.0015  0.1403 -0.1807
32624W        W46038   0.364  14.023  13.453 -0.0372 -0.2090  0.1443
32625W        W46039   1.229  11.530  16.699 -0.0880  0.1235  0.0329
32626W        W46040   8.226  16.533  12.187  0.0538 -0.2087  0.3013
32627W        W46041   5.012   7.968   6.075 -0.2139  0.2217 -0.1159
32628W        W46042  17.074  16.477  16.688 -0.1565  0.2913 -0.0818
32629W        W46043   2.297  13.736   5.480 -0.1352  0.1830 -0.0866
32630W        W46044   1.262  14.012   0.901 -0.0161 -0.1463 -0.3201
32631W        W46045  16.260   6.772   6.437  0.0493  0.0419 -0.0642
32632W        W46046   4.103   9.892   1.201 -0.0033  0.1910 -0.1444
32633W        W46047  15.885   4.923  11.498 -0.1121 -0.2455  0.1396
32634W        W46048  13.231   5.523   3.258 -0.0338 -0.1092 -0.0609
32635W        W46049   7.729  11.466   4.666  0.0015 -0.0594 -0.2463
32636W        W46050  17.715  16.355  14.267  0.0267 -0.2249 -0.0037
32637W        W46051   3.654  16.679   1.537 -0.2168  0.1152 -0.0881
32638W        W46052   2.757  16.761  16.055  0.1292  0.0321 -0.0601
32639W        W46053  13.698  12.545   1.017 -0.0251  0.0890 -0.0202
32640W        W46054   0.444   2.355   2.447  0.3526  0.0063  0.1232
32641W        W46055  17.771   1.014  13.233 -0.0339  0.0569 -0.0554
32642W        W46056   1.874   4.648   6.637 -0.0255  0.0405  0.1315
32643W        W46057   9.037   2.003   1.360 -0.2574 -0.0280 -0.0839
32644W        W46058   0.349  14.886   3.838 -0.1150  0.0121  0.0517
32645W        W46059  10.925   5.273  16.466  0.1846 -0.0385  0.1298
32646W        W46060  11.607  14.912  13.462 -0.4130  0.1151 -0.1378
32647W        W46061   9.516  17.575   3.318  0.1287  0.2307  0.1571
32648W        W46062  16.469   1.380   4.808  0.0393  0.1047 -0.1875
32649W        W46063  16.766  12.262  14.385 -0.3304  0.0785  0.2191
32650W        W46064   9.109   6.675  14.031  0.1042 -0.0165  0.0813
32651W        W46065   5.882  10.318   5.162 -0.1154 -0.1077  0.2274
32652W        W46066  14.333  12.322   2.438  0.1684 -0.2072  0.2583
32653W        W46067  17.499  13.921  16.210  0.1439  0.2799 -0.0777
32654W        W46068   3.531  13.711   3.045  0.0923  0.2664  0.2695
32655W        W46069  15.960   5.979  12.328 -0.0677 -0.1026 -0.0021
32656W        W46070  16.665   1.256   0.144 -0.0711 -0.1379  0.2897
32657W        W46071  15.531  13.890  12.732  0.0869 -0.0029 -0.1119
32658W        W46072   0.372   0.512  14.840  0.0109 -0.0572  0.3188
32659W        W46073   2.047   9.969   3.319 -0.2961 -0.1870 -0.1360
32660W        W46074  14.540  14.875  16.223 -0.0744  0.0594 -0.1123
32661W        W46075   6.436  11.055  15.647  0.0253 -0.0585 -0.0903
32662W        W46076   9.453  12.910   6.326  0.4322 -0.2437  0.2156
32663W        W46077   3.841  13.937   5.337 -0.2357  0.3768  0.1221
32664W        W46078   9.775   9.409  11.633 -0.2625 -0.2160 -0.2559
32665W        W46079  14.176  10.074   4.342 -0.0619  0.1887  0.0126
32666W        W46080  14.083   9.163   0.294 -0.0434 -0.3501  0.0289
32667W        W46081   9.596   9.308   2.787 -0.1864 -0.0156 -0.1946
32668W        W46082  10.660  15.817   0.924 -0.1497  0.0794 -0.0472
32669W        W46083  14.551  15.547   0.329  0.1416  0.0222 -0.1033
32670W        W46084   7.091  17.979  14.177  0.2646 -0.0156  0.0735
32671W        W46085   7.904  14.288   2.630 -0.0414  0.0923 -0.0977
32672W        W46086   9.146   2.574  11.420  0.2763  0.2890 -0.1374
32673W        W46087   8.164   1.229  11.739  0.0245 -0.0655 -0.2992
32674W        W46088  17.301  17.180   3.950 -0.0529  0.0122  0.1009
32675W        W46089   0.779  12.461  12.187  0.1792  0.0236  0.1677
32676W        W46090  15.067   6.067  15.055 -0.0435  0.1278 -0.2473
32677W        W46091   0.839   3.930  13.806 -0.0074 -0.0087 -0.0808
32678W        W46092  17.966   3.283   2.630 -0.4774  0.1012  0.3336
32679W        W46093   0.239   3.573   0.870  0.2386  0.2783 -0.5630
32680W        W46094  14.906   3.013   1.562 -0.0622 -0.1473  0.1701
32681W        W46095   8.914   7.982   5.054 -0.3589  0.0676  0.2286
32682W        W46096  14.777   9.268  13.037  0.0594  0.0065  0.0475
32683W        W46097  15.806   7.857  13.961 -0.1071  0.0390  0.0370
32684W        W46098  10.966  10.407   0.089 -0.1232  0.2070 -0.0764
32685W        W46099  12.614  13.465   2.528  0.0372  0.0498 -0.0115
32686W        W46100  15.404   2.163  12.317 -0.2167 -0.1926 -0.0520
32687W        W46101  17.667   8.565  13.954  0.0028  0.1499 -0.1157
32688W        W46102  12.970   3.370   2.479 -0.4381  0.1479 -0.0920
32689W        W46103  13.431   6.633  15.235 -0.0835 -0.0494 -0.0788
32690W        W46104  11.266  12.272   5.386 -0.0222  0.0753 -0.0301
32691W        W46105  16.783   3.958  14.590 -0.1040  0.0253 -0.4384
32692W        W46106   9.802   0.042  12.547  0.0088 -0.1920 -0.0852
32693W        W46107   7.400   4.707   2.944 -0.2577 -0.0316  0.0169
32694W        W46108   9.483  17.288  12.601  0.1922  0.1014  0.1315
32695W        W46109   5.834   2.529   4.131  0.0277 -0.1508  0.0203
32696W        W46110   2.171   4.133   0.511  0.1156 -0.4170 -0.4164
32697W        W46111   8.300   8.122  15.571  0.2346 -0.0782  0.0893
32698W        W46112   2.710   6.111   3.619  0.0337  0.0118  0.0662
32699W        W46113   9.779   1.297   4.398  0.0801  0.0037 -0.0008
32700W        W46114  10.923   5.523   5.549  0.0490  0.1729 -0.1159
32701W        W46115  11.428  11.162   5.104 -0.2284 -0.1603 -0.1916
32702W        W46116  15.947   1.822   1.462 -0.0144  0.2861 -0.1075
32703W        W46117   6.694  17.941   0.560  0.1131 -0.2028 -0.0634
32704W        W46118   2.576  17.601  14.466 -0.0704  0.0503  0.1258
32705W        W46119  14.850   7.834   6.349 -0.0308 -0.0385 -0.2745
32706W        W46120   0.147  16.776   2.093  0.2052 -0.0712 -0.1039
32707W        W46121   6.872   5.704  13.048  0.1022  0.1303 -0.1329
32708W        W46122  15.809   1.741   4.111  0.0934 -0.0111 -0.0086
32709W        W46123   6.129  10.645  14.132 -0.0306 -0.0057 -0.1765
32710W        W46124  12.356   6.655   3.556  0.0649 -0.1159  0.1030
32711W        W46125  16.110  12.109  16.392  0.2948  0.5066  0.0358
32712W        W46126  14.220  11.621   0.073 -0.0860 -0.1106  0.1669
32713W        W46127  10.208  16.057   0.762  0.0389 -0.0954 -0.0531
32714W        W46128  13.125  12.521   4.293 -0.1466  0.1027 -0.0794
32715W        W46129   0.431  12.668  15.757  0.0363  0.1233  0.0193
32716W        W46130   2.342   9.118   3.751  0.0145  0.1296 -0.0744
32717W        W46131   4.190   1.197   0.298  0.1891  0.0343 -0.2345
32718W        W46132  13.298   4.991  13.203 -0.0960 -0.0619  0.0113
32719W        W46133  14.853   5.003  16.464 -0.0437  0.0152 -0.0985
32720W        W46134  17.783  11.929  14.641 -0.1724  0.2272  0.2202
32721W        W46135  15.013   4.907  10.954 -0.2227 -0.1310  0.1805
32722W        W46136   6.074   5.268   3.292 -0.1343  0.4576  0.0185
32723W        W46137  13.693   4.797   2.133  0.1683 -0.1759  0.1943
32724W        W46138   1.939   0.674   1.366 -0.1182 -0.1152  0.0852
32725W        W46139   8.551  10.974  11.715 -0.1960  0.1082 -0.1931
32726W        W46140   9.037   2.817  15.378 -0.1331 -0.0569 -0.0661
32727W        W46141   1.922  13.470  11.068  0.3712  0.0241  0.0357
32728W        W46142   1.602   1.685   6.057  0.1338 -0.1085  0.1911
32729W        W46143  11.937  13.033   3.823  0.1130  0.1773  0.0887
32730W        W46144  13.671   2.538   0.921  0.0349  0.0147  0.1252
32731W        W46145   1.315  14.410   1.864  0.0213 -0.2748  0.2011
32732W        W46146   6.906   0.787  11.672  0.1351  0.4313  0.0647
32733W        W46147  16.601  16.586  13.822 -0.1485  0.0718  0.4031
32734W        W46148   1.194   4.579   6.198  0.1451 -0.1780 -0.0836
32735W        W46149   6.549   8.698   0.870 -0.2415  0.0414  0.0974
32736W        W46150   2.503  17.775   1.958 -0.0261 -0.2008 -0.0790
32737W        W46151  11.720  13.762   5.995 -0.1623 -0.1103  0.2251
32738W        W46152   7.438   8.816   0.361  0.2378 -0.0581  0.1548
32739W        W46153  10.606  14.961  11.983  0.0362  0.1994  0.0166
32740W        W46154  10.077  10.799   1.731  0.1096  0.0378 -0.0058
32741W        W46155   2.859   9.409   4.597 -0.0730  0.1033  0.0589
32742W        W46156   1.196  14.384  13.728  0.0100 -0.0489  0.2224
32743W        W46157   2.495   8.743   0.223 -0.0746  0.0634  0.1605
32744W        W46158   6.894   9.166   1.912 -0.0588 -0.3497 -0.0486
32745W        W46159   3.990  13.422   4.595  0.4293 -0.0124 -0.1905
32746W        W46160   0.155  17.247  13.094 -0.0113 -0.0665 -0.3871
32747W        W46161  13.677  15.028  16.069 -0.2915 -0.2504 -0.0057
32748W        W46162   6.794   2.288  12.503 -0.1708 -0.1135 -0.5570
32749W        W46163   5.305  12.363  10.627 -0.1763 -0.4498  0.0434
32750W        W46164   9.807  14.165  14.780  0.1151 -0.4341  0.0705
32751W        W46165  11.793   4.913   4.510  0.0818  0.0973  0.1681
32752W        W46166   0.353  14.560   3.371  0.0739  0.0364  0.2252
32753W        W46167   4.619  12.603   4.388  0.2514  0.0448  0.0060
32754W        W46168   9.031   8.592   3.853  0.1112 -0.5307  0.0572
32755W        W46169  12.832  15.155   2.419 -0.1130  0.1648  0.1102
32756W        W46170   7.271   0.428  13.062 -0.1154  0.2702 -0.1479
32757W        W46171   5.303   6.108  14.304 -0.0293  0.0942  0.1746
32758W        W46172  13.197  12.498  12.060 -0.1839  0.0188  0.2047
32759W        W46173  12.613   0.492  13.901 -0.0966  0.1374  0.1359
32760W        W46174   7.865  15.952   2.296 -0.0220  0.3661  0.0426
32761W        W46175  11.461  10.643  14.117  0.0815 -0.4132 -0.1084
32762W        W46176  12.662   7.767  12.859  0.1897  0.0050  0.1740
32763W        W46177   9.513   5.503   2.311  0.1364 -0.0828  0.2206
32764W        W46178  15.718   3.248  16.486  0.2864 -0.2798 -0.1901
32765W        W46179   3.585   0.028   6.302  0.0352 -0.0213 -0.1438
32766W        W46180  12.552   7.371   4.008  0.0210  0.1693  0.2153
32767W        W46181  17.228  15.479  14.022  0.1135 -0.0747  0.0076
32768W        W46182   0.422  11.952   3.602  0.0048  0.4473 -0.0643
32769W        W46183   3.622   0.352  10.977  0.0426  0.3837  0.2233
32770W        W46184   0.343   2.813   4.055  0.1431  0.2975 -0.0828
32771W        W46185  13.343  16.727  10.407  0.2534 -0.0816 -0.1987
32772W        W46186   1.298  14.797  11.077  0.3579  0.0319 -0.0859
32773W        W46187   8.030   9.218   5.638  0.0505  0.3041 -0.2548
32774W        W46188  12.077   1.652  11.789  0.2055  0.2371  0.0404
32775W        W46189  12.429   3.432  10.989  0.0676  0.1335 -0.3713
32776W        W46190   9.601  11.925   3.983 -0.2054  0.1439  0.2765
32777W        W46191   3.752   7.832   0.652 -0.0297  0.0550 -0.1666
32778W        W46192   4.904   4.002  13.459 -0.2661 -0.3260 -0.0835
32779W        W46193  11.244   2.961  14.027  0.1310  0.1502 -0.1192
32780W        W46194  14.978   5.910  15.569  0.1263 -0.0789  0.1086
32781W        W46195   7.601   2.389  13.174  0.1694 -0.0826 -0.0913
32782W        W46196  15.039  13.362   3.948  0.2253 -0.0157  0.0248
32783W        W46197   7.756  17.445   2.734  0.1181  0.3676  0.5149
32784W        W46198  11.146  11.950  16.612  0.1087 -0.1864 -0.0097
32785W        W46199  11.809  10.744  13.333 -0.0720 -0.0684 -0.1216
32786W        W46200  14.091   5.334   1.313  0.0831  0.2596 -0.3402
32787W        W46201   2.666  11.436  15.511 -0.0086  0.0601 -0.2939
32788W        W46202   4.526  15.649  16.037 -0.0169  0.0395  0.0111
32789W        W46203  10.096   3.238   0.178  0.0224  0.0553 -0.0887
32790W        W46204   4.004   5.442  14.014 -0.1027  0.1154  0.0726
32791W        W46205  15.411   0.315   5.835  0.0296  0.1724 -0.1521
32792W        W46206   2.243   0.928   2.900 -0.0431  0.1396 -0.1112
32793W        W46207  10.869   2.769  16.701  0.0299  0.4430 -0.1200
32794W        W46208  14.565   9.725   0.991 -0.4495 -0.2126  0.1566
32795W        W46209   6.940   3.197   6.317  0.2823 -0.0960  0.0086
32796W        W46210  16.862   6.025   5.122 -0.0706 -0.1311 -0.1248
32797W        W46211   4.755   7.156  14.614  0.2265 -0.0583 -0.1537
32798W        W46212   3.363  17.053  15.433 -0.0001  0.1679  0.1245
32799W        W46213  10.924  17.115  11.005 -0.0306  0.0155 -0.0651
32800W        W46214  16.097   5.402  14.983  0.0023 -0.0405 -0.3923
32801W        W46215  17.160   3.668  15.840 -0.3234 -0.1179 -0.2266
32802W        W46216   7.536  16.662   4.832 -0.0325 -0.1541 -0.0298
32803W        W46217  12.220   2.954  13.710  0.0092  0.0919 -0.3282
32804W        W46218  12.353  16.025   2.235 -0.0827  0.2751 -0.1570
32805W        W46219   3.921   3.629   5.729 -0.1565 -0.0926  0.0521
32806W        W46220  13.645   9.935  16.666 -0.0537  0.2294  0.1217
32807W        W46221  10.217  17.551  14.118 -0.0295 -0.0211 -0.1023
32808W        W46222  15.368  13.704   5.010  0.1715  0.0658  0.3544
32809W        W46223   7.176  16.370  14.031 -0.0458 -0.0743 -0.2842
32810W        W46224   7.441   7.788  10.659 -0.0599  0.3382 -0.2811
32811W        W46225   2.767  14.496  16.068  0.2403 -0.1303  0.0852
32812W        W46226  15.495   0.870   4.359 -0.0169 -0.3406 -0.1828
32813W        W46227   8.886  10.479  13.033  0.0389 -0.2553  0.0768
32814W        W46228   0.482  13.721   1.508 -0.2056  0.0045  0.0884
32815W        W46229  12.537  10.334  15.280  0.2167 -0.1176 -0.0942
32816W        W46230   1.113   7.528   5.319 -0.0248  0.0112 -0.1627
32817W        W46231  13.322  10.268  10.888 -0.2810 -0.0900 -0.2086
32818W        W46232   9.812  10.825   2.720  0.2531  0.2458 -0.2075
32819W        W46233  17.845  17.133   4.594 -0.0540  0.1078 -0.2273
32820W        W46234   3.206   9.817   4.701 -0.0997  0.0623 -0.2440
32821W        W46235   4.360   9.996   1.939  0.1939  0.0341  0.2226
32822W        W46236  11.084   7.491  10.935 -0.0735  0.1744  0.0642
32823W        W46237  15.443   1.789  14.187 -0.1786  0.0292 -0.0412
32824W        W46238  14.611   4.057  13.937  0.0329  0.1065  0.1898
32825W        W46239   6.411  14.636   2.985 -0.0383 -0.0424 -0.0415
32826W        W46240   9.584  12.321   0.411  0.2735  0.1267  0.1663
32827W        W46241  16.890   3.533   4.922 -0.1030  0.1731  0.2870
32828W        W46242   3.428   2.972  16.238  0.3041  0.1896  0.1703
32829W        W46243  12.531  14.672   0.533  0.0814 -0.1350 -0.0053
32830W        W46244  14.604   0.741   3.658  0.0944  0.0379  0.2479
32831W        W46245  14.546  12.533  14.863  0.3454 -0.1344  0.2075
32832W        W46246   0.300   3.125   3.290 -0.0812 -0.4414 -0.0426
32833W        W46247  12.458  11.369  16.126  0.1921  0.0693  0.0130
32834W        W46248   5.429   8.908   3.280  0.0926  0.3479 -0.0768
32835W        W46249  12.763  13.560  13.809  0.0204  0.0547  0.0299
32836W        W46250   7.649  12.735   1.658  0.0422  0.5661  0.0674
32837W        W46251  14.757  16.031  12.526  0.1688  0.1341  0.2559
32838W        W46252  10.992  12.035   3.938  0.0724  0.1341  0.1918
32839W        W46253   2.532   1.379   6.131  0.4039 -0.1754 -0.0843
32840W        W46254   4.137   6.095   4.969 -0.3964  0.1131 -0.2924
32841W        W46255  15.796   7.472  12.306 -0.0629 -0.0523 -0.0714
32842W        W46256   4.284   0.007  12.044 -0.1398  0.2881  0.0017
32843W        W46257   2.869   2.196   4.797  0.0632  0.1443 -0.2861
32844W        W46258  10.548  10.953   1.933  0.0064 -0.2008  0.1032
32845W        W46259   7.278   4.209   5.459 -0.0682 -0.0204 -0.0673
32846W        W46260   3.706   6.314   5.183 -0.3865 -0.0125 -0.0228
32847W        W46261   1.112  14.376   2.364  0.2917 -0.0172  0.0115
32848W        W46262  15.848  11.881  13.253 -0.0415 -0.0912 -0.3081
32849W        W46263   1.657  17.893   2.185  0.3075  0.4716 -0.3385
32850W        W46264  16.479   1.196   6.312 -0.4131  0.1050 -0.1870
32851W        W46265  14.177   2.461  15.115  0.0145  0.1816  0.0755
32852W        W46266   8.931  13.651   5.929 -0.0392 -0.0285  0.2355
32853W        W46267   0.307  11.349  15.427 -0.0663  0.4705 -0.0223
32854W        W46268   6.226   8.293   4.437 -0.0960 -0.0906 -0.0826
32855W        W46269   8.664   6.557   3.046  0.3627 -0.0929 -0.2240
32856W        W46270  14.720   6.168  10.620 -0.2725  0.1387  0.0950
32857W        W46271   8.468  11.516   2.228  0.1290 -0.1471 -0.1751
32858W        W46272  10.561   8.532  12.685 -0.2714  0.0813  0.1381
32859W        W46273   1.006   4.551   0.251  0.1753  0.1675 -0.0065
32860W        W46274   8.240   3.815   0.090  0.1819 -0.2691 -0.1526
32861W        W46275   0.821  16.514   3.725  0.1469 -0.0632  0.2246
32862W        W46276  17.985  15.341   3.036  0.1119 -0.1167 -0.0660
32863W        W46277  12.737  13.299  16.373  0.1390 -0.1220 -0.1539
32864W        W46278   9.125   6.907  16.158  0.2928  0.2789  0.3016
32865W        W46279   1.485   4.027  12.867  0.2591 -0.0115  0.3566
32866W        W46280  13.657  10.204   0.471 -0.5051 -0.0041  0.3036
32867W        W46281  15.032   3.206   6.134  0.1329  0.3543 -0.2395
32868W        W46282   6.422  16.442   4.284  0.1485  0.2134  0.1614
32869W        W46283   0.096  10.811   0.176  0.3429 -0.1985  0.0868
32870W        W46284  12.068   4.752   3.710 -0.0338  0.0143  0.1796
32871W        W46285   0.474   4.878   0.162  0.1402 -0.0492 -0.2145
32872W        W46286  10.460  14.446   3.144  0.2938 -0.0351 -0.0314
32873W        W46287   0.404  13.555  10.721  0.0131 -0.0688 -0.1520
32874W        W46288   7.541   9.095  10.780 -0.1798 -0.3016  0.0235
32875W        W46289   7.890  16.965   2.610 -0.1289 -0.2440 -0.0110
32876W        W46290  16.693  11.828   2.612  0.1676 -0.2533  0.2163
32877W        W46291   2.323   8.733  13.777  0.0966 -0.1951 -0.2385
32878W        W46292   4.486   6.259  12.733  0.0229  0.1735 -0.0339
32879W        W46293   6.024   9.804   5.145  0.1804 -0.0822  0.1795
32880W        W46294   0.453  13.166   6.520 -0.3225 -0.1926  0.0249
32881W        W46295   5.812   1.948   4.143 -0.0759 -0.0122 -0.0854
32882W        W46296   8.177   8.365   5.389 -0.2416 -0.0337 -0.1250
32883W        W46297  10.103   5.268  13.516 -0.0120 -0.0557 -0.1920
32884W        W46298   8.493  15.157  11.124  0.0511 -0.1142  0.1196
32885W        W46299  12.710  14.482  11.151 -0.1575 -0.2089 -0.2969
32886W        W46300   7.526   3.845  14.954 -0.1289  0.2766 -0.0038
32887W        W46301   8.101   7.609   1.731 -0.2366 -0.0583 -0.0709
32888W        W46302  15.300  18.038   5.506 -0.0903  0.2255 -0.1279
32889W        W46303  10.209  15.213  14.649 -0.0391 -0.1988  0.1219
32890W        W46304  14.645   3.266  12.770 -0.3642  0.0992 -0.0995
32891W        W46305  12.986  10.472   2.755  0.0564  0.0659 -0.1678
32892W        W46306   5.029   9.421  11.545  0.1773  0.0803  0.2031
32893W        W46307   3.423   2.524  11.226 -0.0017 -0.0437 -0.0960
32894W        W46308   1.805  15.785  13.812 -0.0766  0.2532 -0.2240
32895W        W46309   2.050   3.914  16.355  0.0786  0.2060  0.0788
32896W        W46310   2.930  13.603   3.801 -0.5156  0.0702  0.3418
32897W        W46311  17.318   5.326  13.884 -0.0041 -0.0757 -0.0291
32898W        W46312   6.610  11.717   0.382  0.0285  0.0636 -0.2437
32899W        W46313   3.954   2.451   5.518 -0.0384 -0.2026  0.2767
32900W        W46314   2.997   1.584  13.700  0.0104 -0.0792 -0.2886
32901W        W46315   3.275  13.182  16.355 -0.0713  0.2051  0.0964
32902W        W46316  16.679   8.074   5.271 -0.1037  0.2970 -0.1119
32903W        W46317   7.439   5.616  12.277 -0.0258 -0.0747  0.1393
32904W        W46318   6.457  10.687  16.638  0.3723 -0.0518  0.3257
32905W        W46319   7.763   7.367  13.849 -0.1294  0.0508 -0.0291
32906W        W46320  12.376  11.477  11.365 -0.1956  0.3641  0.1514
32907W        W46321   4.113   3.192   4.239  0.0518 -0.0856 -0.0357
32908W        W46322  13.457   9.773   2.465  0.0815 -0.0160 -0.0976
32909W        W46323   6.536  12.743   2.531 -0.0810 -0.1801  0.0640
32910W        W46324   8.319   3.615  13.371  0.0607  0.1541 -0.0342
32911W        W46325   2.016  14.785  12.221 -0.2530  0.1090  0.1230
32912W        W46326   5.419   4.191  13.375  0.3576 -0.1105  0.0440
32913W        W46327   7.903  14.311  13.597 -0.0253 -0.0212 -0.0787
32914W        W46328  14.756   3.016   3.279  0.0466  0.1914  0.1174
32915W        W46329  13.081  14.516  16.556 -0.0276 -0.3070  0.0437
32916W        W46330   9.482   3.908  16.508  0.0365 -0.0404 -0.0284
32917W        W46331  16.132  15.799  13.379 -0.0850 -0.0318 -0.1069
32918W        W46332  11.509  13.882   2.819 -0.1842 -0.0357 -0.2365
32919W        W46333  10.498   5.994   1.438 -0.2959  0.2384  0.2900
32920W        W46334   0.091  17.422   5.377  0.1728  0.0776  0.1399
32921W        W46335  11.994   6.312   5.019 -0.1411  0.0714  0.0359
32922W        W46336   6.216   6.420  12.292  0.0431 -0.0378  0.1803
32923W        W46337  15.087  17.210   0.834 -0.0046  0.4050 -0.2872
32924W        W46338   5.184   8.509   6.380 -0.1029  0.2614  0.0316
32925W        W46339   5.245   5.489  13.920 -0.1543 -0.1475 -0.1235
32926W        W46340   0.974   0.790   3.014  0.1977 -0.0374 -0.1262
32927W        W46341   3.717  17.144   1.790  0.0309  0.2179 -0.0871
32928W        W46342  13.496   4.615   0.712 -0.1780  0.0856 -0.1327
32929W        W46343   0.747  17.156  15.280 -0.0735 -0.4191 -0.0486
32930W        W46344   5.687   8.205  12.705  0.1313 -0.0629 -0.1066
32931W        W46345   4.095  10.053   5.577  0.1041  0.1333 -0.2947
32932W        W46346  10.312   5.046  15.941  0.1174  0.0265 -0.1164
32933W        W46347   2.359   9.993   2.881 -0.3503  0.1573  0.1451
32934W        W46348  11.520  13.300   0.574 -0.1095  0.0682 -0.3694
32935W        W46349   7.751  11.629   1.474 -0.2842 -0.3138 -0.1313
32936W        W46350  14.478   2.577   4.697  0.1217 -0.2742  0.1241
32937W        W46351  16.113  16.163   6.007 -0.1360 -0.1049  0.3048
32938W        W46352  10.327  10.711  12.406 -0.0751  0.1378 -0.1410
32939W        W46353  17.433  10.611   4.354 -0.0356 -0.2723  0.0148
32940W        W46354  10.974  10.475   2.460 -0.0794  0.1029  0.0258
32941W        W46355   6.850   4.968  12.870  0.3277 -0.0675 -0.0553
32942W        W46356   6.785   9.461   6.056 -0.3404  0.1038  0.1724
32943W        W46357  11.454  10.033   1.420 -0.1092  0.0374 -0.0817
32944W        W46358  12.262  13.626   1.574 -0.0196  0.0772  0.0009
32945W        W46359   0.631   9.201   1.582  0.2901 -0.0341  0.1501
32946W        W46360  14.162   9.764  13.309 -0.0790 -0.2788 -0.1211
32947W        W46361  11.767  14.760  12.399 -0.1179 -0.0797 -0.0434
32948W        W46362  16.106   0.182   4.745 -0.0490  0.1164 -0.3823
32949W        W46363  15.445   5.716   2.321  0.1176  0.2165 -0.2468
32950W        W46364   5.009  14.050   2.837  0.0274  0.2026  0.2195
32951W        W46365   1.518  14.034   2.758  0.1611 -0.1305  0.2840
32952W        W46366   5.222  17.709   2.258 -0.1763 -0.3038 -0.0910
32953W        W46367  17.332  14.655   6.270  0.1086 -0.0741 -0.3742
32954W        W46368  10.537   2.138  14.447 -0.1475 -0.0058 -0.1787
32955W        W46369   3.801   2.699   4.623 -0.2051 -0.3809 -0.0993
32956W        W46370   7.638   4.332  13.373  0.0721  0.1216  0.2642
32957W        W46371   7.145  11.450   5.993 -0.0982  0.1388 -0.2940
32958W        W46372   5.331  11.616   2.421  0.1008  0.0745  0.0850
32959W        W46373   2.631   0.945  15.038  0.2472 -0.0273 -0.2127
32960W        W46374   3.949   7.659   4.723 -0.0051  0.2120  0.1620
32961W        W46375   0.168  16.353  15.236  0.1506  0.1543 -0.0954
32962W        W46376  13.173  17.243   2.638 -0.1258 -0.1499 -0.1710
32963W        W46377   5.771   4.442   4.399 -0.1982 -0.0553 -0.2431
32964W        W46378  12.888   1.645  11.223 -0.2255 -0.0421 -0.0013
32965W        W46379  17.249  12.808   3.879  0.0185  0.0252  0.0772
32966W        W46380   0.659  12.667   5.841 -0.0886 -0.0021  0.0244
32967W        W46381   2.654  15.358   3.582  0.1012 -0.1747  0.2223
32968W        W46382   7.542   2.698  11.140 -0.3566  0.1275  0.4217
32969W        W46383  10.004  11.325  15.176  0.1940 -0.1806  0.3315
32970W        W46384  11.467  11.447   2.202  0.0105  0.1532  0.0682
32971W        W46385  16.371   0.472   1.360 -0.0543 -0.1808 -0.1243
32972W        W46386  15.324   0.338   3.346 -0.0328 -0.0633 -0.1664
32973W        W46387  14.497   4.761   6.331  0.1736 -0.0624 -0.1122
32974W        W46388   3.286  10.401   2.765 -0.0276 -0.0387 -0.0913
32975W        W46389   7.791   7.937   6.210 -0.0785 -0.1872 -0.1587
32976W        W46390   2.039   1.371  16.608 -0.2986 -0.0016 -0.3890
32977W        W46391  11.751   8.748   3.440 -0.2133  0.1793  0.2317
32978W        W46392   5.404  10.009   0.543  0.0164  0.1123 -0.1833
32979W        W46393  13.504   2.462  11.469 -0.0706 -0.1846 -0.2772
32980W        W46394   3.044   0.557  15.329  0.1115 -0.0107  0.0617
32981W        W46395   8.358   5.645  15.979  0.1119 -0.3137 -0.1210
32982W        W46396   9.659  10.370  11.654  0.0557  0.1850 -0.1716
32983W        W46397   0.141  15.185  11.437  0.1140 -0.2627  0.1768
32984W        W46398  16.136   0.655   3.610  0.1029  0.2851 -0.0732
32985W        W46399   0.242   1.851  12.309 -0.0388 -0.2159 -0.0622
32986W        W46400  16.765   1.557   6.803 -0.1154  0.2886  0.0393
32987W        W46401  12.488   4.205  11.744  0.2524 -0.1190  0.0288
32988W        W46402   1.950   1.904   4.379  0.0235  0.0961  0.1492
32989W        W46403   5.046   0.702  12.875 -0.0000 -0.2699 -0.1514
32990W        W46404  14.743   7.977   3.424 -0.0209  0.2038  0.0474
32991W        W46405   7.464  14.144  14.778  0.0611 -0.3016 -0.2735
32992W        W46406   5.535  17.188  13.411 -0.1570  0.0469  0.1789
32993W        W46407  14.232   4.881   3.905 -0.2779 -0.1234 -0.1471
32994W        W46408  15.382  17.144  15.576  0.4121 -0.3958  0.2221
32995W        W46409   7.200  15.694  11.191  0.0673  0.0574  0.0604
32996W        W46410  11.408   2.973   1.301 -0.2908 -0.0498  0.0301
32997W        W46411  17.275  11.236  10.742 -0.0225  0.0864  0.2390
32998W        W46412  10.454   4.582  15.795 -0.4336  0.1666  0.2038
32999W        W46413  12.555  10.551   3.200 -0.0875 -0.1511  0.1526
33000W        W46414  16.555   0.522   0.451  0.2157 -0.1010 -0.0903
33001W        W46415   5.805  15.037  14.017  0.1452  0.0608  0.1398
33002W        W46416   5.884   5.964   4.182 -0.1916  0.2990 -0.0924
33003W        W46417  15.234  17.221   3.841  0.2652 -0.0512 -0.0292
33004W        W46418  17.829   5.990   2.175 -0.4958  0.1480  0.1108
33005W        W46419   1.645   5.888   3.998  0.0359 -0.2306 -0.4190
33006W        W46420  14.122  14.368  14.811 -0.1148 -0.1499  0.1832
33007W        W46421   4.253   6.075   1.454 -0.0345  0.1813 -0.1245
33008W        W46422  13.533   0.713  13.713 -0.2621 -0.1706  0.1710
33009W        W46423  16.127   5.420  12.003  0.1874  0.0770  0.0009
33010W        W46424  14.622   6.249   1.146 -0.1705 -0.1494 -0.0644
33011W        W46425  16.123   0.857  15.410  0.2126  0.0040 -0.3005
33012W        W46426  14.804   5.036   0.730  0.1198  0.0502 -0.0112
33013W        W46427   6.282  17.096   3.620  0.1488  0.1659  0.0807
33014W        W46428  10.118   0.313  12.301  0.1199  0.0385  0.3193
33015W        W46429   6.681   3.935  16.080  0.3130 -0.0580  0.0705
33016W        W46430   9.595  10.167  12.191 -0.0652 -0.2597 -0.0516
33017W        W46431  17.775   9.477  13.311 -0.0323 -0.2163  0.1596
33018W        W46432  12.114  11.022  13.623  0.1776 -0.2010 -0.0016
33019W        W46433  13.686   3.571  13.180  0.4932 -0.2375  0.0133
33020W        W46434  15.666   0.540   3.623  0.2394 -0.1478  0.0312
33021W        W46435  11.428  16.908  15.111  0.0016 -0.0836  0.0117
33022W        W46436   1.754   4.384  12.534 -0.2303 -0.0465 -0.0004
33023W        W46437   6.751   2.676   4.290 -0.1438  0.0262 -0.0172
33024W        W46438  14.289  16.853   4.043  0.1359 -0.1258  0.0973
33025W        W46439  10.656   7.775   4.334  0.2807 -0.0215 -0.2323
33026W        W46440   7.847   9.545  11.578  0.2485  0.1657 -0.0136
33027W        W46441   7.859   8.584  12.546  0.1561  0.2799  0.1406
33028W        W46442   3.417   9.616  14.844 -0.1022  0.2584  0.2076
33029W        W46443  17.956  16.206   0.060  0.0441  0.1496 -0.0255
33030W        W46444  15.101  11.693  12.807 -0.0779  0.1900 -0.2026
33031W        W46445   3.036  13.336   5.092  0.2124  0.0894  0.1714
33032W        W46446   0.701  17.213   0.698 -0.0981 -0.1273  0.1736
33033W        W46447   3.912  14.418   2.205  0.2549 -0.1067 -0.0949
33034W        W46448   1.406  13.335  12.952  0.2174  0.2975 -0.1519
33035W        W46449  16.940  12.960  11.402 -0.4888 -0.0363  0.1621
33036W        W46450  17.168  16.888   1.976  0.3416  0.0072 -0.1206
33037W        W46451   9.465  12.632   4.475  0.1554  0.2437  0.0771
33038W        W46452  16.476  18.013  16.327 -0.1812 -0.3148  0.0120
33039W        W46453   7.499   4.938   4.270 -0.1240 -0.1519 -0.0900
33040W        W46454  13.824   5.075   5.746 -0.2519 -0.3253  0.1232
33041W        W46455  16.894  11.523  14.662 -0.0402 -0.2169  0.0283
33042W        W46456   7.603   3.124  15.170  0.1570 -0.0525 -0.0208
33043W        W46457   3.491   7.099  12.682 -0.0959 -0.0288 -0.1234
33044W        W46458  11.614   7.931  12.509 -0.1381  0.4958 -0.0053
33045W        W46459   4.596   5.630   0.610 -0.0876 -0.0367 -0.0920
33046W        W46460  15.319  11.797  16.580 -0.0534  0.0666 -0.1167
33047W        W46461   9.683   5.815  16.154  0.1355  0.1014  0.0740
33048W        W46462  13.755   3.467   0.025  0.1690 -0.1336  0.3520
33049W        W46463   9.131   2.005  16.615 -0.0853  0.0313 -0.1178
33050W        W46464   4.870   3.935   5.569  0.0402  0.1511  0.2393
33051W        W46465  16.364   2.497   0.593 -0.0347 -0.2915 -0.2644
33052W        W46466  15.978   6.821   6.886 -0.1292 -0.0715  0.2297
33053W        W46467   1.137   9.064   5.006  0.1187 -0.0187  0.2403
33054W        W46468  12.467  17.094  13.225 -0.2279 -0.2092  0.1425
33055W        W46469  16.735   9.638  13.852 -0.0214  0.1098  0.1378
33056W        W46470   0.253  15.995   6.745  0.1738 -0.2363 -0.1057
33057W        W46471  13.832  15.501  16.156  0.0249  0.0573 -0.1232
33058W        W46472  12.457   3.723  11.983  0.2514  0.0496  0.0684
33059W        W46473  12.086   7.224   0.015  0.2113 -0.4040  0.3126
33060W        W46474  13.903   1.267  15.196  0.1430  0.2774  0.0734
33061W        W46475   5.988  14.963   2.907 -0.2368 -0.1040 -0.1828
33062W        W46476  16.497  10.170   2.499  0.1810  0.1388 -0.2172
33063W        W46477  10.446  11.679   1.488 -0.2599 -0.3019 -0.1299
33064W        W46478   1.219   2.173   4.956  0.0273  0.0511 -0.1633
33065W        W46479  14.360   3.017  13.124 -0.0429  0.1238  0.0860
33066W        W46480  12.551  15.961  16.611  0.0561  0.0327 -0.0171
33067W        W46481  14.496  13.947  15.450  0.1413  0.1205 -0.1458
33068W        W46482   1.849   4.136  13.793 -0.1214 -0.1587 -0.0523
33069W        W46483   4.612  11.914   2.024 -0.0660  0.1205  0.2024
33070W        W46484   8.688   2.518  16.094 -0.0083 -0.1571  0.1340
33071W        W46485  11.491   5.301  11.632 -0.0736 -0.1150 -0.1291
33072W        W46486  13.557  16.318  12.975 -0.1743  0.1157  0.1760
33073W        W46487   8.591  13.515  13.893  0.3638 -0.0008 -0.2760
33074W        W46488  15.900  12.845   5.809 -0.3611 -0.0122  0.0516
33075W        W46489   9.932   6.992   4.888 -0.1603 -0.1038  0.0152
33076W        W46490  13.878  13.715   0.970 -0.2706  0.0353 -0.1199
33077W        W46491  15.933  15.757  14.786  0.1614 -0.1027 -0.2369
33078W        W46492   1.546   8.350  11.145  0.0573 -0.1909 -0.0393
33079W        W46493  12.171   3.945   6.013  0.0842  0.0879  0.0115
33080W        W46494  12.997  10.729  11.055  0.0456  0.1342 -0.2801
33081W        W46495  14.821   1.835  16.414 -0.1803 -0.0775 -0.1558
33082W        W46496   0.673   6.827  12.980  0.1242 -0.0336  0.2110
33083W        W46497   0.176   6.047  11.860  0.1627  0.0807 -0.0926
33084W        W46498   6.693   8.454   1.390  0.1819 -0.0924  0.1256
33085W        W46499  17.718   3.341   6.120 -0.1102 -0.0709  0.1798
33086W        W46500  12.184   6.135   2.690 -0.0824 -0.2086 -0.1767
33087W        W46501  17.734  11.210   4.114 -0.0078  0.2734  0.0700
33088W        W46502  10.179   2.115  13.447 -0.0437  0.1773  0.1092
33089W        W46503   6.728  17.967   4.550 -0.0501  0.2582  0.0981
33090W        W46504   1.742   6.348   7.059  0.1692  0.1228 -0.1292
33091W        W46505  14.721  12.744   1.694  0.2674  0.1419 -0.0850
33092W        W46506  16.022  17.757   4.877  0.1694  0.0748 -0.0170
33093W        W46507  12.460  10.651   2.671  0.2056  0.0907  0.1210
33094W        W46508   1.923  14.776   4.727 -0.1619 -0.0571 -0.2475
33095W        W46509   9.726  11.493   3.084 -0.2402 -0.0702 -0.1231
33096W        W46510   0.250   7.394  12.298  0.0394 -0.0462 -0.2718
33097W        W46511  10.082  11.194  16.572 -0.3115 -0.1344  0.2647
33098W        W46512   5.164   9.967   5.821 -0.1678 -0.1909 -0.2428
33099W        W46513  14.741  11.907  14.741  0.1180  0.3288  0.0212
33100W        W46514   5.528   8.276  12.179  0.1696 -0.0209  0.0726
33101W        W46515   9.645  12.540   5.959  0.1145 -0.1150 -0.1085
33102W        W46516  16.851   3.178   0.190  0.1556 -0.1616  0.0995
33103W        W46517  10.487   3.108  14.552  0.1622  0.1103  0.1256
33104W        W46518  16.964  10.832  14.814  0.1355  0.1102  0.3220
33105W        W46519   3.709   1.780   3.936 -0.1438 -0.2042  0.0253
33106W        W46520   3.677  16.778   2.263 -0.1546 -0.0240  0.0175
33107W        W46521  15.441   2.604   4.516 -0.0103  0.2846 -0.0301
33108W        W46522  15.162  10.259  11.965  0.1964  0.0737  0.1368
33109W        W46523   7.735   5.763  13.869 -0.2714  0.2461 -0.0850
33110W        W46524   8.120  14.440   3.819  0.0323  0.1503 -0.1689
33111W        W46525   5.483   6.443  15.470 -0.3391  0.0057  0.2503
33112W        W46526   7.970   3.360   4.610  0.0991 -0.2904  0.2174
33113W        W46527   2.773   5.922   1.474 -0.1325  0.2567  0.0982
33114W        W46528  11.105   4.667   1.495  0.2608  0.0175 -0.1440
33115W        W46529  13.163   9.376  13.356  0.1863  0.2163 -0.1174
33116W        W46530  15.461   3.769   6.153 -0.2395 -0.3038 -0.0455
33117W        W46531   3.366   6.171  10.041  0.0314  0.0972  0.0556
33118W        W46532   6.505  14.367  11.048  0.1231 -0.0931  0.1563
33119W        W46533   4.502  11.607   0.668 -0.1599 -0.0561  0.0857
33120W        W46534   7.292   0.117  16.013 -0.2394 -0.0311 -0.0721
33121W        W46535   9.994   4.103   4.710  0.1302  0.3466 -0.1127
33122W        W46536  13.532   9.815  12.488  0.4169 -0.2317  0.1143
33123W        W46537  16.861  12.796   5.504 -0.1935 -0.0209  0.0634
33124W        W46538  13.119  15.783  12.289  0.2525  0.0136  0.1108
33125W        W46539   3.140  11.051  13.179 -0.0112  0.0745 -0.1445
33126W        W46540   1.957  16.351  13.206  0.2635 -0.0914  0.1367
33127W        W46541  13.638  10.341   1.636  0.2191 -0.1988  0.1296
33128W        W46542   0.011   5.342   4.827  0.3823  0.0773 -0.0360
33129W        W46543   0.922  14.107   0.523 -0.1106  0.1938 -0.2878
33130W        W46544  12.617   0.166  11.169  0.1290  0.1847 -0.0974
33131W        W46545   9.386  13.542  15.954 -0.0537 -0.1264 -0.2674
33132W        W46546   5.885  12.238  10.694 -0.0112 -0.1338 -0.0978
33133W        W46547  11.997   9.777  13.064 -0.0434  0.0286 -0.0588
33134W        W46548   0.112  15.659  13.673  0.0799  0.3088  0.1391
33135W        W46549   6.647  14.312  16.014  0.0441 -0.2217  0.2795
33136W        W46550  16.459   0.775  15.800  0.1437  0.1176  0.0782
33137W        W46551   2.307   4.367  13.815 -0.0239 -0.2023  0.1932
33138W        W46552  12.129  17.597   1.416  0.1352  0.1818  0.1907
33139W        W46553   2.383  10.126  15.338  0.2166  0.1840  0.0652
33140W        W46554   1.743  15.978   3.509  0.3814  0.1430  0.0065
33141W        W46555   4.157   1.545   5.230  0.1793 -0.2694 -0.0332
33142W        W46556   8.910   6.697   0.429  0.2865 -0.2091  0.0942
33143W        W46557  10.609  11.763   3.612  0.0606 -0.1580 -0.0280
33144W        W46558   0.080   8.082   1.490  0.2217 -0.0714  0.0208
33145W        W46559   3.984   7.294  15.205 -0.4444  0.1708  0.1032
33146W        W46560   1.938   0.153   1.266 -0.0186 -0.2050 -0.2177
33147W        W46561   3.217   8.780   3.440  0.3602 -0.3645 -0.0594
33148W        W46562  11.661   5.306   0.867 -0.1869  0.0890  0.2432
33149W        W46563   0.665   0.597   4.013  0.1399 -0.2083  0.1212
33150W        W46564  14.810  11.348   0.769 -0.0372 -0.0979 -0.0661
33151W        W46565   1.584  11.670   2.197 -0.1268 -0.0661 -0.1503
33152W        W46566  17.317   9.534   4.809  0.3322 -0.2216 -0.0598
33153W        W46567  16.068  16.201  14.348 -0.0544  0.3247  0.1065
33154W        W46568  10.805   5.028   5.801  0.3281 -0.1277 -0.1554
33155W        W46569   0.011   6.720   7.092 -0.0556  0.0362  0.0661
33156W        W46570  13.747   5.148   0.428 -0.0946 -0.4704 -0.0795
33157W        W46571  10.873  16.624  10.106  0.0796 -0.0820 -0.3338
33158W        W46572  14.135  17.121   5.396 -0.1317 -0.0387 -0.0437
33159W        W46573  14.553   1.363  16.339  0.2422  0.0655 -0.0214
33160W        W46574   6.888   0.379  16.303  0.2830 -0.1635  0.1380
33161W        W46575   6.810  17.890  12.405  0.2897 -0.0990 -0.2108
33162W        W46576   3.159  17.001   3.956  0.1505  0.2878  0.0666
33163W        W46577  14.249  10.970   2.195 -0.0525 -0.0498  0.0173
33164W        W46578  11.166   8.948  14.945  0.0119  0.0803 -0.1486
33165W        W46579   2.750   4.968   6.828  0.0893 -0.0686 -0.0963
33166W        W46580  15.719   8.099   0.977  0.0940 -0.0513  0.1848
33167W        W46581  16.082   2.172  16.561 -0.0144 -0.0236  0.1628
33168W        W46582   7.855   9.295  10.282 -0.0055 -0.1337 -0.2328
33169W        W46583  11.054  10.184  12.808 -0.0009 -0.4157  0.0686
33170W        W46584   5.318   8.827   5.771 -0.0149  0.0232  0.3958
33171W        W46585  10.528   6.942   1.495  0.0865 -0.1837  0.4440
33172W        W46586   3.415  12.998   4.999 -0.0956 -0.4317 -0.1721
33173W        W46587   9.334  17.181  13.478 -0.0557 -0.1077  0.0324
33174W        W46588  10.522  15.274   3.365 -0.0122 -0.1276  0.1215
33175W        W46589   4.976   6.577  11.912 -0.2704  0.0093 -0.0621
33176W        W46590  12.787  14.384   3.117  0.0829 -0.0954  0.0563
33177W        W46591  15.885   0.990  11.005 -0.1404 -0.0578  0.1109
33178W        W46592  10.895   8.753  15.996  0.0723  0.0742 -0.1859
33179W        W46593   0.096  14.506  15.612  0.1145 -0.3001  0.0374
33180W        W46594   4.863  13.296  12.465  0.1627 -0.0232 -0.0217
33181W        W46595  10.540  10.194  12.844 -0.1849 -0.0717  0.1097
33182W        W46596  14.530   3.578   5.652  0.3132  0.1742  0.0218
33183W        W46597   8.244   0.718  11.574 -0.1104  0.2145 -0.0390
33184W        W46598   5.783   3.965   0.702  0.2477 -0.1294  0.0717
33185W        W46599   5.968  13.957   2.380  0.1454 -0.3215  0.0346
33186W        W46600  17.552   7.295  15.281 -0.0740 -0.2046 -0.2243
33187W        W46601  14.011   9.983   4.798 -0.3087  0.1343 -0.1964
33188W        W46602   4.627  14.904  11.700 -0.0592  0.2594 -0.2536
33189W        W46603  16.234   0.192  15.433 -0.1030 -0.0496  0.2210
33190W        W46604   3.869  12.173   4.044 -0.1344 -0.2140  0.0034
33191W        W46605   2.554  13.702   1.703 -0.2129 -0.1254 -0.0972
33192W        W46606   3.851  13.713  12.793  0.0606 -0.0551  0.2190
33193W        W46607   4.893  10.203   2.732  0.1560  0.0547 -0.2341
33194W        W46608   8.380  14.574   1.551 -0.0414  0.0472  0.0027
33195W        W46609   1.804  16.052   4.693  0.0414  0.2723  0.3062
33196W        W46610  15.443  16.767  11.907  0.0559  0.0902 -0.0612
33197W        W46611  13.108   5.563  15.765  0.2504  0.1280 -0.0058
33198W        W46612   7.554   1.392  15.128  0.2790 -0.0772 -0.0961
33199W        W46613  13.115  16.625   1.208  0.1885 -0.1654  0.0915
33200W        W46614  15.785  15.417  13.289  0.1282  0.0533  0.2310
33201W        W46615  17.656   1.361  15.744 -0.0011 -0.1382  0.0156
33202W        W46616   1.893   4.962   0.472 -0.1589  0.1370 -0.0244
33203W        W46617   5.810  15.422   4.666 -0.2748 -0.0970  0.2131
33204W        W46618  16.500   9.719  12.196 -0.1927  0.2322  0.0327
33205W        W46619  13.760  12.868  14.380  0.0706  0.0453 -0.2255
33206W        W46620   4.660  13.400  14.819  0.1645 -0.0361  0.0710
33207W        W46621  12.621  15.390   1.850  0.1026  0.2008  0.0977
33208W        W46622  16.905  16.227  15.152 -0.0075 -0.0414  0.2914
33209W        W46623  17.781  13.422  11.166 -0.0759 -0.0245 -0.1233
33210W        W46624   2.168   2.727   0.419 -0.3862 -0.1362 -0.0727
33211W        W46625   0.750   2.353   5.204  0.0556  0.0339  0.2721
33212W        W46626   2.987   6.409   6.213  0.3048  0.3937 -0.2498
33213W        W46627   7.320  17.795  12.540 -0.4323  0.1561  0.3926
33214W        W46628   7.631   0.046   5.864  0.0011 -0.2825  0.0112
33215W        W46629   4.070   0.067   3.763  0.2104  0.0594 -0.3760
33216W        W46630   3.808  15.447   6.089 -0.1922 -0.0946  0.1484
33217W        W46631   6.295   4.002  10.563  0.1794  0.2112 -0.1656
33218W        W46632  15.743  15.579  12.112 -0.1583 -0.1050 -0.2040
33219W        W46633   6.711   2.924  15.201  0.0668  0.0575 -0.0836
33220W        W46634  14.445   5.329   6.277  0.0421 -0.1075  0.2029
33221W        W46635  15.406   1.344   0.403 -0.2807  0.0065  0.1564
33222W        W46636   4.175  12.045   1.890 -0.2574  0.3010  0.1635
33223W        W46637   9.272   4.874  15.220  0.0416 -0.0818 -0.0265
33224W        W46638  16.712   1.353   3.823 -0.2018  0.1089  0.2241
33225W        W46639   0.214  17.930   0.137  0.0013  0.1861 -0.1389
33226W        W46640  14.468  14.530   3.187  0.3116 -0.2324  0.2804
33227W        W46641  14.506   4.943  11.469  0.2295 -0.1249 -0.1384
33228W        W46642  17.951   2.394   2.298 -0.1129  0.1250 -0.2004
33229W        W46643  14.216  14.756  11.111  0.4625  0.2929 -0.2217
33230W        W46644  16.735   0.988  11.904 -0.1670  0.1993 -0.1072
33231W        W46645   9.253   1.428  11.603 -0.1206 -0.0214  0.2080
33232W        W46646   3.643   9.792  12.951 -0.0933 -0.0662  0.0270
33233W        W46647  15.264   0.622  14.467  0.1334  0.2467 -0.2480
33234W        W46648  15.200   4.467  14.616 -0.0924  0.1125 -0.3679
33235W        W46649   2.620   2.130   2.652 -0.0145  0.0035  0.1849
33236W        W46650   9.592   3.647   1.209 -0.1318  0.4406  0.3630
33237W        W46651   2.996   4.401  14.928  0.2268 -0.2115  0.0100
33238W        W46652  13.722  14.594  10.861 -0.1314  0.1448 -0.1345
33239W        W46653  17.869   1.426   4.561 -0.3133  0.0161  0.3581
33240W        W46654   5.069  14.005  12.355  0.0702  0.1998 -0.0411
33241W        W46655   1.614   6.750  11.556 -0.1859 -0.1225  0.3960
33242W        W46656   1.727  11.379  13.818  0.3166  0.4277  0.0067
33243W        W46657  11.611  12.405   0.803  0.2410  0.1179  0.3840
33244W        W46658  16.181   0.833   0.639  0.1817  0.2150  0.1542
33245W        W46659  16.035   5.666  13.202 -0.2161  0.2787  0.2911
33246W        W46660   0.187   7.792   3.336 -0.0367  0.3392 -0.0731
33247W        W46661   2.633  15.485   4.684 -0.1628 -0.1822 -0.0486
33248W        W46662   2.152  17.599   5.601 -0.1690  0.2197  0.1074
33249W        W46663  15.781  17.291   5.087 -0.0097  0.2188 -0.0192
33250W        W46664  10.584   2.573   2.182  0.1472 -0.0104  0.1322
33251W        W46665   2.205  10.976  11.970  0.0356 -0.0517 -0.0776
33252W        W46666   1.092  14.496  13.239 -0.1057 -0.2862 -0.0277
33253W        W46667  17.336   3.651  13.246 -0.0868 -0.1611  0.0365
33254W        W46668  17.716   6.951   3.849  0.0812 -0.0700 -0.2524
33255W        W46669  13.876  11.262   1.892 -0.0579 -0.1568  0.0966
33256W        W46670  13.138  10.101  14.507  0.2368 -0.0230 -0.1845
33257W        W46671   7.768   5.821   6.022 -0.0685  0.1132  0.2258
33258W        W46672   8.078   9.686   3.581  0.1812  0.1869 -0.3715
33259W        W46673  11.541  17.219  13.494  0.0520 -0.0104  0.1807
33260W        W46674   9.832   3.705  11.895 -0.1859  0.3401 -0.0593
33261W        W46675  16.771  13.603  11.047  0.0098 -0.0163 -0.0553
33262W        W46676  14.648   1.072  15.320 -0.2852 -0.0324  0.1282
33263W        W46677  17.389   2.036  11.380  0.4592  0.2411 -0.1209
33264W        W46678  13.899  12.466  15.166 -0.2880  0.2010 -0.1828
33265W        W46679   3.070  12.677  13.763  0.2909 -0.0565  0.3118
33266W        W46680   5.660  10.729   3.797  0.0879  0.0179 -0.0245
33267W        W46681  11.725  11.049   2.663  0.0995 -0.1674  0.0695
33268W        W46682  17.381  15.631  11.468  0.2079 -0.0791 -0.0573
33269W        W46683   1.072   7.429  12.225  0.0736  0.0903 -0.1214
33270W        W46684  16.088  12.953  14.099  0.1158 -0.4482 -0.2778
33271W        W46685   7.838   7.550  15.737  0.0262 -0.1226 -0.1446
33272W        W46686  13.036  12.972  16.051 -0.2776  0.0255  0.1609
33273W        W46687  13.522  15.799  15.444 -0.1483  0.0591 -0.1798
33274W        W46688   3.355   5.518   3.031 -0.0923 -0.2263  0.1107
33275W        W46689  10.789   6.378   0.333 -0.0298 -0.0654  0.0526
33276W        W46690  12.048   1.155  15.330  0.2123 -0.1260 -0.0120
33277W        W46691   7.554  15.972   4.294 -0.2168  0.1372 -0.0623
33278W        W46692  14.060   3.127  14.052 -0.0782 -0.0760 -0.0041
33279W        W46693   5.315  11.463   1.335 -0.2095  0.3625  0.1356
33280W        W46694   7.777  15.592  16.502  0.1332 -0.4570  0.0500
33281W        W46695   8.747   9.173  10.147  0.3663 -0.1205 -0.1516
33282W        W46696  10.781   4.118   5.196 -0.0736  0.0587 -0.0979
33283W        W46697   0.934   4.563   4.700 -0.0041  0.0820  0.0825
33284W        W46698   5.712  11.995   2.487 -0.1243 -0.2393 -0.1571
33285W        W46699   8.598   2.447   5.882  0.0169  0.1862  0.1656
33286W        W46700  16.462   6.080  14.474 -0.2516  0.0547 -0.1117
33287W        W46701   9.184  13.782   2.900 -0.0025  0.1733  0.0005
33288W        W46702  14.186   4.721   3.381  0.1863 -0.1022 -0.1422
33289W        W46703   1.784  12.179  16.642  0.2168  0.0673 -0.4577
33290W        W46704  16.847   2.190   4.937 -0.1057  0.1587 -0.0272
33291W        W46705   4.480   3.984   4.018 -0.6012 -0.1897  0.1047
33292W        W46706  15.206   1.562  12.384  0.1140  0.0493 -0.1096
33293W        W46707  13.769  11.370   5.851  0.1241  0.0372 -0.3775
33294W        W46708   0.667   3.550  11.691  0.2741  0.0941 -0.1280
33295W        W46709  10.530   0.324   4.470  0.1312  0.2326 -0.0021
33296W        W46710  15.095   3.215  16.068 -0.0851  0.2709 -0.2569
33297W        W46711  17.676   2.706  12.465 -0.1220 -0.1153  0.1410
33298W        W46712   7.666   9.931  11.870 -0.0148  0.0240 -0.1175
33299W        W46713   9.258  17.503  15.482 -0.1697  0.2871 -0.2061
33300W        W46714   3.912  14.361   4.848 -0.0251  0.0860  0.2921
33301W        W46715   0.335   5.692   5.105 -0.0103  0.1850  0.1895
33302W        W46716  14.270   0.135   5.475  0.1333  0.0012 -0.1680
33303W        W46717   1.433   0.011   6.485  0.2067  0.0292  0.0306
33304W        W46718   0.173   4.348   3.323 -0.0729  0.2612 -0.0693
33305W        W46719  12.066   7.251   5.368 -0.1989 -0.1681 -0.1217
33306W        W46720  15.008   2.239   3.366  0.3178 -0.0682  0.0683
33307W        W46721  15.054  14.775  10.712 -0.1204  0.0198 -0.1213
33308W        W46722  11.971  16.929   5.515 -0.2110 -0.0949  0.0057
33309W        W46723   1.562  10.605   5.016 -0.2067  0.0361  0.0344
33310W        W46724   7.850   3.690  15.984 -0.0109 -0.3365  0.2281
33311W        W46725   2.920  12.297  11.862  0.1164  0.3119  0.0289
33312W        W46726   2.402   1.360   3.072  0.5026 -0.1780 -0.1012
33313W        W46727  16.615  13.908  15.580 -0.0451 -0.0252  0.1139
33314W        W46728  12.249   7.981   3.285  0.0475 -0.0098 -0.1066
33315W        W46729   5.538   0.997  16.072 -0.0725  0.1004 -0.0311
33316W        W46730  12.551  13.145  13.402 -0.3988  0.1533  0.0872
33317W        W46731  15.059  10.012  11.448  0.0897 -0.2451 -0.1882
33318W        W46732   4.627  15.478  12.451 -0.0619 -0.2940 -0.1886
33319W        W46733   0.086   9.159   5.549  0.1611 -0.0975 -0.0516
33320W        W46734   6.033   0.660  15.012  0.2251  0.1196 -0.4074
33321W        W46735   0.252  15.890   2.372 -0.1733  0.0348  0.1680
33322W        W46736  15.008  10.140  13.274  0.0958 -0.4023 -0.0575
33323W        W46737   4.259  11.687   4.468  0.0757  0.2008 -0.2220
33324W        W46738   3.720   6.512   1.394  0.0796  0.0396  0.1161
33325W        W46739  11.829  10.707   4.911 -0.1489 -0.2234 -0.3415
33326W        W46740   0.608   0.467  14.270  0.0962  0.3060  0.0416
33327W        W46741   5.589   7.800  13.095 -0.1640 -0.1892  0.2346
33328W        W46742   0.692  15.459  16.116  0.0610  0.0864 -0.0440
33329W        W46743   3.040   6.306   1.639 -0.0169  0.0611  0.0594
33330W        W46744   3.706   0.458  14.227 -0.0787  0.0720  0.1341
33331W        W46745   2.937   3.432   5.672 -0.1878  0.0502 -0.3840
33332W        W46746  17.355  13.196  16.500  0.2245  0.1034 -0.2116
33333W        W46747   4.915   0.424   3.299  0.0080  0.3667 -0.1836
33334W        W46748   4.494   7.607  14.614 -0.0747 -0.0918 -0.2498
33335W        W46749   1.153   2.041   3.066  0.1256  0.2746  0.0432
33336W        W46750  15.934  12.411  11.698 -0.2076 -0.0186 -0.2684
33337W        W46751   8.502  11.169   4.591 -0.0813 -0.0181  0.0627
33338W        W46752  14.372   6.643  11.864  0.0664  0.0062 -0.1382
33339W        W46753  10.946   7.179  14.126 -0.0392 -0.3654 -0.1378
33340W        W46754  14.913   5.761   1.540 -0.0719  0.0346  0.1187
33341W        W46755   7.566   1.053   2.269 -0.0859 -0.2813 -0.0210
33342W        W46756  13.683   2.324  12.763 -0.2652  0.1980  0.2310
33343W        W46757   7.308  17.647  12.055 -0.0840 -0.1481 -0.2348
33344W        W46758  11.469   6.280  13.677 -0.1723 -0.3618 -0.0889
33345W        W46759   8.366   9.201   3.449  0.1130  0.0466  0.0002
33346W        W46760  10.237  10.555   3.694 -0.0199 -0.0631  0.1251
33347W        W46761   9.889   8.030  10.953 -0.2075 -0.0305 -0.0707
33348W        W46762   9.248   7.354   2.710 -0.3866  0.0654 -0.1803
33349W        W46763   7.205   9.186   4.333 -0.1495  0.0786  0.2673
33350W        W46764   5.306  17.792  10.599  0.1192  0.1002 -0.1638
33351W        W46765  10.921  13.179  14.746  0.0895 -0.0652 -0.0691
33352W        W46766  10.220  11.768  14.312 -0.4190  0.1921  0.0820
33353W        W46767   3.611   5.283  12.121 -0.2862  0.0077  0.2588
33354W        W46768   1.395  12.942   1.880 -0.0952 -0.0206 -0.0334
33355W        W46769  11.054  14.794   3.851 -0.2498  0.1935  0.1843
33356W        W46770   3.388  10.637  14.123  0.1250 -0.0696 -0.1273
33357W        W46771   5.852   1.879  12.740  0.0102  0.0152  0.2836
33358W        W46772   6.056   9.118  10.780  0.1097 -0.1987  0.2509
33359W        W46773   9.184   1.531  11.122  0.0219  0.2027  0.1153
33360W        W46774   4.161   2.344  14.007  0.1228 -0.0912 -0.6194
33361W        W46775   4.207   5.641  13.453  0.2091  0.0958 -0.1784
33362W        W46776   9.838   0.309  13.951 -0.2459 -0.1732  0.2708
33363W        W46777   8.422   1.919  14.512  0.1373  0.0240 -0.0763
33364W        W46778   0.031  10.656  13.713  0.0423  0.1148 -0.1013
33365W        W46779   7.061   5.913  16.037 -0.0123 -0.1098  0.0636
33366W        W46780  14.109  16.883  11.933 -0.0924  0.0239 -0.0934
33367W        W46781  16.541   5.157  12.169  0.3659 -0.3951  0.1449
33368W        W46782  13.224  13.075   4.397  0.0253  0.0118 -0.2383
33369W        W46783   4.548  12.423  10.977 -0.1343  0.2898 -0.2448
33370W        W46784   0.756   5.233   1.053  0.0845  0.0113  0.0267
33371W        W46785   6.473   1.318   4.243 -0.1299 -0.0391  0.2100
33372W        W46786  15.218  11.317   3.378  0.2748  0.0845 -0.2991
33373W        W46787  14.957  10.257   1.199 -0.1365 -0.1113  0.0785
33374W        W46788  17.982   1.443  12.212  0.0979  0.2244  0.0454
33375W        W46789   3.773   2.443   2.726 -0.0681  0.2871  0.2673
33376W        W46790  12.880   0.145   4.297 -0.3338  0.0308  0.0410
33377W        W46791   4.187   6.203  10.923  0.1306 -0.0792  0.0487
33378W        W46792  13.806   5.144  13.083 -0.0113 -0.0890  0.1445
33379W        W46793   1.996   1.353  11.560  0.0538 -0.0357  0.1965
33380W        W46794   4.751   2.599   1.163 -0.0479 -0.0485 -0.2518
33381W        W46795  13.826   8.011  13.961  0.0085 -0.0380 -0.3227
33382W        W46796   9.791   9.255  14.587 -0.1431  0.1673  0.0039
33383W        W46797  10.579   2.497   5.421  0.0483 -0.1016  0.0193
33384W        W46798   8.981   0.021   1.446 -0.0711 -0.0603  0.5615
33385W        W46799   5.525  14.701   0.718 -0.1481 -0.0629 -0.2006
33386W        W46800  10.184  12.677   5.099 -0.0755 -0.1734  0.2177
33387W        W46801  14.472   1.958   6.497  0.2426  0.1992 -0.1050
33388W        W46802  17.475  13.468  11.782 -0.2246  0.0787  0.0916
33389W        W46803   2.328  17.630  11.409 -0.3067 -0.2816 -0.0907
33390W        W46804   4.578  16.538  15.305 -0.0865  0.0596  0.0333
33391W        W46805   9.318   3.244   1.430 -0.0065 -0.1197  0.0756
33392W        W46806   5.774  13.965   1.353 -0.1916 -0.0179  0.1057
33393W        W46807  13.528   4.466   2.943  0.0005 -0.1573 -0.2163
33394W        W46808   2.074   9.735   0.075  0.0845  0.1205 -0.1406
33395W        W46809  14.436   4.802  14.657  0.2164  0.2038 -0.1045
33396W        W46810   9.985  16.596  13.812 -0.3722 -0.2748 -0.1193
33397W        W46811   2.565   6.755   3.038 -0.0287 -0.2470 -0.0061
33398W        W46812  17.092   4.204   2.328  0.0716  0.1232 -0.1169
33399W        W46813  17.469   4.778   1.076 -0.0863  0.1223 -0.1393
33400W        W46814  15.304  12.072  12.617  0.2157  0.2937  0.4193
33401W        W46815   6.344  10.976  16.158  0.1584  0.1478  0.1075
33402W        W46816   6.270  13.600  12.187  0.1478  0.0015 -0.0483
33403W        W46817   9.464   2.989  15.635  0.0297  0.0791  0.1327
33404W        W46818   3.120  13.568   5.946 -0.0404  0.1724  0.2776
33405W        W46819  10.554  14.914  11.176 -0.0920  0.0656  0.2868
33406W        W46820   1.094  10.024  15.034 -0.0104  0.0432 -0.2591
33407W        W46821   2.610  10.395  16.293  0.1899 -0.1226 -0.0789
33408W        W46822  16.824  16.073  12.161  0.0884  0.5119 -0.2206
33409W        W46823   9.308   6.380  15.290 -0.0079 -0.1521 -0.1657
33410W        W46824  13.958  12.669  12.434  0.3412  0.1352  0.2742
33411W        W46825  14.126  15.749  15.618 -0.2029  0.0019 -0.1168
33412W        W46826   2.258   2.641   3.282  0.0408 -0.2862  0.0532
33413W        W46827   1.772   6.181  15.881 -0.3335  0.1482  0.0531
33414W        W46828   9.502  11.102  15.168  0.1334  0.1486 -0.0754
33415W        W46829  17.372  12.812   1.131 -0.1178  0.0047 -0.1123
33416W        W46830   3.554  13.473  11.162  0.0992 -0.0340 -0.1199
33417W        W46831   7.429   1.083   1.244 -0.1657 -0.0002  0.2157
33418W        W46832   3.114   8.695   6.412 -0.1147  0.3360 -0.1674
33419W        W46833   2.914  17.604   1.726 -0.0637 -0.1644 -0.0494
33420W        W46834  17.769   9.824  11.299 -0.3313 -0.0899 -0.2697
33421W        W46835   6.078   7.143   3.251  0.1113 -0.0600  0.0051
33422W        W46836   3.087   5.474  15.193 -0.0046 -0.0589 -0.0986
33423W        W46837  12.098   5.990   4.113  0.0454  0.0384  0.2472
33424W        W46838   9.407  14.047  13.792  0.1073 -0.0937  0.0432
33425W        W46839  11.451   1.571   3.068  0.0332 -0.1731  0.4529
33426W        W46840  16.501  13.286  11.475  0.1395  0.2086  0.0999
33427W        W46841   5.152  17.645   5.221  0.0676  0.1183 -0.2484
33428W        W46842  15.921  14.026   1.776  0.0354  0.2166 -0.2293
33429W        W46843   7.443   7.373   3.544  0.0455 -0.0099  0.0812
33430W        W46844  18.045   4.437   0.447  0.0212  0.1086 -0.0451
33431W        W46845   5.138   8.424   2.619  0.0011 -0.0837 -0.0218
33432W        W46846  16.879   1.507   2.172 -0.1779  0.0558  0.0397
33433W        W46847   5.785  13.415  10.044  0.0669 -0.0117 -0.0454
33434W        W46848  13.938   1.634  12.516 -0.1206  0.2609 -0.0782
33435W        W46849   4.475  14.630  13.835 -0.0012  0.2037  0.2671
33436W        W46850  13.027   8.013   5.617  0.0060  0.0402  0.4431
33437W        W46851   2.695  13.184   2.554  0.1191  0.1818  0.0056
33438W        W46852   3.194   9.719  15.365  0.1690 -0.2264  0.1149
33439W        W46853  11.209  16.328   3.989  0.0311 -0.4931  0.0424
33440W        W46854   2.952   7.555   2.593 -0.2834 -0.0441  0.0478
33441W        W46855   7.797  17.834  13.185 -0.2902 -0.0755  0.0023
33442W        W46856  13.723   4.571   5.775 -0.3916  0.3004 -0.0293
33443W        W46857  13.826   0.255   3.821 -0.2552  0.0633 -0.0676
33444W        W46858   0.456  13.265   0.649  0.0634 -0.1743 -0.1068
33445W        W46859  12.850  14.442  13.966 -0.0652 -0.0708 -0.1072
33446W        W46860   7.616  13.492   3.475  0.2593  0.4559  0.0644
33447W        W46861  12.491   1.459  14.385 -0.3485  0.1785 -0.2055
33448W        W46862   7.687   8.753  15.595 -0.0566  0.0547  0.0059
33449W        W46863   7.037   4.143  15.012 -0.0371 -0.0391 -0.0408
33450W        W46864   6.121  17.271  11.106 -0.0455 -0.1409 -0.5448
33451W        W46865   6.642   4.385   5.107 -0.0904  0.0081 -0.1732
33452W        W46866  18.038  13.705   3.192 -0.1636 -0.0537 -0.2710
33453W        W46867  15.435   5.309  12.651  0.2934 -0.0031 -0.0164
33454W        W46868   0.182  16.266   1.970 -0.2004 -0.1144  0.2377
33455W        W46869   6.722  11.123   2.757  0.3257  0.0836 -0.0497
33456W        W46870   3.699  14.888   0.500  0.0494  0.0144  0.0727
33457W        W46871   9.292  15.419   3.528  0.0400  0.0073 -0.1523
33458W        W46872  15.696  13.355  12.875  0.2927 -0.1549  0.2453
33459W        W46873   7.003   9.383  11.957  0.3053 -0.0381  0.0145
33460W        W46874   8.914  11.329  12.457  0.0040  0.1207  0.1553
33461W        W46875   9.597  16.874  12.928 -0.0452  0.0723  0.0087
33462W        W46876   4.016   4.349   3.627 -0.1227  0.1253  0.0259
33463W        W46877   6.134   9.103  15.748 -0.1977  0.0907 -0.2728
33464W        W46878   9.867  17.699  11.367 -0.0601  0.1146 -0.0167
33465W        W46879   4.227   1.140   1.526  0.1560  0.0707  0.0751
33466W        W46880   0.739  14.669   2.519 -0.0709  0.1227  0.2409
33467W        W46881  11.798   0.763  14.780  0.2032  0.0643 -0.3111
33468W        W46882   9.826   6.382  11.523 -0.3229 -0.1114  0.0122
33469W        W46883   1.659  11.303  16.413  0.2809 -0.0635  0.0512
33470W        W46884  11.858   3.887   4.001 -0.1854  0.2395 -0.2505
33471W        W46885  16.070   6.189   2.116 -0.0642 -0.1069 -0.0034
33472W        W46886   2.879   0.853  12.128 -0.1740 -0.0203  0.1526
33473W        W46887   8.843   6.025   5.186  0.4396  0.1905 -0.1070
33474W        W46888   3.858  13.890   4.753 -0.2353 -0.1241 -0.2227
33475W        W46889  16.485   0.332   3.384 -0.0785  0.0033 -0.0644
33476W        W46890   4.094  16.732   5.776  0.2322  0.0151  0.2033
33477W        W46891  15.753  18.020   0.444 -0.0955 -0.0091 -0.4035
33478W        W46892  16.521   9.714  14.749  0.0703  0.0676  0.1326
33479W        W46893  15.400   7.087  15.088 -0.0313 -0.0398  0.1551
33480W        W46894  15.551  10.041  13.172  0.0951  0.2040 -0.0546
33481W        W46895  14.063  15.011   2.040  0.2020 -0.0543  0.3427
33482W        W46896   9.506  13.929   2.272 -0.1427  0.0386 -0.0444
33483W        W46897   5.382  10.777  11.711 -0.2348 -0.0740 -0.2595
33484W        W46898   7.463  10.137   0.927 -0.0264 -0.0302  0.1472
33485W        W46899  14.500   9.371  14.441 -0.2038 -0.0547  0.1479
33486W        W46900   1.194   3.374  11.807 -0.2430 -0.1262  0.2983
33487W        W46901   3.572   0.923   5.037 -0.0838  0.1253  0.1546
33488W        W46902   0.504  11.622   5.850 -0.1650 -0.0771  0.0391
33489W        W46903   2.738  14.250  12.360 -0.1700 -0.0847 -0.0819
33490W        W46904   3.652   4.618   2.603  0.0599 -0.0692 -0.0755
33491W        W46905  12.619   9.387  14.178 -0.0461 -0.2291 -0.4555
33492W        W46906  13.778  16.209   5.735 -0.0601 -0.3340 -0.1952
33493W        W46907   0.267   2.339   3.006 -0.0674 -0.2748 -0.0877
33494W        W46908   5.611   7.835   0.541  0.0368  0.0144 -0.0090
33495W        W46909   3.979   6.605   4.764 -0.0086  0.0279  0.2921
33496W        W46910   0.907   6.271   3.805  0.1716 -0.1687 -0.0935
33497W        W46911   8.359   3.302  16.609  0.0353  0.0689  0.0877
33498W        W46912   2.694   1.942  14.975  0.1772  0.0408  0.0462
33499W        W46913  15.922   0.528  15.716 -0.3839 -0.0984 -0.0875
33500W        W46914  13.008  12.143   0.580 -0.1819 -0.1123 -0.0417
33501W        W46915   8.937   4.513   1.411  0.1073  0.1097  0.2078
33502W        W46916   4.792  13.894  15.302 -0.1957 -0.0256  0.1279
33503W        W46917  11.236  12.113   1.000 -0.2583 -0.2582  0.3434
33504W        W46918   3.848  11.891   5.352  0.1028  0.1109 -0.3068
33505W        W46919  10.018   4.366  14.630 -0.0473 -0.0429 -0.2861
33506W        W46920  13.245  12.891  14.863  0.0920 -0.0458 -0.1386
33507W        W46921  14.103  16.961   0.736  0.1505 -0.1326 -0.0213
33508W        W46922   9.595   2.007   1.529 -0.2235  0.1214 -0.1132
33509W        W46923   9.183  17.614   1.886 -0.3620 -0.0018  0.0149
33510W        W46924   3.463   1.905  14.643  0.0828  0.0185 -0.1168
33511W        W46925  11.040  15.255  12.050  0.2585 -0.1052 -0.2379
33512W        W46926   4.136   9.343   5.146  0.0795 -0.0398 -0.2622
33513W        W46927   7.194  14.458   2.011 -0.0280  0.3216  0.1853
33514W        W46928   8.193  17.012   5.511 -0.1681 -0.1217 -0.1323
33515W        W46929   4.100  11.361   0.809  0.1804 -0.0126  0.1222
33516W        W46930  16.364   9.059   6.197 -0.1895  0.0032  0.0776
33517W        W46931   7.544   4.708   4.787  0.1994 -0.2902  0.1030
33518W        W46932  15.394   5.004  15.300  0.4057  0.1474 -0.0629
33519W        W46933  14.597   6.000  16.432  0.2376  0.3525  0.0111
33520W        W46934   4.825   2.891  16.118  0.3466  0.1318  0.4949
33521W        W46935  17.211   5.469  16.434  0.2971 -0.0941  0.0764
33522W        W46936  14.212   6.849   3.082  0.0965  0.0355 -0.0527
33523W        W46937  14.568  11.339  13.457 -0.1174 -0.0470 -0.1520
33524W        W46938  13.720  12.605  11.252  0.0278 -0.0181  0.2428
33525W        W46939  17.089   2.968   5.577  0.1010  0.0517  0.3276
33526W        W46940   5.088  13.193  12.009 -0.0396  0.0093 -0.0104
33527W        W46941   6.477   1.739   2.851 -0.1015  0.0361  0.0462
33528W        W46942  14.406   9.230   3.695 -0.1421 -0.0085 -0.0106
33529W        W46943  13.159   2.719  16.210  0.0925 -0.3059 -0.0067
33530W        W46944  13.068  12.431  14.723  0.0652 -0.1184  0.1406
33531W        W46945  12.727   1.694   0.984 -0.0424 -0.0569  0.2442
33532W        W46946   1.377   2.079  16.372 -0.1352 -0.0637  0.1394
33533W        W46947   0.098  12.978  13.005  0.0806 -0.1393 -0.0409
33534W        W46948   2.803   8.002  16.150 -0.0178 -0.2305  0.0210
33535W        W46949  15.166  10.393   1.668 -0.0551  0.0889  0.0136
33536W        W46950  16.803  17.218  14.834  0.1044  0.0468  0.5154
33537W        W46951   3.046   1.765   1.683  0.0522  0.4037  0.1029
33538W        W46952  13.030  13.883   3.855  0.3795  0.0483  0.2398
33539W        W46953  11.798  15.478   0.412 -0.0632  0.0439 -0.0093
33540W        W46954  11.847  16.392   1.791 -0.4198  0.0603 -0.0219
33541W        W46955   0.173  13.468  12.890  0.1258 -0.0491 -0.0197
33542W        W46956  17.702  11.622   2.068  0.0362 -0.0368  0.2518
33543W        W46957  17.147   5.615   3.681 -0.0763  0.1786  0.1696
33544W        W46958   0.743  12.011  13.110  0.0407 -0.0087  0.0903
33545W        W46959   4.358   7.733  11.647 -0.0506 -0.1446  0.2783
33546W        W46960  15.478   3.672  11.600 -0.0243 -0.0510  0.2130
33547W        W46961  14.452  11.054  16.240  0.0145  0.0928 -0.0742
33548W        W46962  11.821  15.540   5.491  0.0578  0.2451 -0.0861
33549W        W46963  10.951   3.475  12.683  0.0444 -0.0066 -0.0777
33550W        W46964   9.045   8.163   1.801  0.1497  0.0843 -0.2388
33551W        W46965   2.048   9.454   5.839  0.0711 -0.1333  0.2868
33552W        W46966  13.936  13.027   5.029  0.3005 -0.1276 -0.0230
33553W        W46967   9.356  12.539  16.610  0.2280 -0.1631 -0.0200
33554W        W46968  15.519  17.144   2.877  0.1373 -0.2127  0.2031
33555W        W46969  12.480  16.512  10.051 -0.0631  0.0987 -0.2606
33556W        W46970   7.549  10.412  12.669 -0.0448 -0.0874  0.0047
33557W        W46971   3.325   5.376   5.354  0.2989 -0.1003 -0.0616
33558W        W46972   9.798   8.755  12.202 -0.1532  0.2309 -0.2625
33559W        W46973  10.050   7.671   1.828 -0.0455  0.3147 -0.0555
33560W        W46974  12.454   4.984  12.692  0.0147  0.1413  0.0202
33561W        W46975   4.401  13.747  10.134 -0.1411  0.1081  0.1313
33562W        W46976  11.892  11.390   1.203  0.1438 -0.1222 -0.0141
33563W        W46977   0.227   9.997  16.379 -0.0604  0.1504 -0.0100
33564W        W46978   8.972  13.078  14.725  0.0455  0.0928  0.0375
33565W        W46979   3.023  10.335  12.834  0.0350 -0.0115  0.2652
33566W        W46980  15.145   6.807   2.129 -0.3698 -0.0782  0.1456
33567W        W46981  16.728   4.301  13.609  0.1129  0.1312 -0.0787
33568W        W46982   4.740   1.888   0.610 -0.2078 -0.1203  0.0997
33569W        W46983  15.892  18.019  12.015 -0.1866  0.0631 -0.1999
33570W        W46984  17.433  10.840   5.516  0.1281 -0.1451 -0.1318
33571W        W46985   2.984   0.355   3.697  0.0565 -0.2043  0.0390
33572W        W46986   5.471  12.677  12.083  0.1216 -0.2232  0.1404
33573W        W46987  11.400   9.566  16.654 -0.0502 -0.0260 -0.2049
33574W        W46988  12.875   8.706   4.113  0.1258 -0.1034  0.1317
33575W        W46989  11.305   0.589   3.822  0.0421 -0.1603 -0.0567
33576W        W46990  18.039  14.423   3.066 -0.0724 -0.0251  0.1560
33577W        W46991  11.507   0.424   1.898 -0.0094  0.0322  0.1896
33578W        W46992  14.939  15.061  13.257  0.1544  0.2189  0.4483
33579W        W46993  16.793  15.282  11.137  0.0569 -0.1561  0.0418
33580W        W46994   9.966   0.296  15.005 -0.1618 -0.3472  0.0101
33581W        W46995   7.771   5.891   3.040 -0.6493 -0.3082  0.1829
33582W        W46996   6.276   0.370  15.880 -0.2301 -0.1368  0.0392
33583W        W46997   2.790   4.388  11.878  0.0313 -0.0788 -0.1439
33584W        W46998   8.792   2.231  11.375 -0.4754  0.1834  0.0985
33585W        W46999   6.795  15.143   4.162  0.1174 -0.1229 -0.0899
33586W        W47000   5.853   0.136   6.302  0.1540  0.0551 -0.1603
33587W        W47001  15.979  16.584   0.724  0.2062 -0.0268 -0.0351
33588W        W47002  16.337  16.240   2.024 -0.0250 -0.1673  0.0200
33589W        W47003   8.615   1.472  11.945  0.0063  0.0701 -0.1260
33590W        W47004   9.640   8.499  16.165 -0.1137  0.2280  0.0434
33591W        W47005  10.205   6.420   0.059  0.3516 -0.0643 -0.1000
33592W        W47006   0.042   1.099  10.518  0.3222 -0.0713 -0.1127
33593W        W47007  10.288  13.662  13.705 -0.2843 -0.0701  0.0368
33594W        W47008   4.080   5.635   0.551 -0.1200 -0.2668  0.0292
33595W        W47009  13.212   0.955   1.294  0.2282 -0.1595 -0.3387
33596W        W47010   9.067   0.477   3.284 -0.0560 -0.2037 -0.0225
33597W        W47011  12.736   0.871  13.118 -0.1134  0.2811 -0.0204
33598W        W47012   0.828  14.416  10.009 -0.3193  0.1894  0.0789
33599W        W47013  10.177   7.044   5.853  0.0458 -0.2469  0.0941
33600W        W47014   7.851   8.835  10.484  0.2833 -0.0913  0.0717
33601W        W47015  13.968   2.942  13.518  0.0486  0.1885 -0.0118
33602W        W47016  10.369  17.809  11.509 -0.4270 -0.2607  0.1217
33603W        W47017   4.346  14.084   2.091 -0.2822  0.3817 -0.3050
33604W        W47018   5.177   7.384  14.264  0.1527  0.0219  0.2233
33605W        W47019  12.524   4.487   5.525  0.2325  0.3342 -0.3439
33606W        W47020  13.072  13.580  10.809 -0.0770  0.1187  0.2020
33607W        W47021   9.285   3.329  14.312  0.0909 -0.1511  0.0025
33608W        W47022   0.739  11.011  13.552 -0.1065 -0.0657  0.1753
33609W        W47023  13.684  17.006  15.203  0.0446  0.0419  0.0111
33610W        W47024  14.827   8.174  14.969 -0.0616 -0.2647  0.0445
33611W        W47025   7.990   1.926  15.798  0.0592 -0.2669  0.1536
33612W        W47026  16.425  11.091  11.767 -0.2151  0.0270  0.0888
33613W        W47027   5.789   3.481   0.464  0.0921 -0.1020  0.1376
33614W        W47028  12.971   6.873   3.278 -0.2016  0.1587  0.0101
33615W        W47029  12.823   0.670  14.802  0.2278 -0.1141 -0.0880
33616W        W47030  14.827  12.930  14.638  0.0683 -0.3046  0.0258
33617W        W47031   6.753  13.290   6.340  0.0664  0.1023  0.0282
33618W        W47032   2.870  10.733   2.784 -0.2113  0.0905  0.3305
33619W        W47033   9.861   0.373  11.862 -0.1472 -0.1851  0.0917
33620W        W47034   3.187  15.694  11.861 -0.0693  0.1330 -0.2202
33621W        W47035   5.419  16.165  10.508  0.1607  0.1314  0.0567
33622W        W47036  16.355  11.252   3.791  0.1998  0.1415 -0.2976
33623W        W47037   6.245   3.947   3.985 -0.0214 -0.2281  0.0451
33624W        W47038  17.591   1.669   3.147 -0.0929  0.1715 -0.2839
33625W        W47039  15.185  17.645   5.132  0.1363  0.2856  0.0852
33626W        W47040  16.683   2.034   0.751 -0.0628  0.1228 -0.3025
33627W        W47041   6.220   5.973  14.804 -0.0999  0.1172  0.2488
33628W        W47042  15.735   7.383   3.166 -0.1100 -0.0867  0.2206
33629W        W47043   3.960   3.045  12.861  0.3063  0.0032 -0.1146
33630W        W47044   7.541   9.251   2.997 -0.0230 -0.1019  0.1836
33631W        W47045  13.570   3.253  10.380 -0.0292  0.2272  0.1976
33632W        W47046   5.150  12.380  10.113 -0.1389  0.0040 -0.1873
33633W        W47047  16.378  15.119   5.069  0.1578 -0.3994 -0.0502
33634W        W47048   5.357   4.182  10.587  0.0555  0.0764 -0.0185
33635W        W47049  16.113  17.441  11.469  0.1023  0.1761 -0.2324
33636W        W47050   4.562   2.889  15.316 -0.0312  0.2268 -0.0137
33637W        W47051   4.808   7.926  10.094 -0.3497 -0.1159 -0.1946
33638W        W47052  17.565  14.437   3.365  0.0247 -0.0305 -0.1853
33639W        W47053   6.871   7.602   3.602 -0.1502  0.0986  0.0456
33640W        W47054  16.309   9.558  13.627 -0.2721  0.0542  0.1714
33641W        W47055   9.899  15.962   4.255 -0.1421 -0.1469 -0.0406
33642W        W47056   1.996  14.448  11.268 -0.0458  0.0649  0.0359
33643W        W47057  13.948   2.589   4.958 -0.0879 -0.1144 -0.0640
33644W        W47058   5.438  18.041   5.487 -0.2107 -0.2175  0.0334
33645W        W47059  15.244   3.181  13.467  0.1626  0.0693  0.2143
33646W        W47060   5.687   2.132   3.124 -0.1795 -0.1011 -0.1796
33647W        W47061  13.615  14.902   1.924  0.1136  0.0328  0.2724
33648W        W47062  12.113  14.105   5.786 -0.1973 -0.0142  0.1011
33649W        W47063   7.251   1.567  12.850 -0.1461  0.0548  0.1250
33650W        W47064   4.934  11.731   0.045 -0.1500 -0.0668 -0.2227
33651W        W47065  12.153  14.450   0.248  0.1484  0.0350 -0.0229
33652W        W47066   7.002   3.372   5.446  0.2336 -0.1756  0.0336
33653W        W47067   6.063  16.581   2.771 -0.0448  0.1914 -0.1808
33654W        W47068  14.833   8.959  12.253 -0.0892 -0.0229  0.1577
33655W        W47069   2.207   2.980  11.520  0.0571 -0.2705  0.0749
33656W        W47070  16.269  14.839  12.547 -0.1013 -0.0155 -0.0060
33657W        W47071   5.874   1.215  15.081 -0.1262 -0.4201  0.0183
33658W        W47072  12.914   6.811   5.290  0.2005 -0.0845 -0.1591
33659W        W47073  14.800   2.806  13.008 -0.0418  0.1933  0.0239
33660W        W47074   9.937   6.365  12.881  0.0644  0.0036  0.0500
33661W        W47075  15.431  11.379   1.624 -0.2586 -0.2032 -0.0834
33662W        W47076   4.858   1.261  11.141 -0.0424  0.2033 -0.1002
33663W        W47077  17.721   5.421  16.483  0.0195 -0.1769  0.3791
33664W        W47078   5.053   3.775  11.165 -0.1119 -0.2444 -0.0074
33665W        W47079  17.502   2.823   5.295  0.2864  0.0207  0.0868
33666W        W47080  14.488   6.119  13.968  0.4785 -0.1362  0.2758
33667W        W47081   4.340  17.724   0.252  0.1366 -0.0253  0.1750
33668W        W47082  14.940   8.965  15.380  0.3278 -0.2019 -0.1959
33669W        W47083  13.739   8.164  16.211 -0.0440  0.2013  0.0173
33670W        W47084  10.313   5.456   3.354  0.0576  0.0839 -0.4117
33671W        W47085   8.358  16.001  15.992 -0.1383 -0.0571  0.0530
33672W        W47086   7.665   5.524   2.239  0.0526  0.2069  0.0185
33673W        W47087  14.731  16.669   1.900  0.0484 -0.3014  0.3819
33674W        W47088  14.000   2.588  14.664 -0.2627 -0.0796  0.2718
33675W        W47089   4.432  17.664   5.266  0.1963  0.1739 -0.0994
33676W        W47090   9.071   2.423   2.349 -0.1495  0.2033  0.2466
33677W        W47091   6.193   7.210  13.779 -0.0271 -0.1681 -0.0855
33678W        W47092   5.501   6.622  10.705 -0.0438 -0.1602 -0.1321
33679W        W47093  10.161   9.373   1.844 -0.3223 -0.1141  0.0791
33680W        W47094   3.576  14.843  11.190 -0.1032  0.0070 -0.1594
33681W        W47095   0.293  10.220  13.457  0.0566 -0.1028  0.0006
33682W        W47096  13.909  16.268   1.602 -0.1411 -0.2763  0.1470
33683W        W47097  10.994  10.360  11.317  0.2249 -0.2329 -0.1239
33684W        W47098   1.708  17.892   5.580  0.2602  0.0631 -0.1012
33685W        W47099  11.200   7.456   2.539 -0.0170 -0.0476  0.0950
33686W        W47100  10.787   9.593  14.122  0.0684  0.1668  0.0752
33687W        W47101   6.591   3.666   2.446  0.3857  0.2312  0.1108
33688W        W47102   2.476  10.229  11.254  0.1037  0.0518 -0.0704
33689W        W47103  17.919   1.303   5.747 -0.0662  0.1059 -0.3407
33690W        W47104   9.726   9.114  10.233 -0.4058  0.2996 -0.2618
33691W        W47105   4.877  11.533  15.017  0.1977  0.3074 -0.2445
33692W        W47106   3.018  15.852  10.819  0.0103 -0.0319 -0.1866
33693W        W47107  13.004   6.952   4.455  0.0286  0.1081 -0.1493
33694W        W47108   2.734   7.501   5.072 -0.0287  0.4742  0.0845
33695W        W47109   8.794   4.396   1.930 -0.1400 -0.0483  0.1395
33696W        W47110   7.678  17.662  10.447  0.1006  0.1113 -0.1412
33697W        W47111   0.320   8.804   1.151 -0.0204  0.2160  0.6791
33698W        W47112   7.997   1.818  16.596  0.4104  0.3877  0.0623
33699W        W47113   4.242   2.682  12.689  0.0657 -0.2882 -0.1568
33700W        W47114   6.952   2.045   2.902 -0.1586 -0.1396 -0.3257
33701W        W47115  11.638   3.649   0.127 -0.2551 -0.0946  0.3812
33702W        W47116  13.893   2.957  10.684 -0.0754  0.0863 -0.1462
33703W        W47117  14.439   9.800  16.688 -0.0370  0.4205  0.3573
33704W        W47118   7.124   2.454   1.980  0.4505  0.1551 -0.0675
33705W        W47119  16.478  15.528   1.556  0.0973 -0.0074  0.0928
33706W        W47120  14.980   9.844  14.486 -0.1685  0.1571 -0.1359
33707W        W47121   9.372  10.012  10.933  0.1296 -0.0169  0.2688
33708W        W47122  10.646  16.937  15.920  0.1173 -0.1385  0.1102
33709W        W47123  10.375   0.712  15.899  0.0140  0.1120  0.1911
33710W        W47124   3.486   6.567  16.166 -0.0316 -0.2190  0.1186
33711W        W47125   5.969   1.262  15.756  0.0344 -0.0216  0.2885
33712W        W47126   3.986   3.891   3.824  0.0247  0.3787  0.0731
33713W        W47127   4.266   6.948   3.887 -0.1134  0.0325 -0.1333
33714W        W47128   2.145   2.226  14.178  0.0501  0.1819  0.2386
33715W        W47129   8.732   4.549   2.766 -0.0339  0.0611 -0.0251
33716W        W47130  10.797  17.028   2.167 -0.2831  0.0052  0.1336
33717W        W47131  13.584  14.494   2.263 -0.0369  0.3522 -0.1497
33718W        W47132   9.173  15.352   5.244  0.2462 -0.1502 -0.0258
33719W        W47133  14.875  11.294  12.500 -0.2994 -0.0449  0.1015
33720W        W47134  15.986   2.154  12.425 -0.0307  0.0660  0.2639
33721W        W47135   1.090   1.820  14.492 -0.0050 -0.2361  0.0809
33722W        W47136   6.036  16.950   3.146 -0.0911 -0.0099  0.0563
33723W        W47137   0.807  15.605   5.379 -0.2534  0.0023  0.0248
33724W        W47138   5.118  12.885   1.794  0.0200  0.1434 -0.0624
33725W        W47139   8.541   3.941  11.848  0.1723  0.1953 -0.2370
33726W        W47140   8.956  16.291   4.495 -0.0460 -0.1784  0.0982
33727W        W47141  14.644   3.713  14.726 -0.1884 -0.0124  0.0698
33728W        W47142  11.064  15.709  14.621 -0.0920  0.0830  0.0383
33729W        W47143  16.236  16.456  15.564 -0.3440  0.2934  0.2009
33730W        W47144   4.495  11.473  13.599  0.0102  0.0120 -0.0742
33731W        W47145   0.070  10.579   4.288 -0.1558 -0.0858 -0.2595
33732W        W47146  13.289   6.749  13.848  0.1588 -0.1067  0.2258
33733W        W47147  16.360  11.490  16.693  0.0753  0.2247 -0.1328
33734W        W47148   9.855  13.555   4.927  0.0367 -0.1002 -0.3225
33735W        W47149  16.046   7.862   4.218  0.3975 -0.1869  0.2921
33736W        W47150   6.901   5.069  11.431 -0.0262  0.1701 -0.0582
33737W        W47151   2.862   7.683  12.602 -0.1719  0.2260  0.0308
33738W        W47152  16.228   5.640   3.487 -0.0003  0.2484 -0.0431
33739W        W47153  16.517  11.414   1.536 -0.2283  0.1949 -0.0167
33740W        W47154   0.923  16.264  10.399 -0.2514  0.1252  0.2245
33741W        W47155   7.193   1.511  11.635 -0.0178 -0.0753  0.0999
33742W        W47156   2.478   8.566  15.564  0.1779 -0.0247 -0.1505
33743W        W47157   4.091   9.174   5.827  0.0184 -0.1326  0.1763
33744W        W47158   9.887   7.364   3.699 -0.1341  0.2180 -0.0189
33745W        W47159  11.737   1.836  15.554  0.0967  0.1447 -0.3389
33746W        W47160   0.389   1.777   0.756 -0.2427 -0.0130 -0.0756
33747W        W47161   8.888  15.796   4.881  0.0928 -0.1974 -0.0187
33748W        W47162   8.867  16.283   2.563  0.1992  0.1175 -0.2729
33749W        W47163   0.831  14.364   5.509  0.1511  0.1340  0.0780
33750W        W47164   8.565   9.792   0.260  0.3338 -0.1684 -0.0427
33751W        W47165  10.045  15.587   3.982 -0.1976 -0.1246  0.0103
33752W        W47166   0.778   2.774  13.624 -0.0380 -0.0349 -0.2312
33753W        W47167   5.753   2.719  14.482 -0.3035  0.1380 -0.6132
33754W        W47168   4.984  12.874  12.760  0.1124  0.0186 -0.1032
33755W        W47169  10.450  12.970   4.702  0.0524  0.5481 -0.1997
33756W        W47170  16.967  14.767  11.390  0.0954 -0.1039  0.1173
33757W        W47171   5.425   8.715  12.915 -0.2095 -0.2079  0.0897
33758W        W47172  15.241  14.570   5.493  0.0804 -0.1218  0.1287
33759W        W47173   2.235  12.318  11.213  0.0336 -0.3468 -0.2121
33760W        W47174  12.269  15.624   4.034  0.0905 -0.0091  0.0014
33761W        W47175   6.021  11.718   5.209 -0.3099  0.0948  0.0137
33762W        W47176   6.716   9.631  11.140  0.1322 -0.1505  0.1820
33763W        W47177  14.732   9.014  15.866 -0.4672  0.1940 -0.1963
33764W        W47178  14.215   0.291   2.518 -0.1253  0.1379 -0.1228
33765W        W47179  15.650   7.620  11.245  0.1133  0.0317  0.2022
33766W        W47180  14.101   3.719   5.168 -0.0901 -0.3056 -0.1402
33767W        W47181   1.657  17.418  13.462  0.1552  0.1969  0.0043
33768W        W47182  10.287   4.102   5.127 -0.0022  0.0111  0.2656
33769W        W47183   4.521  11.335   4.069  0.1377  0.1472 -0.2870
33770W        W47184  11.372   9.122  10.553  0.1458 -0.3586  0.2771
33771W        W47185   3.408   8.441  13.156  0.0060  0.1752 -0.1207
33772W        W47186   6.024   8.560   2.700 -0.0998  0.1221 -0.2253
33773W        W47187   5.627  15.256   2.719 -0.0789 -0.0208  0.0761
33774W        W47188  11.451   0.754  10.412  0.2154  0.0301  0.0129
33775W        W47189   4.728  12.382   6.001  0.0515 -0.1186  0.2220
33776W        W47190   3.654   7.533  16.063 -0.0220 -0.1348 -0.1938
33777W        W47191   7.020   1.674  13.278  0.0928 -0.2138 -0.1257
33778W        W47192  14.507   7.878   1.480 -0.0316  0.1560 -0.0391
33779W        W47193   4.975  15.537   6.089 -0.2020 -0.0101 -0.1730
33780W        W47194   9.887   3.859   3.521  0.0182 -0.3028  0.1966
33781W        W47195  14.740  11.088  14.863 -0.2166  0.1268 -0.0012
33782W        W47196   2.959   3.000   1.536  0.1232  0.0390 -0.0446
33783W        W47197  13.868   8.687  10.216  0.2992  0.2330 -0.0579
33784W        W47198  16.764   2.191  12.747 -0.0409 -0.1317  0.3405
33785W        W47199   5.359  12.969  15.847  0.0966 -0.2173  0.1888
33786W        W47200   1.262   1.560   1.170 -0.1675  0.1688 -0.2589
33787W        W47201   6.058   7.751  14.048 -0.2252  0.0223  0.1046
33788W        W47202  14.830   3.603  16.163  0.1590  0.1390  0.0637
33789W        W47203  10.786  17.823  10.191 -0.0351  0.2905  0.1881
33790W        W47204   8.388   0.252   5.254 -0.1333  0.1823  0.0560
33791W        W47205   9.562  10.240   4.861 -0.1125 -0.3583 -0.2659
33792W        W47206   6.964  16.140   1.464 -0.1547 -0.0656  0.0960
33793W        W47207   5.188  14.597   4.175 -0.0803  0.2344 -0.1582
33794W        W47208   5.636   0.784  12.442 -0.3262  0.0059  0.1475
33795W        W47209   2.626  16.804  12.718 -0.1316  0.1070 -0.0380
33796W        W47210  16.301   2.983   3.094 -0.0031 -0.0104  0.0207
33797W        W47211   2.482  14.995  13.447 -0.1564  0.1200 -0.0075
33798W        W47212  17.032  12.468   5.955  0.1745 -0.3657  0.1877
33799W        W47213   4.825  11.191  15.807 -0.3023 -0.0145  0.1475
33800W        W47214   1.466   9.216   1.804 -0.0172  0.0225 -0.2626
33801W        W47215   8.954  11.680   0.069 -0.3350 -0.1267  0.1315
33802W        W47216   7.156   6.450  15.191 -0.2445  0.0849 -0.0231
33803W        W47217  17.592   4.931   4.063  0.0294  0.1035  0.0065
33804W        W47218  14.654  15.885   2.636  0.0747 -0.1541 -0.0908
33805W        W47219  16.680   2.092  11.919  0.1257 -0.1174  0.0208
33806W        W47220   2.489   7.056   1.068 -0.0110 -0.3270 -0.1918
33807W        W47221   4.583  13.857  12.304 -0.0298 -0.0617  0.2139
33808W        W47222  16.169   0.700   5.645 -0.1438  0.1061 -0.1689
33809W        W47223   8.044   1.206   4.847 -0.2101  0.1341 -0.2838
33810W        W47224  12.206   1.306  10.552  0.2938  0.1753 -0.0108
33811W        W47225   3.379  11.379   5.397 -0.2609  0.0437 -0.2814
33812W        W47226   8.537   7.346  14.748  0.0550 -0.2189 -0.2214
33813W        W47227  12.636   3.170   3.929  0.0376  0.5349  0.2087
33814W        W47228   9.415  11.332   2.293 -0.0164  0.2544 -0.0812
33815W        W47229  14.672   8.514   3.469 -0.1093  0.1205  0.3119
33816W        W47230   6.307  10.832  14.571 -0.3347 -0.0204 -0.2591
33817W        W47231  17.969   5.169  16.148 -0.1781  0.0882  0.0364
33818W        W47232   8.695  15.855   0.983  0.0246  0.3623 -0.0047
33819W        W47233  17.775   9.677  15.466  0.1747 -0.0146  0.0912
33820W        W47234  14.030   3.574   5.861  0.0565 -0.0930  0.3696
33821W        W47235  14.901  16.946  11.476  0.0238 -0.2186  0.0620
33822W        W47236   1.820   2.829   4.674  0.0329 -0.1265  0.0076
33823W        W47237  14.239  13.774  14.663  0.0096  0.1023  0.2163
33824W        W47238   2.373  13.047  14.317 -0.0308 -0.1319  0.1111
33825W        W47239   0.631   4.871   4.928  0.2062 -0.2574 -0.3975
33826W        W47240   0.661  13.065  15.579  0.3123 -0.1028  0.1810
33827W        W47241  17.366   9.752   0.722  0.1934  0.0140  0.1218
33828W        W47242  13.892   3.859  15.244  0.2229 -0.1334 -0.2021
33829W        W47243   2.788  13.823  14.075  0.3291  0.0356  0.0346
33830W        W47244   9.478   9.405  11.044 -0.1687  0.3107  0.0278
33831W        W47245   8.966   9.168  13.679 -0.0598  0.0925  0.2202
33832W        W47246  13.544  16.287  14.184 -0.1041  0.3078 -0.0360
33833W        W47247  12.008   2.310   0.190 -0.3358 -0.0245 -0.1664
33834W        W47248  12.939   3.612  11.958 -0.0443  0.2216 -0.0141
33835W        W47249  16.154  18.013  10.266 -0.1867 -0.1177  0.2359
33836W        W47250   6.466  10.309   0.667  0.0749 -0.0506  0.0039
33837W        W47251   2.766   7.544   2.086  0.1314 -0.0926 -0.1792
33838W        W47252   7.235  12.653  11.968  0.0571  0.0316  0.0973
33839W        W47253  17.993  14.403   2.068  0.2081  0.1538 -0.1689
33840W        W47254  15.975  16.886   1.184  0.0478  0.1810  0.2552
33841W        W47255  12.389  16.387  15.691 -0.1840 -0.0716 -0.1303
33842W        W47256   4.511   5.190  16.516  0.0803  0.2459  0.0577
33843W        W47257  15.617  13.702   0.906 -0.0482  0.2776 -0.1058
33844W        W47258  11.243  15.854  15.593  0.2158  0.0170 -0.0064
33845W        W47259  17.760   3.586  14.337 -0.1053 -0.0919  0.2133
33846W        W47260  13.683   3.084  12.154 -0.0734 -0.0250 -0.1868
33847W        W47261   7.481  15.431   6.167  0.0864 -0.3036  0.2110
33848W        W47262   8.862   1.196  14.998 -0.1072  0.2925 -0.2127
33849W        W47263  15.050  17.640   3.980  0.2324  0.0799  0.2339
33850W        W47264   7.992   2.999  16.337 -0.3993 -0.0561 -0.1905
33851W        W47265   0.418   2.321   5.535 -0.1394  0.2866 -0.1751
33852W        W47266  17.072   6.543   0.308 -0.1454  0.0834  0.1071
33853W        W47267  10.587   6.742   5.975 -0.1113 -0.0208  0.0975
33854W        W47268   3.788   9.570   1.381  0.1643 -0.3193  0.2610
33855W        W47269  14.762   3.092   0.879 -0.0817  0.0850  0.0915
33856W        W47270  18.019  15.860  15.872 -0.0604  0.0540 -0.0184
33857W        W47271  16.826   3.705   7.090 -0.1568 -0.1442 -0.0562
33858W        W47272  11.898   8.905  11.680 -0.0572  0.2073 -0.2922
33859W        W47273   5.556   2.298  11.327 -0.1409 -0.0479  0.0830
33860W        W47274   5.889  14.736  12.700 -0.0576 -0.1799  0.0088
33861W        W47275  15.707   2.740  14.251 -0.2413 -0.1322  0.1921
33862W        W47276   9.275   1.529  15.544  0.2538  0.2472  0.0692
33863W        W47277   3.671   2.712  14.279  0.2131  0.1262 -0.1079
33864W        W47278   6.867  17.931  11.906 -0.0924 -0.1751 -0.0708
33865W        W47279   1.589  10.797  13.200 -0.2947  0.0886  0.0364
33866W        W47280  10.056   3.119   1.639  0.0506  0.2986 -0.1650
33867W        W47281  16.608  11.827  11.170 -0.0662  0.2375  0.2849
33868W        W47282  11.229   7.998   1.106 -0.0356  0.1941 -0.1086
33869W        W47283   9.726   4.992  11.488 -0.3236  0.3038  0.1058
33870W        W47284   2.313   5.693  13.032  0.1450  0.0963 -0.1769
33871W        W47285  12.672   7.790   0.035  0.0522 -0.2014  0.0047
33872W        W47286  12.689   8.556   0.488 -0.1271  0.1728  0.1209
33873W        W47287  11.882  16.590  15.194 -0.1966 -0.4017 -0.2996
33874W        W47288  10.472  10.240   0.155 -0.1211  0.1821  0.2553
33875W        W47289  11.447   9.237  13.717 -0.0599  0.2133 -0.2002
33876W        W47290   8.286   2.215   2.772  0.1031  0.1578 -0.2961
33877W        W47291  12.177  16.958   5.960  0.2677  0.3661 -0.0858
33878W        W47292   9.366   0.846  15.608  0.1633 -0.1408 -0.0558
33879W        W47293   5.562  15.363   1.616 -0.0915 -0.0175  0.0415
33880W        W47294   3.658   2.720   0.202  0.1333  0.0012 -0.0522
33881W        W47295   7.787   2.774  15.845  0.0635  0.1784  0.1973
33882W        W47296   7.319   0.901   4.547  0.1265 -0.2304 -0.1991
33883W        W47297   6.469  11.238   6.480  0.1737 -0.3150  0.1417
33884W        W47298  11.870  16.629   6.520 -0.0348 -0.1032 -0.0705
33885W        W47299   3.266  15.188  12.749  0.1041 -0.2294  0.1386
33886W        W47300  17.239   2.924   3.216  0.0491 -0.0826 -0.1722
33887W        W47301   5.954  17.243   0.175  0.1165  0.0226 -0.1499
33888W        W47302   3.923   9.901  10.291 -0.1935  0.3411  0.0002
33889W        W47303  11.704  13.562   5.117  0.0889 -0.1708  0.2561
33890W        W47304   6.365   7.806  10.792 -0.0503 -0.1862 -0.2784
33891W        W47305  13.328   9.691  12.007  0.0904  0.2538 -0.2263
33892W        W47306   2.057   8.992   0.964 -0.0183  0.1802 -0.4316
33893W        W47307  11.916  15.683  13.018  0.2702 -0.0009  0.1136
33894W        W47308   2.679  12.877  12.039 -0.1426  0.2010  0.0558
33895W        W47309   1.288   9.473  10.872  0.1180 -0.0180 -0.0225
33896W        W47310   3.843  15.503  14.810  0.1674 -0.2368  0.1290
33897W        W47311  16.669   1.683  12.410  0.1465  0.0895 -0.1627
33898W        W47312   7.620  14.576   3.701 -0.0837  0.1659  0.0767
33899W        W47313  16.666  14.802  14.998 -0.0633  0.1488  0.1881
33900W        W47314   8.351  16.118   2.341  0.1111  0.0277  0.1900
33901W        W47315  12.726   5.607  13.912 -0.1281 -0.0107 -0.1252
33902W        W47316   2.454   7.735   1.144 -0.1280  0.0068 -0.1056
33903W        W47317  15.546  15.786   4.982 -0.2157 -0.0035  0.1830
33904W        W47318   9.536  12.001   0.885 -0.0306  0.1966  0.0411
33905W        W47319   3.037  15.561   0.277 -0.3782 -0.2702 -0.0390
33906W        W47320  10.651  16.394  15.965  0.1266  0.1483 -0.3212
33907W        W47321  14.273  14.197   2.088  0.2682  0.2855 -0.2281
33908W        W47322  16.578  12.999   3.182  0.2304  0.1641 -0.3344
33909W        W47323   0.816  11.133  12.654  0.0156 -0.0255 -0.0623
33910W        W47324  13.455  15.348  11.548  0.1603  0.3635  0.1565
33911W        W47325  10.747  13.025   5.086  0.0177 -0.0744 -0.0578
33912W        W47326  16.950  17.417   0.363 -0.1278 -0.0981  0.0712
33913W        W47327  15.733  16.467  14.806 -0.2532  0.0711  0.0776
33914W        W47328  16.624   2.290   4.489  0.0477 -0.2157 -0.3412
33915W        W47329   8.353  16.812  11.816 -0.1555  0.2633  0.0550
33916W        W47330  13.557   1.219   0.909 -0.0083 -0.1419  0.0290
33917W        W47331  16.033   8.670   3.721  0.1528  0.0854  0.0357
33918W        W47332   1.674  15.462  12.291 -0.0418  0.2274  0.1532
33919W        W47333   1.419  16.334   0.482  0.1984 -0.0189  0.0648
33920W        W47334  10.546   7.003   4.887  0.2983 -0.3034  0.0570
33921W        W47335   9.268   1.099   0.328 -0.0833 -0.1326  0.2060
33922W        W47336  10.670   3.076   5.616  0.4012 -0.2864 -0.0100
33923W        W47337   6.214   2.194   0.944 -0.1757  0.1571  0.3317
33924W        W47338  11.542  12.274  12.731 -0.2675  0.1608  0.0204
33925W        W47339   7.629  17.987  12.184 -0.3657 -0.0656 -0.0058
33926W        W47340   0.923  12.602  14.899  0.0240 -0.0478 -0.2396
33927W        W47341  17.264   9.189  14.424  0.0169  0.1024  0.0107
33928W        W47342  12.001  10.096   3.675  0.0952  0.1569 -0.1650
33929W        W47343   3.055  11.689  15.711  0.0075  0.2025 -0.1053
33930W        W47344  15.093   8.739   1.439 -0.0587 -0.2730 -0.0203
33931W        W47345  14.581   7.155  14.077 -0.0851  0.3497 -0.0456
33932W        W47346  15.511   1.603  16.607  0.1285  0.1759  0.2096
33933W        W47347   9.859  13.650  16.003 -0.1140  0.0068 -0.6808
33934W        W47348   6.410   9.698   1.272 -0.1614 -0.0395  0.2514
33935W        W47349   2.119  17.289   1.843  0.0359 -0.1526 -0.1483
33936W        W47350  15.737  11.890   0.999  0.1609  0.0884  0.2567
33937W        W47351   8.778   4.134   0.259  0.0524  0.1469  0.2040
33938W        W47352   4.296  12.308  16.215 -0.0983 -0.1344  0.0582
33939W        W47353  17.438   1.358  16.365 -0.0114  0.1356 -0.2155
33940W        W47354   6.920  12.353  12.204 -0.0720 -0.2737 -0.3666
33941W        W47355   7.570  13.683  15.054  0.1759  0.1328  0.0693
33942W        W47356  12.338  12.367  11.214 -0.2081  0.0267 -0.3005
33943W        W47357  17.850   5.503   1.646 -0.1593  0.5208 -0.2966
33944W        W47358   2.985   4.137  13.184  0.1525 -0.0357 -0.0118
33945W        W47359   7.391   4.010   2.131  0.1621  0.0166 -0.1668
33946W        W47360   4.039  13.184  12.225 -0.2516 -0.1712  0.0074
33947W        W47361  13.487   4.325  14.821 -0.1647  0.1521 -0.0187
33948W        W47362   1.505   7.040  16.116  0.2219  0.1416 -0.0360
33949W        W47363   3.413   4.028   4.695 -0.2420  0.1320  0.1671
33950W        W47364  15.127   9.166   1.242  0.1306  0.1452 -0.3061
33951W        W47365   1.671   8.132   4.323  0.0668  0.0696 -0.1167
33952W        W47366  16.406   5.499  12.546  0.2340  0.1357  0.0516
33953W        W47367  13.143   0.538  11.870  0.0221  0.0071 -0.0119
33954W        W47368  11.385   8.972   0.205 -0.0099 -0.0327  0.2989
33955W        W47369  12.055  12.337  14.501 -0.0695  0.2177  0.0697
33956W        W47370  17.844   4.029   0.128  0.0710 -0.2560 -0.1116
33957W        W47371   1.405   0.117   0.314 -0.1636 -0.1491 -0.0124
33958W        W47372  13.623   4.095   0.894 -0.0708 -0.2891  0.0518
33959W        W47373   3.355   9.222  10.879  0.0349 -0.0908  0.1637
33960W        W47374  12.414   5.110   3.431  0.2466 -0.1837  0.1345
33961W        W47375  15.312   8.926  11.734  0.2543  0.0845 -0.3389
33962W        W47376  11.204  15.814   4.635  0.2558  0.1430  0.2721
33963W        W47377   1.054   4.059   4.565 -0.2853 -0.0981 -0.0663
33964W        W47378   6.613   6.720  14.419  0.0994  0.1375  0.0147
33965W        W47379  11.626   4.668   3.500 -0.0142 -0.0247 -0.0758
33966W        W47380   8.011  11.702   2.342 -0.1753  0.1415 -0.0276
33967W        W47381  11.574  10.939  13.723  0.2222  0.0397 -0.2114
33968W        W47382   2.458   2.980  16.045  0.2204 -0.2431 -0.0100
33969W        W47383   8.659   2.101  14.970  0.2170  0.1077 -0.0639
33970W        W47384  13.905  14.499   1.896 -0.3276  0.1462  0.0352
33971W        W47385   6.910   2.643   3.778  0.2833  0.2927  0.0414
33972W        W47386   8.109   3.671  11.587  0.0386 -0.1474 -0.4894
33973W        W47387  10.748   5.724   1.075 -0.1633 -0.1401 -0.1434
33974W        W47388  13.426   5.990  15.819  0.2110  0.2165 -0.1568
33975W        W47389  12.287   3.103   1.518  0.0416  0.0661  0.0530
33976W        W47390   0.587  10.291  12.542 -0.1417 -0.2032 -0.1157
33977W        W47391  13.427  12.644   3.480 -0.1144  0.2141 -0.2371
33978W        W47392   1.844   1.939   0.332 -0.1289  0.1922 -0.0440
33979W        W47393   3.408   4.699  14.755  0.1453 -0.1970 -0.1141
33980W        W47394  16.378   4.361   2.658  0.1324  0.2717 -0.0964
33981W        W47395   2.667  11.585  16.027  0.1584  0.0693 -0.1857
33982W        W47396   7.823  10.576   6.465 -0.1178 -0.1767 -0.0470
33983W        W47397   1.366  16.114   1.823  0.0862 -0.1984  0.0938
33984W        W47398  10.199  18.041  14.170  0.0589 -0.2910 -0.2321
33985W        W47399   4.711  17.183   4.580 -0.1596  0.0449 -0.1382
33986W        W47400   3.751  17.460  16.551 -0.0952 -0.0232  0.1125
33987W        W47401  16.464   0.450   3.961 -0.1808 -0.0821  0.0752
33988W        W47402  10.728   2.761  12.040 -0.0791  0.1292 -0.0700
33989W        W47403  12.555   2.554  11.147 -0.3184 -0.0030 -0.2113
33990W        W47404   5.115  11.593   5.928 -0.1608  0.0189 -0.3988
33991W        W47405  11.908  14.556  13.848 -0.3056 -0.2461 -0.1138
33992W        W47406  10.979   6.320  13.198  0.3425  0.1000 -0.0839
33993W        W47407  14.147   3.484  14.920 -0.0039 -0.1320  0.2259
33994W        W47408   9.390   4.748   4.691 -0.0316 -0.3492 -0.2044
33995W        W47409   5.255   2.531   5.726 -0.3027  0.1212  0.4059
33996W        W47410  16.291   8.586  15.828 -0.0476  0.0556 -0.1932
33997W        W47411   6.026   0.172  15.035  0.0238 -0.1082  0.0940
33998W        W47412  12.628   4.270  14.545  0.2647  0.0164 -0.1449
33999W        W47413   4.347  11.536  16.223 -0.2049 -0.1498  0.0732
34000W        W47414  10.236  10.641  15.619  0.0248  0.0593  0.1601
34001W        W47415  11.978  17.244  12.415 -0.0187  0.5788 -0.0165
34002W        W47416   9.913  16.467   1.481  0.1501 -0.4215 -0.0511
34003W        W47417   3.869  12.743   2.608 -0.0115 -0.1695 -0.2533
34004W        W47418   4.389  10.011  15.290  0.1839 -0.2245  0.1059
34005W        W47419   2.523   3.631   2.265 -0.1234  0.4459 -0.2214
34006W        W47420  15.455   3.125  15.133 -0.0189 -0.0401  0.3223
34007W        W47421   5.846  13.273  12.270 -0.1695 -0.0216  0.0104
34008W        W47422  10.669  12.672   0.990 -0.1894  0.0170  0.0526
34009W        W47423   3.850  14.110   1.798 -0.2470  0.1207  0.2297
34010W        W47424  16.054  15.431   2.543  0.1625 -0.0482 -0.1270
34011W        W47425  16.778  11.119  14.406 -0.0730 -0.1249 -0.0505
34012W        W47426  17.295   5.716   1.574  0.1043 -0.1278 -0.2271
34013W        W47427   9.412   2.997   4.286 -0.0737 -0.0787  0.1604
34014W        W47428  12.307   9.468  12.012  0.0992  0.1484 -0.0572
34015W        W47429  10.469  16.857  12.534  0.1050 -0.1704  0.1546
34016W        W47430   8.138   2.783  10.349 -0.1490  0.1834 -0.1401
34017W        W47431   2.587   7.023  14.785 -0.0405 -0.0047  0.1421
34018W        W47432   3.884   5.913   2.275  0.1020  0.2268 -0.0352
34019W        W47433   3.557  14.035  14.249  0.0322 -0.2835  0.0661
34020W        W47434   2.959  14.130  13.176  0.2716 -0.1041  0.2829
34021W        W47435  14.940  17.025  15.803  0.1389  0.3742 -0.0135
34022W        W47436  16.626  15.267   2.340  0.2381 -0.2242  0.0230
34023W        W47437  13.043   4.523  15.509  0.1173  0.0378  0.1143
34024W        W47438   7.436  12.335  15.562  0.0039  0.1310  0.0766
34025W        W47439  16.850  15.137   4.903 -0.2352  0.0403 -0.1009
34026W        W47440   5.899  10.935   4.223  0.2490  0.1076  0.0611
34027W        W47441   4.221   6.847  13.510  0.0225 -0.0552 -0.4952
34028W        W47442  17.226   3.927  12.251 -0.1664 -0.1838 -0.1047
34029W        W47443   9.831   0.945   1.583 -0.2124 -0.0669 -0.2832
34030W        W47444  15.415  17.748   2.093  0.2562  0.0656 -0.0278
34031W        W47445   3.263   0.865   0.690 -0.1844  0.2918 -0.4419
34032W        W47446  12.144  13.168   1.310 -0.0055 -0.1423 -0.0915
34033W        W47447   3.461  12.720  16.488  0.1262 -0.1596 -0.0940
34034W        W47448   1.665   2.434   6.041 -0.1445 -0.0176 -0.1624
34035W        W47449   0.402  13.028   2.477 -0.0872 -0.0809  0.0309
34036W        W47450  15.542  13.480  16.220  0.0837  0.0761  0.1509
34037W        W47451   8.540  12.172  12.508 -0.0658 -0.2186  0.1588
34038W        W47452   2.499  10.578  12.251 -0.3024  0.1251  0.1065
34039W        W47453   8.990  10.843   3.715 -0.0255  0.0555  0.0808
34040W        W47454  11.633   5.749  12.345 -0.0394  0.4486 -0.0470
34041W        W47455  13.890  17.764   0.625  0.1638  0.0221  0.0196
34042W        W47456   2.609  12.522  13.551  0.0964  0.2184 -0.1377
34043W        W47457   9.865  16.877  15.165  0.0230 -0.1079  0.2420
34044W        W47458   5.966   5.669  12.356 -0.2312 -0.0556  0.0190
34045W        W47459  11.195  12.788  13.919  0.3064  0.0037  0.1331
34046W        W47460  10.976  17.875   0.327 -0.0873 -0.0921 -0.2243
34047W        W47461   8.348  17.517   3.874 -0.2432  0.1407  0.0828
34048W        W47462   0.551  12.107  11.965  0.3056 -0.0729  0.2537
34049W        W47463   1.371   2.893   3.692 -0.0302 -0.0716  0.2030
34050W        W47464   1.207  16.846  11.628 -0.2433  0.1698  0.1921
34051W        W47465   6.341  12.416  11.522 -0.3045  0.2104  0.2785
34052W        W47466  10.488   2.076  12.068 -0.0938 -0.2047 -0.0940
34053W        W47467  15.237   8.904  11.178  0.2165  0.0509 -0.0120
34054W        W47468  15.362  14.502   4.414 -0.1123 -0.0535 -0.0805
34055W        W47469  17.927  12.438   2.743  0.0887  0.0865 -0.1301
34056W        W47470  16.790  13.172  13.014 -0.1537 -0.0774 -0.3401
34057W        W47471  10.233  13.765  16.394  0.1662 -0.3683  0.1236
34058W        W47472   7.537   2.991  14.391  0.1223 -0.2320  0.0385
34059W        W47473  14.176   2.024  10.737 -0.1263 -0.1404  0.0268
34060W        W47474  14.074  15.688   0.380 -0.1154 -0.1254 -0.0074
34061W        W47475   4.208  13.206  13.096 -0.3922 -0.1301  0.2262
34062W        W47476  12.138   1.011  10.980  0.0406  0.3773 -0.2381
34063W        W47477  17.873   8.930  13.676  0.0555 -0.1159  0.0718
34064W        W47478   7.134   4.990   1.368 -0.2381 -0.1954  0.0367
34065W        W47479  11.239   7.258   2.108  0.0135 -0.0187  0.0773
34066W        W47480  14.452   4.091  11.389 -0.1447 -0.0881 -0.2748
34067W        W47481   3.426   9.987   2.968 -0.0268  0.0760  0.0573
34068W        W47482   9.758   0.995   4.808  0.1179  0.3060  0.2967
34069W        W47483  17.582  16.354   5.630 -0.0989  0.0746 -0.3542
34070W        W47484   0.667   9.421  11.342  0.2240  0.0809 -0.2052
34071W        W47485   1.338   7.635  13.213 -0.0758  0.1470  0.0525
34072W        W47486  14.689   7.658  15.500 -0.0231  0.0759  0.0517
34073W        W47487   6.807   0.705  13.119  0.0102  0.1516 -0.1171
34074W        W47488   2.883   7.171   4.521  0.1226  0.2311  0.3462
34075W        W47489   1.874   5.711  13.251 -0.2872 -0.1727  0.1381
34076W        W47490   0.129   4.731  15.853 -0.2628 -0.0672 -0.0118
34077W        W47491  13.958  12.162  12.545 -0.0778 -0.0410 -0.0712
34078W        W47492   4.940  13.157  16.030  0.1699  0.3506 -0.0279
34079W        W47493   1.419  15.616   3.955  0.0148 -0.3089 -0.0571
34080W        W47494   5.433  15.665   2.865 -0.1123 -0.0261 -0.1059
34081W        W47495  16.654   7.134   2.786  0.2599 -0.2195 -0.0136
34082W        W47496   4.319  10.517   5.712 -0.1686 -0.2943  0.3498
34083W        W47497   8.050   2.568   1.702  0.0298  0.2174 -0.1840
34084W        W47498  14.385   9.765   3.967  0.0061  0.2655  0.1952
34085W        W47499  17.256   2.759  15.353 -0.0277  0.0683  0.0222
34086W        W47500   1.258  12.421   2.919 -0.1859  0.0570 -0.1829
34087W        W47501   7.246   5.151  13.702  0.1854  0.1419 -0.0984
34088W        W47502   7.521  14.834  14.382  0.0566 -0.4299 -0.0411
34089W        W47503   1.519   0.412  13.281 -0.0521 -0.0353 -0.0039
34090W        W47504   9.368  10.782  15.586 -0.1375  0.1432 -0.1542
34091W        W47505   5.137   3.888   0.965 -0.2666  0.1133  0.1206
34092W        W47506  15.743  10.285   2.223  0.3238  0.0057  0.0111
34093W        W47507  14.511   1.919   5.432  0.3131 -0.1105 -0.0927
34094W        W47508   9.580   1.979  14.385 -0.0195  0.0615  0.2439
34095W        W47509  13.690   6.500   4.320  0.2641 -0.1216  0.5329
34096W        W47510   5.813  17.915   5.829  0.0020  0.1058 -0.0612
34097W        W47511  13.255  10.753   2.314  0.3602 -0.0318  0.0459
34098W        W47512   1.119  13.437  14.263  0.1234 -0.0038  0.0857
34099W        W47513   6.221   0.758   4.306 -0.0160  0.2065 -0.1606
34100W        W47514  16.871  12.719  15.966 -0.1006 -0.1946  0.0257
34101W        W47515   8.438   5.198   1.009 -0.1720  0.0624 -0.1648
34102W        W47516   7.130   3.416  10.999  0.0624 -0.2956 -0.0742
34103W        W47517  16.582   0.335  13.835 -0.1017  0.0805 -0.1085
34104W        W47518  12.051   4.013   0.183 -0.1502  0.2021 -0.1194
34105W        W47519   1.359   6.340  13.777  0.3170  0.2555 -0.0445
34106W        W47520   7.587   5.806   1.782 -0.1644  0.2724 -0.1883
34107W        W47521  10.396  12.561  16.618 -0.1917 -0.4282  0.3440
34108W        W47522  12.090   5.029   0.639  0.0203 -0.1774 -0.0803
34109W        W47523  17.130  10.826  13.442  0.0037  0.1160  0.4164
34110W        W47524  11.716  15.881  12.140  0.0535 -0.2500  0.0622
34111W        W47525  15.626   0.796  12.675 -0.0504  0.0783 -0.0656
34112W        W47526   6.761   6.074  12.596 -0.1908 -0.3713 -0.3458
34113W        W47527   7.287   3.935   1.287  0.0564 -0.2309  0.0815
34114W        W47528  11.015  15.476  11.548 -0.1423  0.1136  0.0234
34115W        W47529  12.565   8.470  16.190  0.0623 -0.0711  0.0162
34116W        W47530  10.033  12.509   0.367 -0.2394 -0.1281 -0.1353
34117W        W47531   2.818   5.486   1.802  0.2181  0.1052 -0.0828
34118W        W47532  10.764   4.824   5.405  0.1500  0.0085  0.0234
34119W        W47533   9.979  13.934   3.897  0.1333 -0.3251  0.1846
34120W        W47534   3.517  10.962   1.902  0.0299  0.1005  0.1262
34121W        W47535  16.790  13.287  16.614  0.2298  0.2425 -0.1939
34122W        W47536   2.874   3.527  10.800 -0.2779 -0.0778 -0.1457
34123W        W47537  16.635  10.318  11.371  0.1527 -0.1941  0.2879
34124W        W47538  14.168   2.856   6.800  0.0983 -0.3229  0.1273
34125W        W47539  10.109  11.745   2.838  0.1655 -0.5351 -0.1497
34126W        W47540  15.509  11.538  10.931 -0.2062  0.1788 -0.3928
34127W        W47541   5.232  13.342  12.868 -0.2659  0.0474  0.2247
34128W        W47542   8.113   7.963  10.669  0.0972  0.1879  0.2630
34129W        W47543   7.419   7.438  12.125  0.0812  0.0539  0.1669
34130W        W47544   3.115   1.626   2.183  0.1659  0.1406  0.0503
34131W        W47545   9.185  14.690   1.861  0.0258 -0.0291  0.2053
34132W        W47546   8.211   6.515  11.188 -0.2033  0.1332  0.2926
34133W        W47547   5.691   1.394  12.400  0.0154 -0.0026  0.0460
34134W        W47548  18.046   2.481   3.914  0.3180 -0.0345  0.0245
34135W        W47549  13.952   6.401   3.222  0.0241 -0.2065 -0.2254
34136W        W47550   0.173   7.257   2.612  0.0108  0.0255 -0.0962
34137W        W47551  16.674   8.281  16.521 -0.2790 -0.1284 -0.2919
34138W        W47552   3.997   7.878   4.156  0.0728  0.1042  0.0667
34139W        W47553  17.335   5.510   3.164 -0.0434 -0.1255 -0.1115
34140W        W47554  11.824  12.193   4.372 -0.3239 -0.0364  0.2137
34141W        W47555  18.033   8.375  14.821  0.2588 -0.0971 -0.1539
34142W        W47556   0.192  13.047   4.851 -0.2550 -0.0009  0.0898
34143W        W47557   1.830   8.634  13.995  0.0001  0.0442 -0.2047
34144W        W47558   5.331   3.218   2.228  0.0547 -0.0358 -0.1801
34145W        W47559  13.973   3.285   0.474 -0.0541 -0.1316 -0.1416
34146W        W47560   4.962   2.260  14.669 -0.0835 -0.1164 -0.2310
34147W        W47561  10.276   6.597  12.516  0.1002 -0.0463 -0.1559
34148W        W47562   0.944  16.402   5.893 -0.1239  0.0750  0.3101
34149W        W47563  12.043  13.052   5.773  0.0020 -0.1082  0.1033
34150W        W47564   1.463  13.255   0.449 -0.0767 -0.3421  0.2459
34151W        W47565  15.691  13.970  11.532 -0.2090 -0.0290  0.1479
34152W        W47566  17.978   5.518   0.183  0.2404  0.0393 -0.2106
34153W        W47567  14.451   4.063  13.417 -0.2772  0.1704  0.2032
34154W        W47568  15.057   8.162   1.359 -0.0444  0.2415 -0.2228
34155W        W47569   5.914  12.694  11.444 -0.1596 -0.1094 -0.1563
34156W        W47570   7.747   8.484   1.228  0.2816 -0.0599  0.1581
34157W        W47571   9.599  11.873   0.156  0.1629 -0.3142 -0.0320
34158W        W47572   3.369   9.499   1.034  0.0213 -0.1579  0.1531
34159W        W47573   6.177   2.803   0.086 -0.3301 -0.0816 -0.1549
34160W        W47574   5.851   4.399   0.932  0.4726  0.0384 -0.0105
34161W        W47575  13.098   9.070   1.959 -0.1104 -0.4651  0.0979
34162W        W47576   7.626  10.516  10.571  0.2380  0.0402 -0.2233
34163W        W47577  13.857  11.619  12.311 -0.2010  0.2663 -0.2085
34164W        W47578  12.480  10.255  16.126  0.2229 -0.2175  0.1227
34165W        W47579   5.807  13.973  16.631 -0.2800  0.1904 -0.1425
34166W        W47580   9.289   5.948  12.348  0.2036 -0.0425  0.1459
34167W        W47581   9.697   2.446  14.613  0.0677 -0.2342 -0.0215
34168W        W47582  11.540   7.676   2.250 -0.0164  0.2309 -0.0223
34169W        W47583   2.286   2.580  13.754 -0.4177  0.0309 -0.1968
34170W        W47584   9.504  11.176  15.858  0.1066 -0.1253  0.0295
34171W        W47585  10.985  11.729  12.562 -0.0808  0.0955  0.0168
34172W        W47586   3.309   6.696  12.216 -0.0193  0.1495 -0.0104
34173W        W47587   4.075  16.647  12.879 -0.1083 -0.1650  0.0165
34174W        W47588  11.675   4.810   5.509 -0.1001 -0.0294  0.1944
34175W        W47589   1.253   2.795  12.608  0.0303 -0.0831 -0.0312
34176W        W47590   5.199   8.044  15.031  0.0148  0.0324  0.1723
34177W        W47591   1.489  11.441   0.887  0.2232  0.0495  0.1761
34178W        W47592  13.237   9.773  11.147  0.2574  0.1287  0.1406
34179W        W47593   3.784   5.073   0.431  0.5005  0.3777 -0.0754
34180W        W47594   2.033  14.012   5.122  0.0854  0.1998 -0.1383
34181W        W47595   5.934   7.578   0.862 -0.4922  0.1774 -0.0232
34182W        W47596  14.671  10.336  15.327  0.1953  0.1900 -0.2339
34183W        W47597   0.877  10.073  10.258 -0.1383  0.0473 -0.2274
34184W        W47598  16.618  10.194  12.218 -0.1361  0.1176  0.1168
34185W        W47599  14.018  18.016  16.184 -0.1680 -0.1993 -0.1788
34186W        W47600   6.876   0.337  15.219 -0.1988  0.0230 -0.2040
34187W        W47601   8.932  15.002  15.121  0.3184  0.0973 -0.1685
34188W        W47602   6.504   3.245   5.619 -0.2503  0.2416  0.1414
34189W        W47603  16.310  12.140   5.213  0.0673  0.2734 -0.0217
34190W        W47604   1.337  13.197   3.338 -0.2611 -0.0101  0.1983
34191W        W47605   4.996   9.259   0.001 -0.0080  0.3217  0.2007
34192W        W47606   5.784   3.425  13.451  0.1131 -0.0442 -0.2858
34193W        W47607   7.938  17.384  13.378  0.1454  0.0390 -0.2760
34194W        W47608  14.965  17.188   4.437 -0.0845 -0.3343 -0.1946
34195W        W47609  14.579   2.235  11.901 -0.1834  0.1130  0.1268
34196W        W47610  10.196   3.593   3.172  0.2856  0.0223 -0.2156
34197W        W47611  10.567  17.584  12.064 -0.0605 -0.1021 -0.1622
34198W        W47612  17.020   9.538   1.027 -0.2665 -0.5770  0.0345
34199W        W47613  17.599   8.567   0.140 -0.0574  0.2324 -0.2413
34200W        W47614   7.860   3.350   1.200 -0.2905  0.0494  0.1389
34201W        W47615  16.234   2.420  16.090 -0.1408 -0.2185  0.0131
34202W        W47616  13.929   0.443  11.137 -0.0658 -0.0876 -0.0824
34203W        W47617   9.821   6.153  12.441  0.0766 -0.1980  0.0266
34204W        W47618   0.211   5.549  13.415  0.1783  0.0296 -0.4405
34205W        W47619  15.612  16.167   5.806  0.0181  0.1530  0.0733
34206W        W47620  17.331   1.397   1.907  0.3245 -0.0712 -0.0682
34207W        W47621   2.386   5.804  15.169  0.0983  0.1211  0.1801
34208W        W47622   8.580  10.658   1.574  0.0072 -0.0711  0.1170
34209W        W47623  10.380  17.246   3.609  0.0621 -0.0137 -0.0635
34210W        W47624   9.316  13.092   4.305 -0.0957  0.0466 -0.0667
34211W        W47625  11.699  11.962   0.649 -0.0188  0.1830 -0.1791
34212W        W47626   0.516  10.873  14.141 -0.0141  0.0689  0.1324
34213W        W47627   3.413   3.724  14.451 -0.0207 -0.1057  0.3314
34214W        W47628  16.978   0.597  11.038  0.0019  0.1046  0.0133
34215W        W47629   4.269  11.722   6.153 -0.0450  0.1284 -0.0408
34216W        W47630   5.484   1.865  11.540 -0.2662  0.2281 -0.0023
34217W        W47631   9.038   3.425   3.650  0.1275 -0.0653  0.0711
34218W        W47632   6.940  16.727   3.655  0.0360 -0.1362  0.2997
34219W        W47633   2.049   4.201   1.157 -0.0588  0.1030 -0.0308
34220W        W47634  15.488   6.872  13.161  0.1259 -0.0556  0.2903
34221W        W47635  14.997   0.766  11.835 -0.2165 -0.0291  0.0143
34222W        W47636  10.513   5.596  12.238 -0.2753 -0.1775 -0.1020
34223W        W47637   4.065   4.080   6.063  0.2287 -0.0639 -0.0916
34224W        W47638   7.242   5.792   3.821  0.0848  0.3708 -0.0406
34225W        W47639   0.133   8.595   2.830  0.0856  0.0590 -0.1094
34226W        W47640   9.587  13.409  15.537  0.1252 -0.0240 -0.1533
34227W        W47641  13.688  10.358   3.540 -0.1723  0.0300 -0.3925
34228W        W47642   0.912   6.947  14.259  0.2875 -0.0935 -0.0689
34229W        W47643  11.421  11.254   3.517 -0.0563  0.1060 -0.0641
34230W        W47644  16.316   2.632  15.619  0.4152  0.1988 -0.0196
34231W        W47645   9.466  12.881  10.521 -0.1518 -0.2584 -0.0163
34232W        W47646  13.896   1.738   1.486  0.1179  0.0520  0.0923
34233W        W47647   5.842  15.211  12.962 -0.2067  0.1436  0.4555
34234W        W47648  13.293   8.670  14.316 -0.5271 -0.0997 -0.0255
34235W        W47649   1.787   7.414  14.437  0.2254 -0.0933  0.1347
34236W        W47650   2.073  18.013   4.466  0.0557  0.0193 -0.1125
34237W        W47651  17.656   6.432   2.438 -0.1091 -0.1343  0.2367
34238W        W47652  16.341  15.105   1.163 -0.0453  0.0476  0.0729
34239W        W47653  11.608   3.546  11.720 -0.0661 -0.1211  0.0840
34240W        W47654   5.364   9.578  12.921  0.0695 -0.1583  0.1788
34241W        W47655  15.909   4.466  13.822 -0.0726  0.0715  0.1345
34242W        W47656  10.942  16.088  10.839  0.0611  0.0221 -0.1196
34243W        W47657  12.320  11.304   5.491  0.0170 -0.0958  0.4548
34244W        W47658   7.884  17.903  12.677  0.0741  0.0011 -0.0018
34245W        W47659  10.266  10.571  14.039 -0.0385  0.3070  0.0704
34246W        W47660  11.849  15.302  10.431 -0.2331  0.1489 -0.1427
34247W        W47661  13.223  11.282   1.875  0.2709 -0.1111 -0.2007
34248W        W47662   3.318   8.996  16.266  0.0189 -0.3266 -0.0408
34249W        W47663  16.916  14.706   0.468 -0.1265  0.1040  0.1543
34250W        W47664  11.682  11.278  15.992  0.2511  0.5185  0.2611
34251W        W47665  15.764  10.510  15.446  0.0038 -0.1549 -0.1257
34252W        W47666   9.572   0.646  14.270  0.1867  0.2701  0.2859
34253W        W47667   2.729  16.004  10.377  0.0454  0.0523  0.0490
34254W        W47668  17.161   9.289  16.424 -0.1539  0.1688  0.0415
34255W        W47669   9.932   7.516   0.580 -0.0790  0.0799  0.1522
34256W        W47670   9.135  12.100   4.838 -0.2669 -0.0066 -0.1754
34257W        W47671  11.226   1.331  11.212 -0.0783 -0.0523  0.1660
34258W        W47672  13.361   1.355   2.979 -0.0083  0.0384 -0.3233
34259W        W47673  13.617  12.822  10.793  0.0907 -0.1885 -0.0220
34260W        W47674  10.120   8.654   4.375  0.2290  0.2646  0.1959
34261W        W47675  12.335  14.194  15.475  0.2623  0.1367  0.0869
34262W        W47676   2.835  12.988  13.469 -0.0941 -0.1244  0.2694
34263W        W47677  12.438  14.066  12.401  0.0762  0.1386 -0.1745
34264W        W47678  10.409   8.056  11.671 -0.0757  0.0403 -0.1620
34265W        W47679   1.903   7.812  14.711  0.0546  0.0216  0.0151
34266W        W47680   2.708  12.668  11.493 -0.0514  0.2295 -0.0208
34267W        W47681   2.850  14.368  15.151 -0.2021  0.1366 -0.3178
34268W        W47682  10.770   8.882  13.604  0.2372  0.1242 -0.0529
34269W        W47683   4.220  16.378   2.148  0.1569  0.0350  0.3696
34270W        W47684   5.134  10.501  13.582 -0.2025 -0.0422  0.1827
34271W        W47685   0.578   7.705  12.671 -0.1131  0.0070 -0.2312
34272W        W47686   1.245  11.482   4.676 -0.0414 -0.0056  0.4561
34273W        W47687   8.597   3.713   1.219  0.0281 -0.0581 -0.1549
34274W        W47688  15.646  17.132   3.402 -0.1305  0.2706  0.0614
34275W        W47689  12.932  11.849  10.949  0.0904 -0.0380 -0.1279
34276W        W47690  12.329  12.297   5.358 -0.0879 -0.1924 -0.1159
34277W        W47691   8.314  14.652  14.473 -0.4029  0.0159  0.0223
34278W        W47692  12.945   2.465  11.452 -0.0399  0.0946  0.4163
34279W        W47693   4.021  12.994   1.969  0.0268  0.1429 -0.0962
34280W        W47694   0.389   7.396  14.673  0.0188  0.2186  0.0433
34281W        W47695   5.453   2.926  16.321 -0.3816  0.2978 -0.1529
34282W        W47696   5.783  17.023   3.635  0.0984 -0.1239 -0.4100
34283W        W47697   1.924   8.729   3.761 -0.4155 -0.0146 -0.4070
34284W        W47698  17.739   1.661   6.072 -0.1312  0.1050 -0.2964
34285W        W47699   1.163  16.703   5.498  0.1266 -0.1741 -0.0972
34286W        W47700  16.496   6.476   2.245  0.0332  0.1883  0.0502
34287W        W47701   5.209   9.992  12.712 -0.0284 -0.0955 -0.0984
34288W        W47702  16.048   5.468  11.483  0.0700  0.1743  0.0036
34289W        W47703  17.119  12.361   5.464 -0.1321  0.3004 -0.1610
34290W        W47704   4.349   4.916  15.890  0.0420 -0.3211 -0.0274
34291W        W47705  17.685   6.333  15.759  0.3621  0.1140  0.0454
34292W        W47706   0.651   5.096  15.051  0.1418 -0.1365 -0.1642
34293W        W47707   9.953   7.123   2.660 -0.0309 -0.0641  0.0984
34294W        W47708   4.758   7.964  14.822  0.0027 -0.0337  0.1228
34295W        W47709   7.515   9.454  11.964 -0.1924 -0.0587  0.0686
34296W        W47710  11.227   5.911  13.536 -0.0303 -0.0370  0.1074
34297W        W47711   8.072   5.454   4.968 -0.1431  0.0147 -0.1613
34298W        W47712   5.502  11.501  10.561 -0.1092  0.1091 -0.5185
34299W        W47713   9.227   4.095   3.541 -0.1594  0.2312  0.0458
34300W        W47714   5.445  15.481   6.430  0.0202 -0.4385  0.4163
34301W        W47715  12.844  12.053   5.301  0.1249 -0.3988  0.1820
34302W        W47716   4.533   3.589   3.273  0.1288  0.0535 -0.0944
34303W        W47717  15.503   8.442  14.348 -0.0256  0.0404  0.1535
34304W        W47718  15.336  16.197  13.613  0.0914  0.0043 -0.1451
34305W        W47719  10.769  17.072   4.908  0.0145 -0.0074  0.1448
34306W        W47720  15.108   9.235  14.055 -0.1868  0.0899 -0.0474
34307W        W47721   2.684   6.621   3.489 -0.0721  0.1220  0.2356
34308W        W47722  16.352   5.154  14.574  0.1964 -0.0561 -0.0727
34309W        W47723   3.747  13.623  10.723 -0.2615 -0.2844  0.1852
34310W        W47724  17.763   4.961   4.708 -0.2287  0.0332  0.0646
34311W        W47725   1.963   0.782  12.448 -0.3123 -0.2807  0.0441
34312W        W47726  14.016  10.742   1.822 -0.1793  0.1814  0.0473
34313W        W47727  16.270  14.965   2.320  0.0669 -0.0440  0.2060
34314W        W47728   6.067  16.723   1.416 -0.0850 -0.1549  0.0659
34315W        W47729  16.527   7.824   0.117  0.1166 -0.1121 -0.0966
34316W        W47730   6.979  10.393  14.487 -0.1023 -0.1341 -0.1259
34317W        W47731   1.595  17.484   1.766 -0.1514  0.1676  0.0773
34318W        W47732  13.152   6.936  14.295 -0.1715 -0.3249 -0.0715
34319W        W47733   0.831  11.032   4.581  0.1142  0.1574 -0.1651
34320W        W47734   6.866   5.629  13.870  0.0748 -0.0576 -0.1522
34321W        W47735   0.885   6.145   5.673  0.3522  0.0927  0.1208
34322W        W47736   6.711   9.576   0.701  0.1844 -0.0647  0.1786
34323W        W47737   7.917  15.516   2.545  0.0456 -0.0676 -0.0641
34324W        W47738   1.115  10.884   3.012 -0.1312 -0.2043  0.1233
34325W        W47739   0.129   9.824  10.780 -0.0924 -0.0751  0.2369
34326W        W47740  17.582   8.967  10.824 -0.1789  0.2102 -0.1027
34327W        W47741  14.370   2.876   5.076 -0.1279  0.1737  0.2078
34328W        W47742  16.824   8.801   0.324 -0.0194 -0.1547  0.0015
34329W        W47743  15.282  14.946  14.066  0.0747  0.0137 -0.0478
34330W        W47744   7.622   7.278   1.556 -0.2405 -0.1368  0.0408
34331W        W47745  13.650  12.065  12.109 -0.0802  0.2395 -0.3731
34332W        W47746  15.897   6.891   3.833  0.1471  0.0269  0.0862
34333W        W47747  16.165   8.827  12.080 -0.0236  0.5100  0.1059
34334W        W47748   5.282  17.484   5.697 -0.2796  0.2678 -0.0793
34335W        W47749   6.414  17.951  16.145 -0.4617  0.2682 -0.2407
34336W        W47750  12.764  12.288  10.968  0.1375 -0.1441  0.0376
34337W        W47751  15.203  14.829   2.796 -0.0616 -0.2391 -0.1059
34338W        W47752   5.726   7.711   4.762 -0.0414 -0.0414  0.3296
34339W        W47753  11.749  12.166   2.788 -0.1209 -0.1324 -0.1072
34340W        W47754   3.774   4.065   2.174 -0.2732 -0.1378  0.0755
34341W        W47755   5.528   0.144  15.118  0.3224  0.2285 -0.0081
34342W        W47756   0.453  16.877   2.493 -0.3277  0.1314 -0.3461
34343W        W47757   8.320  18.005   4.827  0.0069 -0.1643  0.2743
34344W        W47758   2.008   2.685   6.370 -0.0026 -0.0137 -0.1962
34345W        W47759   6.448   3.358   2.833  0.0066 -0.0828 -0.0289
34346W        W47760  13.360  13.438  12.192 -0.2611 -0.0041  0.2128
34347W        W47761  14.691  17.566  14.466  0.2438  0.2097  0.3188
34348W        W47762   4.587  16.474   6.110  0.2911  0.2003  0.3251
34349W        W47763   8.679  11.195  14.725  0.2866  0.6090  0.1052
34350W        W47764   2.973  17.353   2.234 -0.2299  0.0306 -0.0914
34351W        W47765   6.052  15.148   2.442  0.0772  0.1616  0.1463
34352W        W47766   1.792  12.577  13.143  0.0919 -0.2932  0.0986
34353W        W47767  10.502   3.152  15.089  0.0990 -0.2964 -0.1527
34354W        W47768   6.484  16.061  11.593  0.0919 -0.0346 -0.0565
34355W        W47769   0.253  13.213  11.095 -0.1712  0.2409 -0.1254
34356W        W47770  14.460   0.534  13.638 -0.0054  0.1518  0.1121
34357W        W47771  17.490  12.651   2.488  0.2064  0.1153  0.1225
34358W        W47772   7.199  12.047  16.529  0.1066  0.0590  0.0588
34359W        W47773  10.993   7.828   3.953 -0.1208 -0.2210 -0.2350
34360W        W47774   0.148   9.070  12.147 -0.3183 -0.0944  0.1312
34361W        W47775   3.377  10.558   5.178 -0.0932  0.0086  0.0536
34362W        W47776   7.844   0.920   4.138 -0.2740  0.3633 -0.0046
34363W        W47777  16.006  13.786   3.069  0.0981  0.1937  0.0598
34364W        W47778  12.833  12.061  13.836  0.0615  0.0026 -0.0106
34365W        W47779  12.698  11.748  11.923  0.0958 -0.0479 -0.0242
34366W        W47780  12.501   3.431   0.569  0.1515 -0.0952 -0.2375
34367W        W47781  15.534  16.199  15.784  0.4029 -0.0622 -0.0752
34368W        W47782   9.756  17.273   0.468  0.2186  0.3568  0.4903
34369W        W47783   8.410   9.079   0.581 -0.0108 -0.1445  0.4530
34370W        W47784  12.760   7.409  15.452  0.0668 -0.0087 -0.1118
34371W        W47785   1.131   0.858   4.183  0.0273  0.4021  0.0778
34372W        W47786   3.736   4.855   3.084 -0.3316  0.1316 -0.1708
34373W        W47787  14.318  10.867   3.148 -0.0830 -0.0121 -0.1531
34374W        W47788  15.915   2.829  16.380 -0.2851  0.3194  0.0813
34375W        W47789   2.973   0.923  14.625  0.3263  0.1494  0.0984
34376W        W47790   9.343   0.289   4.854  0.0359  0.0831 -0.2141
34377W        W47791   2.460   3.963   0.918 -0.2433 -0.1089  0.0190
34378W        W47792  16.322  17.946   0.749  0.1031  0.2879 -0.3243
34379W        W47793   6.139  11.139  13.177  0.0439 -0.0976 -0.1033
34380W        W47794   9.425   9.027  13.734 -0.0583 -0.0824 -0.1710
34381W        W47795  11.396  10.642   0.232  0.1676  0.0167 -0.0604
34382W        W47796  14.860   7.338  14.581 -0.2088 -0.0077 -0.1195
34383W        W47797  16.340  15.920   4.551 -0.1459 -0.1475  0.0902
34384W        W47798  11.687  12.643   3.145 -0.0017 -0.1490 -0.1913
34385W        W47799  12.553   1.081   0.568  0.2494  0.0133 -0.0667
34386W        W47800   2.467   0.312   5.279 -0.2832  0.1549  0.2621
34387W        W47801  12.588   8.563  16.657 -0.1233  0.0906  0.1682
34388W        W47802  17.412  11.914  15.900 -0.1000 -0.2634  0.2456
34389W        W47803  10.349   6.543  13.790  0.1866  0.4444 -0.0867
34390W        W47804  17.488  16.307  12.895  0.2144 -0.4159 -0.0311
34391W        W47805   6.971  13.686   3.130  0.0041 -0.1720 -0.3006
34392W        W47806   1.368   2.125  14.183 -0.0973  0.0449  0.0247
34393W        W47807  17.862   9.999  12.900 -0.1590  0.1702 -0.0813
34394W        W47808  12.994  16.252   2.812 -0.0939  0.0648  0.1068
34395W        W47809  14.331  17.173   1.478 -0.0379  0.0100 -0.2203
34396W        W47810   9.054   9.615  10.397 -0.1510 -0.3295  0.0525
34397W        W47811   0.411   3.132  11.475  0.2170 -0.1251 -0.2504
34398W        W47812   2.535  11.541  10.752  0.3143  0.0163  0.0359
34399W        W47813   5.620   9.572  15.098 -0.1082  0.0310  0.1657
34400W        W47814   8.647  10.408   2.935 -0.1868 -0.1392  0.1413
34401W        W47815   9.587  10.724  14.668 -0.1987  0.1191 -0.0129
34402W        W47816   0.585  12.215   3.980 -0.1032 -0.1743 -0.0714
34403W        W47817  14.242  16.887   2.746  0.0297 -0.2100  0.1155
34404W        W47818   7.962  14.753  12.750  0.0049  0.1073  0.1483
34405W        W47819   3.444  16.745   0.913 -0.0398 -0.2301 -0.0845
34406W        W47820   5.755   0.666   2.232  0.2355  0.1926 -0.0640
34407W        W47821   1.291   6.383  15.517  0.0390 -0.2745  0.3089
34408W        W47822   0.870   0.063  13.131  0.2519  0.1264 -0.1353
34409W        W47823  14.373  12.141  11.561 -0.2299 -0.1719  0.0041
34410W        W47824  10.941  13.660   1.530 -0.1983 -0.1613 -0.2048
34411W        W47825   9.084  17.112   2.046  0.0290 -0.0993 -0.3036
34412W        W47826   7.225  12.933  16.492 -0.0991 -0.0626 -0.0628
34413W        W47827   3.635   8.761  12.755  0.1356  0.0363 -0.2237
34414W        W47828   2.613   5.643   0.476 -0.1279 -0.1865  0.3550
34415W        W47829   2.783  10.529  11.531  0.2001 -0.1428 -0.1240
34416W        W47830   5.644   1.882  13.194  0.2795 -0.1920  0.0328
34417W        W47831  13.328   0.305   3.907  0.1565  0.4442 -0.0032
34418W        W47832   3.236  16.145  13.241 -0.1018  0.4110  0.0107
34419W        W47833   1.645  12.101  12.549  0.2470  0.1505 -0.0191
34420W        W47834   0.570  15.436  16.634 -0.0726 -0.2000  0.2094
34421W        W47835   6.517   1.271   2.607 -0.0974  0.0600  0.2586
34422W        W47836   1.919   8.364  14.968  0.1046 -0.2879  0.1584
34423W        W47837   5.598   0.883   1.719 -0.0142 -0.0038 -0.2163
34424W        W47838  16.345   5.016   3.309  0.0242  0.0099 -0.2115
34425W        W47839  15.267  14.167  10.468  0.1660 -0.0376 -0.0569
34426W        W47840   6.221  13.720  16.494 -0.1444 -0.1078  0.2492
34427W        W47841   8.010   4.433   3.698 -0.2520 -0.0422  0.0208
34428W        W47842  10.154   6.592   1.426  0.1997 -0.0116 -0.3030
34429W        W47843  15.074   4.643   3.807  0.1004  0.2183 -0.0327
34430W        W47844  13.772  12.187   2.438 -0.2616 -0.1939  0.1247
34431W        W47845   4.537  16.920  11.308 -0.2304  0.2475 -0.1867
34432W        W47846  15.919   5.125   2.936 -0.1320  0.0665 -0.1173
34433W        W47847  16.281   7.865   5.700  0.0105 -0.2410  0.0459
34434W        W47848   6.362  15.596   4.310  0.0511  0.2298 -0.0660
34435W        W47849  11.058   1.289  14.252  0.1653 -0.0422  0.1914
34436W        W47850  15.511   9.195  13.449 -0.2151  0.2488  0.1296
34437W        W47851  18.026   4.276   2.346  0.2953  0.0384  0.1744
34438W        W47852   2.901   0.678   0.400  0.2345  0.1581 -0.0605
34439W        W47853   8.096  10.982  13.435 -0.1954  0.0060 -0.0410
34440W        W47854   9.514  14.761  14.276  0.2311 -0.1365  0.0345
34441W        W47855  15.886   9.863  11.445 -0.0504 -0.1114  0.3945
34442W        W47856   2.738   7.132  16.426 -0.0335  0.2940 -0.0861
34443W        W47857  11.672   7.549  16.648  0.3190 -0.0042  0.0538
34444W        W47858   2.796  11.374  11.493 -0.1337 -0.1268  0.1269
34445W        W47859  16.614   6.380  14.899 -0.1094 -0.1980  0.1494
34446W        W47860   2.723  16.615  13.593  0.2657  0.0114  0.1212
34447W        W47861   6.571   7.385  11.084 -0.1105  0.0578  0.1558
34448W        W47862  12.821  12.933  12.964 -0.1760  0.0606 -0.1735
34449W        W47863  12.720  12.502   1.031  0.0848 -0.2730 -0.3693
34450W        W47864   6.513   7.054  13.430  0.0104 -0.1682 -0.1207
34451W        W47865   4.644  12.471   3.589 -0.1506  0.0564 -0.0601
34452W        W47866  14.946   5.322   4.365 -0.0684  0.2041 -0.1543
34453W        W47867  17.358   9.967  11.004  0.1255 -0.0589  0.0197
34454W        W47868   2.136  12.096   0.442  0.2916 -0.2569  0.0905
34455W        W47869   9.518   0.122  15.113  0.0003 -0.2087  0.0391
34456W        W47870   4.621  16.874  13.505 -0.0542 -0.1775 -0.1870
34457W        W47871  10.925   4.427  16.443 -0.1406 -0.2903 -0.0067
34458W        W47872  10.901  12.335   2.469  0.2193 -0.0430  0.1907
34459W        W47873  13.535  16.139  10.205 -0.0746 -0.0065  0.0699
34460W        W47874   9.542   0.313  14.691  0.1047  0.2914 -0.3072
34461W        W47875  16.977   2.801  13.019 -0.1047  0.0001 -0.2087
34462W        W47876   5.111   5.615   4.268 -0.1502  0.1357 -0.2275
34463W        W47877   0.811   7.333   6.336  0.0234 -0.1951 -0.3746
34464W        W47878  16.329   3.349   4.197  0.2650 -0.1794  0.3237
34465W        W47879   1.408  16.114  14.546  0.0952  0.1921 -0.0025
34466W        W47880  15.835   2.417   0.485 -0.2998  0.1467 -0.0105
34467W        W47881  13.930  16.850  14.059 -0.2783 -0.0172  0.4084
34468W        W47882   0.817   7.941  13.328  0.0187  0.1658 -0.2651
34469W        W47883   2.537   9.918   1.944 -0.3568  0.2466 -0.1622
34470W        W47884   9.097  10.630   1.584  0.1256 -0.0516 -0.0261
34471W        W47885  10.062   2.108  15.912  0.1504 -0.1556 -0.0978
34472W        W47886  12.944  15.746   0.932  0.1483  0.1851  0.0679
34473W        W47887   5.648  11.341   3.341 -0.0308  0.1671 -0.0429
34474W        W47888  13.494   8.927  10.988 -0.2641 -0.0424  0.1215
34475W        W47889   2.639   3.380  12.766  0.0870 -0.2939 -0.1371
34476W        W47890   7.341  16.561   5.426  0.2329 -0.1856  0.1628
34477W        W47891  17.285   3.009   6.041 -0.3669 -0.0671 -0.0416
34478W        W47892  12.449  12.677  13.231 -0.0289  0.4347  0.2306
34479W        W47893  16.757   5.541  11.797 -0.0972 -0.0325 -0.0442
34480W        W47894  17.485  16.895   0.938  0.0041 -0.1713 -0.0355
34481W        W47895  15.229   1.093  12.314 -0.0880 -0.1165  0.0408
34482W        W47896   5.967  13.345   1.229 -0.3067 -0.1148  0.2273
34483W        W47897  17.514  12.501   5.212 -0.2188 -0.0498 -0.1530
34484W        W47898   9.871   4.870   4.548 -0.0949 -0.3788  0.0215
34485W        W47899  13.621  15.855   0.204  0.1114 -0.0750  0.1569
34486W        W47900  15.752   5.101  14.222 -0.1067 -0.1062  0.3383
34487W        W47901   9.201  10.806   2.261  0.1443 -0.0557  0.4104
34488W        W47902   9.045  13.929  13.455  0.1838 -0.4253  0.3381
34489W        W47903   4.615   0.004   4.563  0.0373 -0.0343 -0.1041
34490W        W47904   8.533   2.977  12.262 -0.0532  0.0013  0.1205
34491W        W47905   6.195  15.309  12.621 -0.1141  0.5869 -0.0301
34492W        W47906   7.666   4.255   5.154 -0.2574 -0.1844 -0.1556
34493W        W47907   9.719   9.485   0.873 -0.2893  0.1834  0.3543
34494W        W47908  12.686  10.386   1.755 -0.3870 -0.0337 -0.0088
34495W        W47909   6.072  11.489   3.192 -0.2558  0.0635 -0.0906
34496W        W47910   3.576   5.389  15.255  0.0537  0.0921 -0.1595
34497W        W47911   9.850  15.020  16.058 -0.2385  0.1934  0.0472
34498W        W47912  13.881  14.639  12.454  0.3903  0.1288  0.1479
34499W        W47913   8.332  10.214   2.201 -0.1594 -0.2653 -0.1669
34500W        W47914  14.393  16.856   2.238  0.0192 -0.1188 -0.1666
34501W        W47915   3.003   3.757  13.990 -0.2134  0.0594 -0.0009
34502W        W47916  16.734  10.905   2.456  0.0054  0.1569  0.1305
34503W        W47917  13.656  14.084  14.048  0.2279  0.0719  0.0233
34504W        W47918  11.012   1.816  16.185  0.1093  0.3209 -0.2628
34505W        W47919   1.023   3.896  11.913 -0.1704  0.1320 -0.1993
34506W        W47920  17.819   2.062  13.353  0.0011 -0.2691  0.1302
34507W        W47921   9.600  12.082  11.677  0.0462  0.0419 -0.1603
34508W        W47922   1.217   0.946   1.149 -0.0805 -0.0763 -0.1679
34509W        W47923   0.790   9.343   3.845  0.1805 -0.0732 -0.3534
34510W        W47924  10.749   6.864   0.365 -0.3178  0.0333  0.2525
34511W        W47925   1.209  12.928   0.147 -0.1073 -0.2371  0.2214
34512W        W47926   9.871  13.164  15.862  0.2075 -0.0188  0.2333
34513W        W47927   3.388  11.969  12.526 -0.1381 -0.2668 -0.0784
34514W        W47928  15.181  13.674  14.396  0.0569 -0.0667  0.2949
34515W        W47929   7.762   5.143  14.890 -0.1768  0.1258  0.1503
34516W        W47930   0.370  10.775  14.684  0.0787 -0.1308  0.0135
34517W        W47931   6.717   3.708  13.746 -0.0297  0.0150 -0.0332
34518W        W47932   4.877   9.356   0.493 -0.1425  0.1202  0.0447
34519W        W47933  15.118   7.239  13.315  0.1693 -0.3451  0.0209
34520W        W47934   2.320  13.749  11.087 -0.1098 -0.1765 -0.2237
34521W        W47935   3.736  15.314  12.895 -0.2223  0.1155  0.0900
34522W        W47936   0.190  16.566  13.342  0.1594 -0.0107  0.2067
34523W        W47937   7.664   5.500  11.286 -0.0889  0.2527 -0.0542
34524W        W47938  12.219  16.811   0.615 -0.1459  0.3081  0.1040
34525W        W47939   6.233   7.436   4.994 -0.0928 -0.0879  0.3088
34526W        W47940  11.762   4.275   0.844 -0.0798  0.1112  0.0205
34527W        W47941   7.831   1.379   4.029  0.0397  0.2028 -0.1954
34528W        W47942   0.596  16.576   2.055 -0.0257  0.2416 -0.3897
34529W        W47943   2.261  13.700   0.195  0.1901  0.2406 -0.0948
34530W        W47944   1.940   9.883  12.213  0.0316  0.0678  0.0846
34531W        W47945   0.227  18.032   3.546  0.0554  0.2282  0.1288
34532W        W47946   2.546   8.854   5.353 -0.0998 -0.1047  0.1321
34533W        W47947   8.418  16.121   3.704  0.3014 -0.2297  0.2852
34534W        W47948  10.120   4.682   0.396 -0.0917 -0.1946  0.0658
34535W        W47949  11.658   5.617   1.268  0.3089  0.0662 -0.1319
34536W        W47950   0.171  10.191  11.906  0.0190 -0.3178  0.1954
34537W        W47951   5.086   2.546  16.678 -0.0369  0.1511 -0.1379
34538W        W47952  17.876  10.960  11.939  0.0893 -0.0393 -0.1361
34539W        W47953  12.752   5.858   2.406  0.1177  0.1852  0.1523
34540W        W47954   0.874   5.930  14.892 -0.0279 -0.0605  0.3857
34541W        W47955   0.533   6.095   5.301 -0.1246  0.2037 -0.3772
34542W        W47956  17.812  12.713  11.922 -0.2618  0.3391 -0.2166
34543W        W47957   5.925  14.805   5.904 -0.0945 -0.0384 -0.0145
34544W        W47958  16.612  11.154   4.921 -0.0708  0.1411  0.0257
34545W        W47959   3.793   6.633   0.733  0.2787 -0.1275  0.1241
34546W        W47960   2.617  14.501   4.814  0.1129 -0.0141 -0.0754
34547W        W47961  12.809  14.233   2.428  0.0654  0.0800  0.1910
34548W        W47962   8.547   7.381  12.502  0.1538 -0.1125  0.2254
34549W        W47963  12.190   4.113  12.260  0.1649 -0.0037  0.3089
34550W        W47964  13.446   4.302  14.231  0.2590 -0.3397 -0.0125
34551W        W47965   9.705   5.475  15.118 -0.2624  0.2614 -0.2064
34552W        W47966  10.086  13.094  13.795 -0.1619 -0.0989 -0.2328
34553W        W47967   1.731  13.514   3.187  0.0828 -0.0505  0.2018
34554W        W47968   2.742   1.204   3.465  0.0817  0.0485 -0.0439
34555W        W47969   9.255  16.245   5.455  0.1068 -0.0236  0.2889
34556W        W47970   2.510   5.071  14.587 -0.1881 -0.2977  0.0455
34557W        W47971   6.306   2.989   2.066 -0.0583  0.0439  0.1643
34558W        W47972   8.296  14.288   2.960 -0.0650  0.0523  0.1841
34559W        W47973   4.118   3.831   2.936 -0.2723  0.0931 -0.0217
34560W        W47974  10.802  17.841   6.147  0.1908  0.1727 -0.0145
34561W        W47975  13.685  15.945  15.946 -0.1343  0.2784 -0.1035
34562W        W47976   6.065   4.282   1.794 -0.1585  0.0972 -0.1699
34563W        W47977   2.667  15.498  14.516 -0.1627  0.1660 -0.2801
34564W        W47978  10.329  10.403  15.021  0.0517 -0.1297  0.2380
34565W        W47979   1.566  10.727   4.330  0.4788  0.1359  0.2207
34566W        W47980   6.829  11.411  12.033 -0.1549 -0.1086  0.1590
34567W        W47981   1.810   5.524   5.395 -0.1077  0.0700  0.0515
34568W        W47982  15.907   4.779   3.344  0.2641  0.1523 -0.0206
34569W        W47983   2.666   1.537  15.777  0.0339  0.2625 -0.0095
34570W        W47984  11.881   2.738   1.316  0.1272 -0.0444  0.0255
34571W        W47985  17.676  11.730  16.314  0.2961  0.2102 -0.0887
34572W        W47986   4.247   0.970  11.535  0.2150  0.0277 -0.1159
34573W        W47987  14.542   2.971  13.998  0.3467 -0.2409  0.1448
34574W        W47988  12.629  13.676  15.575 -0.0329  0.2270 -0.1324
34575W        W47989   3.850  12.138  12.676  0.2264  0.1353  0.1487
34576W        W47990   9.393   9.174   0.474 -0.0481  0.0892  0.0009
34577W        W47991   5.759  13.837   0.789  0.0585  0.1561  0.1515
34578W        W47992  18.028   4.168  16.400 -0.1073 -0.1936 -0.0029
34579W        W47993   5.796  14.745  16.069 -0.0378 -0.4950  0.1731
34580W        W47994  16.312  16.245  10.697 -0.2171  0.3736 -0.2287
34581W        W47995  11.088  16.436  11.478  0.1250  0.0861  0.4108
34582W        W47996   6.220  16.329  13.972  0.2678 -0.1871 -0.0427
34583W        W47997   9.160  14.946  14.697 -0.3269 -0.3562 -0.2748
34584W        W47998  17.802   7.397  13.930 -0.1204  0.1048 -0.1190
34585W        W47999   8.138   5.165  12.127  0.2812 -0.0457 -0.2016
34586W        W48000   1.443  10.101  11.471  0.0635  0.2194 -0.0628
34587W        W48001  12.314  12.779   2.460 -0.0020  0.0921 -0.2006
34588W        W48002  10.685   2.888  13.282  0.1221 -0.0485  0.1190
34589W        W48003  15.383   5.775  13.053  0.2034  0.3127 -0.1293
34590W        W48004  14.247  12.300   3.444 -0.0647  0.5174  0.2666
34591W        W48005   8.028   5.520  14.890 -0.1498 -0.1413 -0.2478
34592W        W48006  10.900   8.992  11.885 -0.0801 -0.1888  0.0457
34593W        W48007  16.974   5.130  11.936 -0.1341  0.1812 -0.0791
34594W        W48008   4.897  17.632  13.047 -0.0292  0.1483  0.1834
34595W        W48009   0.222  17.104   0.448 -0.0799  0.2231  0.0607
34596W        W48010   2.180   0.979   6.084  0.2815 -0.1182  0.1728
34597W        W48011   0.768   2.706  12.606 -0.3242 -0.2783  0.1422
34598W        W48012  11.040  17.138  11.694  0.1886 -0.1758 -0.1265
34599W        W48013  14.272   7.353  15.730 -0.0502 -0.0134 -0.2962
34600W        W48014  13.736  12.186   3.478  0.1190  0.3434  0.1637
34601W        W48015   3.545  16.335   3.643  0.0985  0.3302  0.1202
34602W        W48016   3.063  17.216  11.046 -0.2828  0.2530  0.1259
34603W        W48017   1.534  12.641  12.253  0.3210  0.2185  0.1174
34604W        W48018  15.908   4.880   2.435 -0.0619  0.4662 -0.1995
34605W        W48019   9.404  13.207   0.492  0.0353  0.1317 -0.1249
34606W        W48020   9.408  10.781   6.130  0.2097 -0.0496 -0.0500
34607W        W48021   4.994   6.667  10.775 -0.0547 -0.1202 -0.1207
34608W        W48022  13.116   3.872   0.969 -0.1728 -0.1922  0.0797
34609W        W48023  15.194  13.331   2.243  0.0657 -0.1053  0.1350
34610W        W48024   6.717  13.100  12.596 -0.0519 -0.1333  0.2313
34611W        W48025   4.380   4.800   3.850  0.2213 -0.2245  0.5108
34612W        W48026   5.194  15.201  12.392 -0.1816 -0.0346 -0.2451
34613W        W48027  13.494  13.468   2.669 -0.0212  0.2527  0.2657
34614W        W48028   7.612   9.509   5.148 -0.0973 -0.0921 -0.0920
34615W        W48029  13.301   6.266   1.673 -0.0889  0.0814 -0.3805
34616W        W48030   7.608   0.391   2.458 -0.3374  0.2683 -0.2761
34617W        W48031  11.692  17.641   3.711 -0.2564 -0.1037 -0.0626
34618W        W48032   3.805  16.658   3.200  0.1750  0.1168  0.2466
34619W        W48033   1.280  11.864  15.279  0.0583 -0.0587  0.0432
34620W        W48034   8.070   7.149   4.869  0.1560 -0.0253  0.1861
34621W        W48035   5.522   2.422   0.358 -0.0097  0.2895  0.3474
34622W        W48036   7.129  12.915  10.666  0.0263 -0.1958  0.0435
34623W        W48037  16.331  14.433  13.829  0.1493  0.1036 -0.1058
34624W        W48038  17.321   6.306   5.848  0.2159  0.2554  0.1214
34625W        W48039  11.762  13.431  10.948 -0.0514 -0.2394 -0.0003
34626W        W48040   3.736  16.399  13.250 -0.2498  0.2803 -0.1971
34627W        W48041   4.086   8.847  12.537 -0.1193  0.0047  0.0459
34628W        W48042   8.941  15.902  13.615  0.3849  0.0947 -0.0813
34629W        W48043  17.181  17.487  16.627 -0.0801  0.2425 -0.1294
34630W        W48044   2.973   0.475  11.630  0.2197 -0.2530  0.0321
34631W        W48045   0.924  10.843  16.090  0.0392  0.0143 -0.0986
34632W        W48046  14.797  17.598   1.544 -0.1333  0.2927 -0.2360
34633W        W48047  13.943   8.860  11.559 -0.0649  0.2791  0.0281
34634W        W48048   6.577   8.356  13.577  0.0126 -0.1438  0.1142
34635W        W48049  12.413   2.412  12.869  0.1882  0.1320 -0.0721
34636W        W48050  13.208   7.727   4.283  0.0756  0.1299 -0.1074
34637W        W48051   4.014   1.654   1.417  0.1773 -0.0958 -0.0395
34638W        W48052   8.607  12.971  16.333  0.0886  0.1197  0.1893
34639W        W48053   1.339   6.830  13.702 -0.1292  0.0013  0.0474
34640W        W48054   4.963   6.524  16.277  0.2541  0.0501 -0.1251
34641W        W48055   9.557  17.223   1.800 -0.0511  0.2748 -0.1585
34642W        W48056   8.379  13.344   1.267  0.0063  0.1105 -0.0592
34643W        W48057  10.377   0.600  11.907  0.1087  0.1625 -0.0530
34644W        W48058   7.104   3.184  15.095 -0.0657  0.0290  0.1091
34645W        W48059  11.920   2.882   5.714  0.2091  0.1159  0.2263
34646W        W48060  14.454   9.768   2.258  0.1593  0.2679  0.1694
34647W        W48061   8.337   8.688  12.578 -0.1352 -0.0062  0.1690
34648W        W48062   6.456  14.866   5.320  0.0805  0.1509  0.0573
34649W        W48063  11.063   2.362  11.302 -0.0784 -0.0369  0.0320
34650W        W48064  17.701  10.477   4.806  0.2597 -0.0998  0.0853
34651W        W48065  16.507  13.631  13.304  0.1071 -0.1219  0.2464
34652W        W48066   2.389   4.470   0.828  0.0163 -0.2397 -0.1523
34653W        W48067  13.055   7.372  15.048  0.1939  0.1426 -0.1095
34654W        W48068   4.379   2.450   2.562  0.0693  0.1741 -0.0335
34655W        W48069  16.568  16.662  13.286  0.0625 -0.2966  0.1156
34656W        W48070   2.036  16.706  14.162  0.0127  0.0015 -0.2774
34657W        W48071  14.857  11.069  10.327 -0.0793 -0.1289  0.0415
34658W        W48072   0.271   4.510  13.123 -0.0845  0.1982  0.1793
34659W        W48073   7.235  12.615   3.973  0.3273  0.0949  0.2393
34660W        W48074   1.498  14.170   6.364 -0.1060 -0.2163 -0.3020
34661W        W48075  10.479   0.481   4.014 -0.0586  0.3731  0.0753
34662W        W48076  17.989  16.546  13.797  0.0577  0.2543  0.0631
34663W        W48077   2.048   8.910  16.084 -0.0336 -0.0943 -0.0173
34664W        W48078  11.960   3.518   1.582 -0.3062  0.1099  0.1907
34665W        W48079   5.482   4.603   0.397  0.0807 -0.2398  0.0279
34666W        W48080  12.852  14.073   3.446 -0.0033 -0.1450 -0.0605
34667W        W48081   6.789   0.660   4.082 -0.0351  0.3967 -0.0662
34668W        W48082  17.634   4.659   5.727 -0.0182 -0.1866 -0.1038
34669W        W48083   7.851  10.724  11.463  0.1949 -0.0209  0.1118
34670W        W48084  10.646  14.190   2.241 -0.1739 -0.0916  0.0801
34671W        W48085   4.067  15.117   3.293 -0.3171 -0.0114  0.1576
34672W        W48086  16.544  13.126  13.508 -0.0833  0.2041  0.2414
34673W        W48087   0.224  10.289  14.566 -0.0212  0.0066 -0.3425
34674W        W48088  15.937  11.187  16.020  0.1166 -0.1540 -0.2497
34675W        W48089   9.361  15.175   1.800 -0.1377 -0.1381 -0.1178
34676W        W48090   0.646   1.628  16.508 -0.0548 -0.0364  0.0942
34677W        W48091  13.966   3.577   1.301 -0.0656 -0.2380 -0.1433
34678W        W48092   3.125  16.039  12.785 -0.0762  0.1943 -0.1078
34679W        W48093  15.202   1.772   3.487  0.1008 -0.1545 -0.1852
34680W        W48094   9.298  11.628  11.123 -0.1728  0.0809  0.0557
34681W        W48095   7.003  10.461   0.756  0.3034 -0.3018 -0.2263
34682W        W48096   2.249   0.370  16.364  0.0798  0.1231  0.0102
34683W        W48097   2.308  13.084  11.743 -0.0932 -0.1586 -0.0636
34684W        W48098  10.090   7.200   3.190 -0.1857 -0.0973 -0.3895
34685W        W48099  15.256   5.163   4.777 -0.0837 -0.2101  0.1594
34686W        W48100   4.051   9.245   0.639  0.2020 -0.0909  0.0700
34687W        W48101   1.659  14.019   3.885 -0.0565  0.1809 -0.1755
34688W        W48102  15.814   8.090  11.410 -0.1229 -0.1582 -0.0971
34689W        W48103  11.008   3.834   1.369  0.1040  0.1421 -0.3448
34690W        W48104  12.023   9.693  12.445  0.2096  0.2464  0.0515
34691W        W48105   6.688   0.753  14.518  0.2068  0.0250  0.3008
34692W        W48106   5.989  16.975  13.506  0.1532  0.1283 -0.2052
34693W        W48107  14.976  15.904  13.940  0.0615  0.1430 -0.1802
34694W        W48108   8.260   3.605   2.858  0.1413  0.3778  0.0409
34695W        W48109   7.471  14.036  13.888 -0.1081 -0.0063  0.1613
34696W        W48110   3.052   3.148  12.861  0.1665  0.1284  0.1092
34697W        W48111   6.007   6.156   3.370 -0.2536  0.2341 -0.1741
34698W        W48112   6.394   7.836  12.126  0.0388  0.3773 -0.4237
34699W        W48113  10.629  15.103   1.864 -0.3469  0.2055 -0.2495
34700W        W48114   6.073  16.456   5.945  0.0488 -0.2772  0.5299
34701W        W48115   5.935  15.906  11.343 -0.0346  0.1471 -0.0317
34702W        W48116  10.346   3.252   4.239  0.0162 -0.0102 -0.2350
34703W        W48117  15.918   8.356   1.632 -0.1708  0.3300 -0.2051
34704W        W48118   3.961  15.037   2.094  0.2926  0.3472  0.3210
34705W        W48119  13.157   3.474  15.945  0.0745 -0.0676 -0.0529
34706W        W48120   6.233   0.719   5.668 -0.1116  0.1182 -0.3365
34707W        W48121   1.275  10.545   3.876 -0.5162 -0.1901 -0.0399
34708W        W48122  15.394  17.303  16.032 -0.0434 -0.0510 -0.0744
34709W        W48123   5.998   7.583  10.480 -0.0877 -0.1884  0.1216
34710W        W48124  10.875  11.755  11.738  0.0328 -0.1412 -0.1152
34711W        W48125  12.116   0.745   3.272  0.0104  0.0114  0.0797
34712W        W48126   3.916   7.152   5.255  0.0986  0.1152  0.1048
34713W        W48127  12.905  17.775   0.500 -0.1502  0.1121  0.0670
34714W        W48128   7.309   6.792  16.103 -0.1334 -0.0041 -0.0976
34715W        W48129   5.675   5.905  14.668 -0.2251  0.0526  0.2039
34716W        W48130   7.874  12.066   2.065  0.1426 -0.1971  0.1147
34717W        W48131   3.112   7.168  14.866 -0.0640 -0.0361 -0.0765
34718W        W48132   7.467  13.927   1.220 -0.1659  0.0246 -0.1188
34719W        W48133   9.274  15.142   2.584 -0.0822 -0.0702  0.2879
34720W        W48134  15.545  13.458  14.741  0.0230 -0.2620 -0.0786
34721W        W48135  17.082   5.732   0.699  0.2611  0.2615 -0.1166
34722W        W48136  16.195  17.823  13.909 -0.2266 -0.1224  0.2115
34723W        W48137  15.089   2.423   5.411 -0.1173 -0.0100  0.1685
34724W        W48138   0.228  12.928  14.117 -0.1914 -0.1092  0.0046
34725W        W48139   6.275   0.526   2.430  0.0570  0.1128  0.0880
34726W        W48140   5.925   0.579  12.870 -0.0949  0.1414  0.0305
34727W        W48141   3.741  13.002  16.197 -0.0524 -0.1847 -0.3585
34728W        W48142   3.962  17.619   2.936  0.1969 -0.2166 -0.0274
34729W        W48143  14.025   3.797   0.316 -0.1454  0.0409 -0.0997
34730W        W48144  11.262   2.573  11.745 -0.1631 -0.0608 -0.0789
34731W        W48145   7.820   1.742  12.503 -0.0414  0.3181  0.2687
34732W        W48146   6.670  14.243   4.774  0.1236  0.0529 -0.4505
34733W        W48147   6.543  13.338  11.457 -0.0235 -0.1796 -0.0629
34734W        W48148  17.375   7.163  14.191  0.0224  0.0835 -0.0236
34735W        W48149  13.388   9.018   0.085 -0.2636  0.0483  0.0267
34736W        W48150   6.040  15.188   4.248 -0.2608 -0.1275  0.2327
34737W        W48151   2.381   1.188  10.751 -0.4399 -0.0330 -0.0381
34738W        W48152   3.592   7.984  12.252  0.1887  0.0991  0.1340
34739W        W48153  11.571  10.397  15.987 -0.0547  0.0733  0.1479
34740W        W48154   5.699   1.851   4.665 -0.1778  0.0943  0.3695
34741W        W48155   7.111   7.921   0.552  0.1570  0.4080 -0.0835
34742W        W48156   1.707  11.518  10.433  0.2519 -0.0134  0.0134
34743W        W48157  17.337   7.750   1.733 -0.0608 -0.2007  0.0973
34744W        W48158   6.048   1.717   0.829  0.0661  0.0930  0.0279
34745W        W48159   5.314   3.312  11.092  0.0966  0.1359 -0.1069
34746W        W48160  16.785  13.682  10.066  0.2057  0.2865  0.0716
34747W        W48161   5.225  16.376  15.446 -0.1372 -0.1843  0.2284
34748W        W48162   2.836   6.298  14.362  0.1441 -0.0321  0.0909
34749W        W48163   5.442   2.415   2.311  0.0306 -0.0947  0.1418
34750W        W48164  13.600  17.550  15.455 -0.2171 -0.3190 -0.1801
34751W        W48165  16.116   3.242   5.375  0.0302 -0.0810  0.1311
34752W        W48166   0.597  15.201  14.226  0.0211  0.0842 -0.0231
34753W        W48167   3.028   3.678  12.959 -0.0531 -0.1563 -0.1071
34754W        W48168  11.006   6.879   5.057  0.1502 -0.4246  0.3999
34755W        W48169   8.319  14.675   5.059 -0.1729 -0.0439  0.0820
34756W        W48170   9.450   9.329   2.285 -0.1594 -0.1671 -0.0484
34757W        W48171  10.033   0.200   1.041  0.0460 -0.3732 -0.2479
34758W        W48172   7.497   8.093  13.313  0.1684  0.0907 -0.0596
34759W        W48173  12.430   6.604   1.299  0.2441  0.0626  0.0908
34760W        W48174  10.493  15.776   2.927  0.1316  0.0310 -0.0449
34761W        W48175  15.198   2.275  13.592  0.1188 -0.0697 -0.0006
34762W        W48176   7.944  12.501   1.353 -0.0235 -0.1308 -0.1725
34763W        W48177   2.329  12.057  16.662 -0.0485  0.2597 -0.1851
34764W        W48178   9.983   1.465  10.095  0.0934  0.0568  0.1386
34765W        W48179  13.728   2.761   5.761  0.1286  0.0203  0.1200
34766W        W48180  17.862   7.149  12.457  0.1900 -0.2989  0.0245
34767W        W48181  16.930   8.221   3.701 -0.3673 -0.0718 -0.1733
34768W        W48182  13.845   5.905   2.390  0.1789 -0.1026 -0.1013
34769W        W48183   9.957  16.114  15.273 -0.0702 -0.2483  0.2035
34770W        W48184   3.170   7.060  16.138 -0.3024 -0.2138  0.0353
34771W        W48185   4.991   4.646   0.398  0.3192  0.4287 -0.0568
34772W        W48186   3.815  10.800  13.673 -0.0006 -0.2371  0.1419
34773W        W48187   6.311  17.548  10.779  0.0247  0.1703  0.1932
34774W        W48188   5.376  11.159   0.973  0.2023 -0.2641 -0.2023
34775W        W48189  15.067   6.149   4.376  0.0060  0.1742 -0.0913
34776W        W48190   1.494   9.941  11.963  0.0436  0.3677 -0.1142
34777W        W48191  12.767   0.197   0.429 -0.1020 -0.0806  0.0797
34778W        W48192  11.685  13.919  15.470  0.0477  0.0500  0.0359
34779W        W48193  10.208   3.391  11.823  0.0729 -0.1920 -0.1599
34780W        W48194   3.831   2.064  10.943 -0.1279 -0.1189  0.1226
34781W        W48195  12.620  13.036   0.101 -0.1089  0.1658  0.0039
34782W        W48196   2.074   5.797  16.525  0.0903 -0.0725 -0.0591
34783W        W48197   7.985  10.292   5.659 -0.1847 -0.0792  0.0343
34784W        W48198   1.976   7.704   0.429  0.0851 -0.2339 -0.0730
34785W        W48199   4.442   2.902  15.790 -0.1585  0.2656 -0.0786
34786W        W48200  15.769   6.578   6.517 -0.0281 -0.0549 -0.1272
34787W        W48201   5.505   6.787   1.064  0.0110  0.1065  0.0028
34788W        W48202   9.962   4.744   3.430  0.3428 -0.2484 -0.0230
34789W        W48203  15.115   8.219   5.578  0.1288  0.1017  0.0622
34790W        W48204   1.609   0.265   3.230  0.1214 -0.1004 -0.2567
34791W        W48205   5.544   5.356  12.338 -0.0535 -0.2765  0.0426
34792W        W48206   6.327   5.481  16.064 -0.1721  0.0398  0.2460
34793W        W48207   5.676  17.598  10.923 -0.1242 -0.2442  0.1577
34794W        W48208  14.511   8.641   5.272  0.2228 -0.1872  0.2486
34795W        W48209  11.627  10.794   3.083  0.2551 -0.2009 -0.5001
34796W        W48210   7.612  17.662   6.139  0.1010 -0.0450  0.0613
34797W        W48211   5.112   7.227   4.102 -0.2865  0.0858 -0.0942
34798W        W48212  11.612   6.582  16.663  0.1197  0.0814  0.0032
34799W        W48213  12.610   4.103   1.944 -0.0521  0.0991  0.3664
34800W        W48214  17.023   4.876   0.131 -0.1724 -0.0078 -0.0011
34801W        W48215   4.124  15.599  11.754 -0.1651 -0.2519 -0.2566
34802W        W48216   9.855  12.415   0.827  0.0860  0.0196 -0.1485
34803W        W48217  17.512   8.129   4.450  0.1528 -0.2176 -0.0338
34804W        W48218   5.115  14.217  15.020 -0.0137 -0.0734 -0.0916
34805W        W48219  16.250  16.470  11.334 -0.2246  0.1089  0.1374
34806W        W48220   6.201  11.280  13.658 -0.1848 -0.0408  0.1325
34807W        W48221   3.679   9.668  15.658  0.1090 -0.0728  0.2993
34808W        W48222  13.758  11.416   3.276  0.1432  0.0379 -0.0579
34809W        W48223  17.478  18.000  11.394 -0.0606  0.0865 -0.1516
34810W        W48224  11.734   8.158   4.159  0.0534  0.1144  0.0570
34811W        W48225   2.893  11.225  14.586  0.2459 -0.3471  0.2220
34812W        W48226   7.064  10.375   4.181  0.2683  0.1390  0.0052
34813W        W48227  11.010  14.508   1.145 -0.1893  0.0081  0.2338
34814W        W48228   5.676  11.578   4.859 -0.2026 -0.0369  0.0801
34815W        W48229   9.634  12.386   3.831 -0.0588  0.0306 -0.0680
34816W        W48230  13.244  16.453  13.378  0.2656  0.1963  0.0840
34817W        W48231  15.904   2.854   5.126  0.0731  0.3811  0.2029
34818W        W48232  12.678  15.181   0.603 -0.0316 -0.3167 -0.1673
34819W        W48233  17.875  17.229   0.819 -0.0206 -0.0347 -0.1398
34820W        W48234   7.162  12.120   0.315 -0.1465  0.1723 -0.2283
34821W        W48235  13.030   1.008  11.751 -0.0326 -0.2680  0.0689
34822W        W48236   9.450   1.017  11.353 -0.2949 -0.0288  0.1422
34823W        W48237  17.013  12.687  15.398  0.2619  0.0370 -0.1648
34824W        W48238   5.351  13.061  12.400 -0.0223 -0.0857 -0.0256
34825W        W48239  11.184   3.641   0.874 -0.1194 -0.1160  0.0970
34826W        W48240   5.875   9.665  11.216  0.0039  0.1044 -0.1603
34827W        W48241  15.627   4.298  10.766  0.2660 -0.2004 -0.2380
34828W        W48242  17.091   1.884  12.512 -0.0453 -0.0783 -0.1023
34829W        W48243   7.417  12.749   5.316 -0.0600  0.2483 -0.0865
34830W        W48244  14.749  17.113  12.911  0.2081 -0.1413  0.1153
34831W        W48245   8.966  11.094  15.649 -0.0558  0.1882 -0.1175
34832W        W48246  17.485  13.870   3.841 -0.0315 -0.0670  0.1637
34833W        W48247   0.889  17.624   0.472  0.0302 -0.0628  0.0258
34834W        W48248   8.104   0.810   1.051  0.0629  0.0199  0.1157
34835W        W48249   8.420   6.093  14.986  0.1632 -0.0222  0.2127
34836W        W48250  16.083   9.803   1.695 -0.8199 -0.2326 -0.0043
34837W        W48251   2.807   0.607   1.814 -0.1702 -0.0667  0.0010
34838W        W48252  16.943   5.672  13.289 -0.2446  0.0536 -0.2223
34839W        W48253  16.734  14.745  13.847  0.1726  0.0824  0.0645
34840W        W48254  15.156  14.150   5.732  0.0318  0.1406  0.1659
34841W        W48255  17.244  17.875   0.325 -0.3717 -0.0426 -0.1821
34842W        W48256   1.624   0.494   4.980 -0.1899  0.0805  0.0835
34843W        W48257   3.365   2.255   3.297  0.0193 -0.1614 -0.0890
34844W        W48258  12.920  14.995  14.424  0.3727  0.1494  0.0144
34845W        W48259  11.886   4.229   5.296  0.2071 -0.0092  0.0415
34846W        W48260  11.388  15.458   4.351  0.2352  0.0330  0.1074
34847W        W48261   9.747   0.101   3.616 -0.2775 -0.3442  0.3326
34848W        W48262   9.124   6.153   3.123 -0.0291  0.0850 -0.0059
34849W        W48263   0.366   3.913  15.892  0.1133  0.0931 -0.0535
34850W        W48264  17.955   4.829   3.280 -0.0933  0.0962  0.1068
34851W        W48265   6.607  15.321   5.174  0.1289  0.1492 -0.0100
34852W        W48266   7.946   7.374  12.802  0.1534 -0.2091 -0.1811
34853W        W48267   3.525   4.629   4.740  0.3018  0.0533  0.1179
34854W        W48268   0.343   5.817   0.075 -0.0672 -0.0542 -0.0416
34855W        W48269   7.772   2.350  11.604  0.0794  0.3445  0.1738
34856W        W48270  15.098   1.976  12.756 -0.4202 -0.1767  0.2922
34857W        W48271   0.091  15.295  10.764 -0.1180  0.3690  0.1197
34858W        W48272   0.831   2.577  16.417 -0.0773 -0.3073  0.1058
34859W        W48273   6.166  13.504  11.108 -0.0793  0.1009 -0.0235
34860W        W48274   5.391   5.027  11.862  0.0498 -0.0026  0.1243
34861W        W48275  12.229   5.037  12.152  0.0377 -0.1111  0.0209
34862W        W48276  17.029  11.259   2.564  0.1290  0.0883  0.1496
34863W        W48277   3.609   4.437  13.444  0.0071 -0.0543  0.2210
34864W        W48278   5.276  11.130  14.420 -0.0224  0.0124  0.2766
34865W        W48279   6.380   5.831   0.449  0.1770 -0.0646  0.2043
34866W        W48280  17.816   8.783   0.978 -0.1491  0.0199 -0.1264
34867W        W48281  11.790  16.783   3.596  0.0739 -0.2339  0.1362
34868W        W48282   6.043   9.669   3.817  0.1607 -0.0712 -0.0936
34869W        W48283  16.943   1.694   3.359 -0.0579 -0.1403 -0.0230
34870W        W48284  15.290   2.667  11.334 -0.1804 -0.1877 -0.0095
34871W        W48285   6.653   3.957   4.772  0.0524  0.1154 -0.3232
34872W        W48286   7.878   3.176  14.727  0.2281  0.1513 -0.0616
34873W        W48287  10.314   4.829   2.650 -0.1274  0.2471  0.2822
34874W        W48288  13.329  17.629   5.529 -0.1227 -0.3024 -0.1055
34875W        W48289   3.782  16.278   2.413 -0.2029 -0.1622  0.2330
34876W        W48290   2.062   5.686  13.976 -0.1499 -0.0787  0.1976
34877W        W48291   1.744   5.079   6.367 -0.0775 -0.0243  0.0316
34878W        W48292  11.008   0.614  10.657  0.0157  0.1811 -0.0447
34879W        W48293   1.270   3.123   1.701  0.0803 -0.1057 -0.0946
34880W        W48294  11.188   9.094  15.814 -0.2068 -0.0657  0.0718
34881W        W48295  11.510  10.418   2.519  0.1692  0.1094  0.1329
34882W        W48296   2.194   2.221  11.891  0.2140  0.2543  0.0931
34883W        W48297  17.895   2.441   2.784  0.4167 -0.3094  0.1661
34884W        W48298   5.847   8.578  11.992 -0.1438  0.0455  0.0337
34885W        W48299  10.315   0.561   2.707  0.2652 -0.2150 -0.0311
34886W        W48300   4.595   5.163   4.151 -0.0974  0.1208 -0.2071
34887W        W48301  17.795  11.452   3.004 -0.0050  0.2029  0.0343
34888W        W48302   8.369   1.193   1.854 -0.0541 -0.1356  0.2279
34889W        W48303   4.570   3.362  15.426 -0.2015  0.1913  0.1127
34890W        W48304   6.127   4.566   3.618  0.5196  0.1795 -0.2611
34891W        W48305  13.700   1.406   5.181  0.0177 -0.4360  0.0903
34892W        W48306   9.555  13.356   1.228  0.2730 -0.2358 -0.1429
34893W        W48307  10.127   5.317   4.416  0.1606 -0.1266 -0.1496
34894W        W48308   9.679   1.007   0.051 -0.2199  0.1040  0.2967
34895W        W48309   5.237  10.739  14.148  0.0018  0.0860 -0.1355
34896W        W48310  12.503  14.959  15.462 -0.0133  0.1154  0.0041
34897W        W48311   4.033   3.568  13.911  0.0373 -0.2162  0.2073
34898W        W48312  14.808  14.342  15.379 -0.3164  0.0534 -0.0881
34899W        W48313  13.372   2.201  15.218 -0.0277 -0.0396 -0.0780
34900W        W48314   0.084   6.756  15.482 -0.0449 -0.0565  0.0218
34901W        W48315   9.968  13.075   4.754  0.2521 -0.0284 -0.2314
34902W        W48316   7.792  10.881   3.589  0.1596  0.4266  0.3485
34903W        W48317  11.428   2.566  13.786  0.1762 -0.1407  0.0935
34904W        W48318   7.504   3.229   4.410  0.0249 -0.2223 -0.1238
34905W        W48319  13.386   9.714  15.490 -0.0527  0.0295  0.1505
34906W        W48320   8.596  13.676   2.584 -0.0613  0.1464 -0.3218
34907W        W48321   9.109  12.852   2.146  0.0421  0.1152 -0.1605
34908W        W48322   6.064   9.945   6.011 -0.0709 -0.1058  0.2226
34909W        W48323  16.094   0.414   0.376  0.0197  0.1102  0.2132
34910W        W48324   3.528   6.214   0.831 -0.2003 -0.2282 -0.0407
34911W        W48325   7.860   8.604   6.384  0.2142  0.0106  0.4020
34912W        W48326  13.802  15.325  15.703  0.2097 -0.1699  0.0742
34913W        W48327   0.440  17.416   1.529  0.0138  0.3023 -0.0670
34914W        W48328   6.670   7.140   1.642  0.2896 -0.1774  0.1863
34915W        W48329  10.046  14.644   9.940 -0.0412 -0.0452  0.1537
34916W        W48330   3.880  17.464   1.342 -0.1361  0.2789  0.3323
34917W        W48331  14.028   5.239  13.938 -0.1128 -0.0180 -0.0306
34918W        W48332   8.733   9.720  12.498 -0.1688 -0.1560 -0.1640
34919W        W48333   5.470   7.024   0.148 -0.3441 -0.0997  0.2289
34920W        W48334   2.661  15.777  11.848 -0.0846  0.2575 -0.0739
34921W        W48335   0.491  17.256  15.732  0.1222 -0.2973  0.1716
34922W        W48336  11.212  17.619  11.982  0.0431  0.0312 -0.1802
34923W        W48337   3.240  14.268  14.507  0.1625  0.1077 -0.0305
34924W        W48338   5.032  12.376  14.098  0.0835  0.1208  0.0444
34925W        W48339   4.630  13.494   1.538 -0.1658 -0.0066  0.0770
34926W        W48340   5.498   4.457  12.592  0.1746 -0.1184 -0.1774
34927W        W48341   8.042  14.761   2.541 -0.1276  0.1732 -0.0406
34928W        W48342  11.007   4.129   5.641 -0.0032 -0.3388 -0.0520
34929W        W48343   8.174  10.030   4.646  0.3052  0.0363  0.0064
34930W        W48344  13.983   2.548   4.442  0.2346 -0.1159 -0.5684
34931W        W48345   4.609   7.887  12.250  0.0006  0.1040 -0.0631
34932W        W48346   5.140   9.387   6.017  0.1214 -0.0549  0.1055
34933W        W48347   9.086  12.614   5.003  0.1859  0.0292  0.2441
34934W        W48348   2.165   8.945   4.177 -0.0636  0.2768 -0.1366
34935W        W48349   4.256  12.650   4.758  0.1352  0.0563  0.0388
34936W        W48350   4.110   2.448   1.640 -0.3181 -0.0960 -0.1900
34937W        W48351   8.334  15.532   2.164  0.0253  0.0103 -0.1352
34938W        W48352   1.948   3.032  13.157 -0.0797 -0.0922  0.3104
34939W        W48353  10.527  13.197  13.430  0.0145 -0.0033  0.2647
34940W        W48354   2.193   2.500  13.265  0.1503  0.0400  0.1054
34941W        W48355   5.112  14.640   0.384  0.2566 -0.0014 -0.1548
34942W        W48356   6.054  14.395   4.708  0.3508  0.1010  0.0128
34943W        W48357   3.138   6.227  16.054  0.0203  0.0466  0.0397
34944W        W48358  13.424  12.053   0.818  0.0717  0.3993  0.1075
34945W        W48359   3.111  16.717  11.824  0.0401 -0.2319  0.4774
34946W        W48360  14.544   8.477   4.768  0.0362 -0.0404 -0.0650
34947W        W48361  16.705   0.758   0.016  0.1883  0.2643  0.1410
34948W        W48362   1.924   4.923   4.624  0.0177 -0.0243 -0.0154
34949W        W48363  14.906   1.498   5.792  0.0218  0.0069  0.1919
34950W        W48364   7.727   0.121  10.293 -0.1175  0.2599  0.0368
34951W        W48365   7.035  14.828  12.710 -0.1017 -0.1555 -0.2023
34952W        W48366   9.529  12.048  16.366 -0.2285 -0.0219  0.2075
34953W        W48367  10.405   2.767   0.961 -0.0154 -0.1691 -0.0471
34954W        W48368   7.445  15.286   1.608 -0.1618 -0.0196  0.1222
34955W        W48369   1.789  13.571  15.021  0.1984 -0.5276 -0.2794
34956W        W48370  10.922  10.627   0.599 -0.2703 -0.0516 -0.1676
34957W        W48371  17.437  13.967   0.158 -0.1338 -0.0327 -0.2394
34958W        W48372   4.033  15.687  12.966 -0.1796 -0.0594  0.2902
34959W        W48373   2.588   7.408  11.184 -0.2886 -0.1856 -0.0081
34960W        W48374   8.941   9.309  12.681  0.0760  0.1639  0.0135
34961W        W48375  17.184   2.764  15.919  0.0927 -0.2627  0.0252
34962W        W48376  12.822  17.478   0.039  0.0850  0.1134  0.0608
34963W        W48377  12.910  14.702   2.237  0.0650 -0.2229 -0.0001
34964W        W48378  13.967   3.246  16.243 -0.2489 -0.0632  0.2191
34965W        W48379   9.602  16.510  14.108 -0.0292 -0.1988 -0.1347
34966W        W48380  12.544   5.495   2.851 -0.1162 -0.2085 -0.0979
34967W        W48381   6.389  17.779  13.276 -0.1950  0.0796 -0.1053
34968W        W48382   3.710  17.050   4.056  0.0089  0.0533  0.1685
34969W        W48383   0.246   3.051   5.381  0.1276 -0.1553 -0.5030
34970W        W48384   8.523  10.030   0.893 -0.0899 -0.1165 -0.1677
34971W        W48385  10.282  15.709  12.416  0.0515 -0.1925  0.0713
34972W        W48386   6.769   8.252   0.868  0.0456  0.2258 -0.0062
34973W        W48387   8.948   7.126   0.922 -0.1633 -0.1559 -0.1680
34974W        W48388   9.182  10.190  14.015 -0.1471  0.2831 -0.3366
34975W        W48389  16.392  13.052   3.626  0.0093  0.1265  0.1963
34976W        W48390   9.171  14.599   0.911 -0.1700 -0.1950  0.0049
34977W        W48391  10.721  14.719   0.455 -0.0736  0.1293  0.0329
34978W        W48392  17.145  17.156   5.923  0.2395 -0.1767 -0.2074
34979W        W48393   7.417   4.313  14.198  0.2653 -0.1944 -0.3229
34980W        W48394  13.049   8.794  16.419  0.2331  0.3881 -0.1748
34981W        W48395   1.495   1.734  12.349 -0.0884 -0.0486  0.0570
34982W        W48396   8.572  16.142   5.022 -0.2571  0.0927 -0.2548
34983W        W48397   4.529  13.800   3.861  0.1159 -0.2130  0.3082
34984W        W48398  13.594   9.347   0.463 -0.1299  0.3205 -0.0125
34985W        W48399   1.628  17.023   3.537 -0.0025 -0.3481 -0.0808
34986W        W48400  10.625   7.179  16.597 -0.3794  0.1527 -0.0314
34987W        W48401   4.139   9.141   3.915 -0.0553 -0.0948  0.0698
34988W        W48402   7.179   7.138   1.722 -0.0235 -0.2365 -0.0706
34989W        W48403   7.852  12.215   3.251  0.3207  0.0180 -0.0486
34990W        W48404  13.363  17.817  12.337 -0.0122  0.1651  0.1395
34991W        W48405  16.349   3.175   1.145 -0.1106 -0.0628  0.0220
34992W        W48406   4.950  11.887   3.750  0.0799 -0.1970 -0.1307
34993W        W48407   8.346  16.850   2.746 -0.4054 -0.1378 -0.3621
34994W        W48408  12.201   0.028   1.548 -0.2307 -0.0317  0.1420
34995W        W48409   9.186  12.560  14.504 -0.2062 -0.0948  0.0198
34996W        W48410   3.263   6.839  15.203 -0.1116  0.2408  0.1987
34997W        W48411   2.980   4.756  15.671 -0.0943 -0.0519  0.1242
34998W        W48412  13.242  12.491   1.189  0.0355  0.0797 -0.0695
34999W        W48413  13.782   0.597   5.837 -0.2732  0.1218 -0.0557
35000W        W48414   4.889  13.114   4.346 -0.1383 -0.3333 -0.1726
35001W        W48415   7.595   1.834  14.823 -0.0390 -0.1836  0.0045
35002W        W48416   4.501   6.408  15.855 -0.0283 -0.0001  0.0335
35003W        W48417   7.109   9.803   5.981  0.1202  0.1593 -0.1964
35004W        W48418   8.568  13.676   2.092 -0.2933 -0.3138  0.0547
35005W        W48419  15.303  13.049  14.640  0.0340 -0.1892  0.1639
35006W        W48420  12.101   1.997  12.843 -0.0359 -0.1068  0.0338
35007W        W48421   5.399  16.194   5.656 -0.3330  0.0859  0.5879
35008W        W48422   6.033   5.607   5.052 -0.0663 -0.2264  0.0670
35009W        W48423   3.394   9.236  15.767  0.0138  0.2460 -0.2668
35010W        W48424  11.745   8.225  14.684  0.1682 -0.1695  0.1803
35011W        W48425  14.361  11.849  13.269 -0.1642 -0.0109 -0.0429
35012W        W48426   9.194   2.095   0.470 -0.1959 -0.1604 -0.0574
35013W        W48427   2.556   4.258   6.317 -0.1572 -0.3263 -0.1743
35014W        W48428   2.975  17.690  11.570 -0.1112 -0.0286 -0.0983
35015W        W48429   4.973  15.861   2.527  0.3669 -0.1623 -0.0207
35016W        W48430  13.249   2.148   5.330  0.3112  0.0984  0.1484
35017W        W48431  11.926   2.359   6.408 -0.0245 -0.2969  0.0033
35018W        W48432  14.695  15.676  11.969 -0.1003 -0.0282  0.2698
35019W        W48433  10.155  13.272   1.076  0.0116  0.0860 -0.1093
35020W        W48434  15.861   0.347  11.653 -0.1230  0.0737 -0.0141
35021W        W48435   9.482   0.577  16.582  0.4415  0.1400 -0.3957
35022W        W48436   6.503  11.722   4.360 -0.0883  0.0642  0.1822
35023W        W48437   6.449   9.421  14.611  0.0457  0.0734  0.2707
35024W        W48438   6.634   7.684   1.546 -0.2001 -0.2132 -0.0644
35025W        W48439  12.213   8.916   5.251 -0.1924 -0.0751 -0.1767
35026W        W48440  12.753   7.881   2.195 -0.4868 -0.2900 -0.0219
35027W        W48441   8.390  11.060  15.101  0.2583 -0.1691 -0.4815
35028W        W48442  16.051  13.987   4.449  0.1431 -0.0276 -0.4918
35029W        W48443  17.983   1.931  10.794  0.1776  0.2835 -0.1083
35030W        W48444  12.605   3.898  13.189 -0.0890  0.0482  0.1424
35031W        W48445  13.473  10.698  15.775  0.0815 -0.0704 -0.2268
35032W        W48446   2.094  16.286   3.961 -0.1428 -0.0380  0.2975
35033W        W48447   2.730   0.361   4.094  0.0495  0.1010 -0.0845
35034W        W48448  13.649   2.272   4.694 -0.0752  0.1525 -0.2980
35035W        W48449   2.826  15.365   1.771  0.2036 -0.0178  0.1908
35036W        W48450   8.485  18.040  15.570 -0.0907 -0.0082 -0.4735
35037W        W48451   9.528  13.733  10.556 -0.1255  0.1630  0.1011
35038W        W48452  13.237  16.154   5.477 -0.2001  0.0322  0.1182
35039W        W48453   4.532  17.304   0.111  0.1701  0.1178 -0.3304
35040W        W48454  12.013   4.418   5.748  0.0431  0.1567  0.2617
35041W        W48455   6.013  12.344  14.036 -0.3309 -0.1645  0.1263
35042W        W48456   2.095   5.652   3.075  0.0773 -0.0804 -0.1294
35043W        W48457  12.439   4.197   4.992 -0.0110 -0.2424  0.0631
35044W        W48458   1.717  17.907  13.475  0.0023 -0.1262  0.0259
35045W        W48459  15.592   1.485  13.308  0.0106 -0.0706 -0.0530
35046W        W48460  17.205   7.580   5.775 -0.0818  0.2444  0.1643
35047W        W48461   4.237   9.472   2.145  0.0400 -0.2640 -0.1766
35048W        W48462   2.701  13.367   2.111  0.1435  0.1638 -0.0586
35049W        W48463   7.396   8.203   3.137  0.2143 -0.1538  0.3773
35050W        W48464  12.979  16.977   2.269 -0.0469 -0.4675  0.2221
35051W        W48465   7.868   6.991   4.446 -0.0422  0.1611 -0.1548
35052W        W48466   3.532  16.173   4.398 -0.0321  0.0433 -0.4301
35053W        W48467  14.179  15.086   2.699 -0.1093 -0.1769 -0.0725
35054W        W48468  17.235   4.889  15.611 -0.2709  0.0228 -0.0518
35055W        W48469   3.603  12.603  12.847 -0.1067 -0.0205 -0.2965
35056W        W48470   5.858   7.640  10.973  0.0260  0.1866  0.0734
35057W        W48471  16.635  10.220  12.691 -0.3275 -0.2332 -0.3303
35058W        W48472   9.109   7.993   6.405 -0.1173  0.0416 -0.0169
35059W        W48473   5.444  15.124   5.517  0.0182  0.1803 -0.0239
35060W        W48474   8.225   3.766   4.236  0.2476  0.0098  0.0071
35061W        W48475   3.255  10.513   2.260  0.1757  0.2792 -0.0044
35062W        W48476   4.997   0.697  11.926  0.1171  0.0550 -0.1731
35063W        W48477   7.049   5.293   3.503  0.2264  0.0109  0.0192
35064W        W48478   3.177   7.651   4.859  0.0177 -0.1137 -0.1369
35065W        W48479  17.532   6.782   0.599 -0.0981 -0.0986  0.2103
35066W        W48480   4.758   9.090   4.731 -0.2156  0.0604 -0.2812
35067W        W48481  14.740  17.472  16.379  0.0281 -0.2570 -0.1262
35068W        W48482  13.860   5.997   4.353 -0.0556  0.3218  0.0179
35069W        W48483   8.278  16.982  14.717  0.1786  0.1644  0.1827
35070W        W48484  11.642   9.004  14.131 -0.3560  0.1466 -0.1446
35071W        W48485   5.861  12.892  15.531 -0.0047 -0.1922 -0.0861
35072W        W48486  11.583  17.352   2.109 -0.0809  0.3379  0.0617
35073W        W48487  13.671  13.001  12.906  0.0433 -0.0251 -0.0172
35074W        W48488  13.473   5.035  10.778  0.1313 -0.0809 -0.2273
35075W        W48489  12.259   9.323   3.029 -0.1469 -0.1236  0.1027
35076W        W48490  12.166   5.904  12.556 -0.0773 -0.0860 -0.3391
35077W        W48491  14.796   5.533   3.298 -0.2895  0.0359  0.0862
35078W        W48492   4.009  17.753  13.371  0.3977  0.1728  0.0720
35079W        W48493  10.655   9.999  13.371  0.0856 -0.1520 -0.2891
35080W        W48494  13.305   8.768  14.953  0.0607 -0.2421  0.3953
35081W        W48495   0.520  10.484  13.830 -0.2944 -0.2104 -0.1293
35082W        W48496   5.787   2.429  13.346  0.0942 -0.0085  0.4343
35083W        W48497   9.521   2.295  15.867 -0.0613  0.1777 -0.2104
35084W        W48498  13.093   5.991  16.190  0.2871 -0.3062  0.1544
35085W        W48499  17.050   2.584  14.500 -0.0298 -0.1818 -0.2651
35086W        W48500   8.935   5.576   2.201 -0.1062 -0.1581 -0.3095
35087W        W48501   8.102  12.597  12.852 -0.0881 -0.0557  0.0349
35088W        W48502   6.250   0.387  10.464 -0.3334 -0.0822 -0.2194
35089W        W48503  13.262  11.155  12.820 -0.1637  0.1466 -0.1998
35090W        W48504   9.352  11.955   2.251 -0.2187 -0.2670  0.0592
35091W        W48505  12.940  17.056  12.095 -0.1259  0.0264  0.0523
35092W        W48506  16.441  17.269   0.223  0.3962 -0.2627  0.2731
35093W        W48507  11.191  10.503   5.600 -0.1552  0.1676 -0.1662
35094W        W48508  16.087   3.552   3.826  0.2100 -0.1203 -0.2471
35095W        W48509  14.542   9.662  12.723 -0.1974  0.0862 -0.0514
35096W        W48510   1.444   1.401  14.661  0.1406  0.0837 -0.5078
35097W        W48511  16.211   9.218   1.211 -0.1789  0.2338  0.1324
35098W        W48512  15.412  15.344  11.715  0.2430  0.1760 -0.1480
35099W        W48513   5.882   2.975  11.099  0.2499  0.2422 -0.0732
35100W        W48514   2.974  13.364  10.459  0.0006  0.1753 -0.0542
35101W        W48515  12.234   3.191   2.524 -0.1234 -0.0997 -0.0580
35102W        W48516  11.773  15.517   4.009 -0.0533  0.0569  0.3051
35103W        W48517  16.058   7.375  14.114  0.2649  0.1040  0.0456
35104W        W48518   1.452  16.879   0.581  0.1151 -0.1367  0.1486
35105W        W48519  15.174   8.687   3.614  0.0277 -0.0063  0.0162
35106W        W48520   3.730  15.606  16.262 -0.0752  0.1765  0.1866
35107W        W48521   2.058  14.610   0.084  0.1803 -0.3954  0.0690
35108W        W48522   8.434   8.461  11.264 -0.0066 -0.1366  0.2111
35109W        W48523  16.980   1.215   5.037  0.1976 -0.0248 -0.2224
35110W        W48524   6.798   4.834  10.622  0.1130  0.1106 -0.0412
35111W        W48525   8.529   3.625  12.896 -0.2493  0.2071 -0.1858
35112W        W48526  10.178  16.995  16.165  0.0255  0.0065 -0.0668
35113W        W48527  17.721   9.217  12.243  0.1182 -0.1011 -0.0314
35114W        W48528   3.315   5.827  11.810  0.2483  0.2364 -0.1582
35115W        W48529  15.188  17.683   0.724 -0.0149  0.0219  0.4248
35116W        W48530   8.655   5.101   5.386  0.0131 -0.0265 -0.0157
35117W        W48531   4.724   0.844   2.316  0.1758 -0.0138  0.0210
35118W        W48532   3.416   5.015   3.359  0.2229 -0.4182 -0.0515
35119W        W48533   1.605   3.470   6.197  0.1968 -0.0010  0.0341
35120W        W48534  10.925  12.247  13.823 -0.1884 -0.3189  0.0084
35121W        W48535  10.516   2.100  10.574  0.1838  0.0252  0.1888
35122W        W48536   3.212   8.149   1.807  0.0907 -0.0746  0.1270
35123W        W48537  11.665  14.806  11.610  0.3173 -0.0127  0.1617
35124W        W48538   0.507  16.689   4.982  0.2408 -0.2173 -0.1276
35125W        W48539  13.362   7.795  16.301 -0.2559  0.2237 -0.2435
35126W        W48540   4.209  15.774  14.562 -0.0374  0.1950 -0.3530
35127W        W48541   9.480   4.550  11.832  0.1013  0.2452 -0.1509
35128W        W48542  10.013  12.085  16.621 -0.3775  0.2356 -0.1542
35129W        W48543  12.388   3.183  14.778  0.1749  0.0629 -0.0030
35130W        W48544   1.902  16.655   1.837 -0.1774  0.1739  0.0470
35131W        W48545   8.031   4.791  15.774 -0.0412  0.0303  0.2396
35132W        W48546  15.166   2.854   5.786  0.1612  0.2611  0.0422
35133W        W48547  12.893   9.313   2.904 -0.0341  0.2464 -0.0537
35134W        W48548   8.868  12.327  12.113  0.1934 -0.1843  0.3181
35135W        W48549   3.978   1.166  14.229 -0.2390 -0.0896  0.1369
35136W        W48550  15.547   3.569   3.577 -0.1307 -0.0821 -0.0471
35137W        W48551  10.870   1.537   0.428 -0.3044 -0.1899  0.3619
35138W        W48552  15.883   9.279   5.077  0.2794 -0.1190 -0.0278
35139W        W48553  17.351  11.196   0.358  0.0419 -0.1013  0.0068
35140W        W48554  14.736   6.789  15.961 -0.0720  0.0306 -0.2175
35141W        W48555  10.152  15.434   2.339  0.2370  0.3805  0.2918
35142W        W48556   9.677   1.440   0.295 -0.1363  0.2198 -0.0102
35143W        W48557   7.319  12.889  13.388 -0.2885 -0.1563 -0.1933
35144W        W48558   3.512   9.823  11.553 -0.1028  0.0983 -0.1162
35145W        W48559  16.803   1.307  14.638 -0.0418  0.1448  0.0288
35146W        W48560  15.884   8.788   4.386 -0.4156  0.0418 -0.1301
35147W        W48561   5.595   1.430  14.141 -0.0532 -0.1022  0.0481
35148W        W48562  17.262   9.008   0.198 -0.4480 -0.0235 -0.0488
35149W        W48563   8.884   9.375   5.076 -0.1368 -0.1813  0.3091
35150W        W48564   1.419  13.711   5.073  0.4647 -0.2178 -0.1955
35151W        W48565  12.814   5.621   5.119 -0.0212  0.0470 -0.1845
35152W        W48566   2.006   9.951   4.431  0.0288 -0.2714 -0.0106
35153W        W48567   4.766  14.098   4.357  0.1280 -0.1130  0.0699
35154W        W48568   8.435  17.668  15.965 -0.1963  0.0399 -0.1182
35155W        W48569  10.764  15.018  15.454 -0.0154 -0.0367  0.1829
35156W        W48570   0.829   4.565  13.182  0.0052 -0.1539 -0.2143
35157W        W48571   6.450   5.291  15.377  0.0952  0.0386 -0.1284
35158W        W48572   4.371   5.408  10.529 -0.0234 -0.0627 -0.0460
35159W        W48573  11.940   2.276  10.549 -0.2158 -0.2883  0.0560
35160W        W48574   1.907  17.399   6.049  0.0685  0.2698  0.3958
35161W        W48575   1.709   9.577   4.351 -0.0253 -0.0501 -0.1287
35162W        W48576   7.250  10.456   4.627  0.2174 -0.0023  0.0641
35163W        W48577   3.754  10.948  15.827  0.0466  0.0786 -0.0173
35164W        W48578  17.421  12.195   6.465  0.0509  0.1096 -0.2462
35165W        W48579   6.697   6.428  13.607  0.2592 -0.0793  0.2447
35166W        W48580   6.269  17.470   0.927  0.1068  0.0785  0.2621
35167W        W48581   5.211   4.850   3.623 -0.1210  0.0055 -0.1011
35168W        W48582   9.659  15.237   1.070  0.1417  0.1697  0.1974
35169W        W48583   8.817   8.795   4.222  0.1071 -0.0022  0.3217
35170W        W48584  10.366   7.758   3.941 -0.0048 -0.0490  0.0616
35171W        W48585  12.536   9.464   0.330 -0.0018  0.2907  0.2344
35172W        W48586  12.621  11.609  15.460 -0.0679  0.1486 -0.3230
35173W        W48587   5.901   4.075   3.353  0.1425  0.2512  0.2293
35174W        W48588   5.307  11.453  12.676 -0.3412 -0.2036 -0.2353
35175W        W48589   4.804  11.634   5.029  0.4301  0.0793 -0.2932
35176W        W48590   5.600  17.935  11.769 -0.0042  0.0861 -0.0890
35177W        W48591   0.345  17.632   2.177  0.0264 -0.1860 -0.0338
35178W        W48592   3.327  14.869  14.481 -0.2005  0.1156 -0.0045
35179W        W48593   8.113  12.717   2.445  0.0252 -0.2526 -0.0025
35180W        W48594   4.190   2.589   3.542 -0.2956 -0.1524  0.3387
35181W        W48595  13.358   9.802   3.834 -0.0378 -0.0573 -0.0849
35182W        W48596   6.560  11.147  15.148 -0.0964 -0.1024 -0.0195
35183W        W48597  10.149   7.820   0.942 -0.0580 -0.0746  0.1726
35184W        W48598   6.249  13.472   1.656 -0.2131 -0.2030 -0.0018
35185W        W48599  13.729  17.148   0.459 -0.2573 -0.2030  0.0243
35186W        W48600  13.451  15.036  10.795 -0.1368 -0.2958  0.2292
35187W        W48601   0.170  11.815  15.626  0.0509 -0.1158 -0.0469
35188W        W48602   4.124  16.193  10.657 -0.2605 -0.1019 -0.3279
35189W        W48603   0.525  13.892   1.991  0.1024 -0.2071 -0.2107
35190W        W48604   9.478  12.607  11.059 -0.2842  0.2057 -0.2705
35191W        W48605  16.399   5.878  14.917  0.0186  0.0310 -0.2575
35192W        W48606   1.416   3.056  16.622 -0.2064  0.0375 -0.1416
35193W        W48607   5.785  12.816  12.459 -0.1807  0.0926  0.0522
35194W        W48608   4.167   4.653  12.487  0.0595  0.1095  0.0037
35195W        W48609   0.979   9.052   4.184 -0.0542 -0.4372 -0.2015
35196W        W48610  14.364   6.042   5.889 -0.1300  0.1435  0.0149
35197W        W48611  12.748   8.169   3.436 -0.0147  0.2417 -0.0148
35198W        W48612  12.282   2.454  13.757  0.0448  0.1440 -0.2321
35199W        W48613   3.510   3.526  14.002  0.1236  0.2005 -0.3579
35200W        W48614  11.707   9.408  13.322 -0.1518 -0.0132 -0.2301
35201W        W48615   4.210   4.615  15.246 -0.1112 -0.1811  0.0264
35202W        W48616  15.317  15.209  15.279  0.0676 -0.2019  0.2576
35203W        W48617  13.405  12.332  16.438  0.1307 -0.0474 -0.2053
35204W        W48618   2.818  13.005  14.017 -0.1097  0.1136 -0.0299
35205W        W48619  10.809  14.626   2.578 -0.0074 -0.2494  0.0575
35206W        W48620   0.582   3.239   5.700 -0.1691 -0.3328 -0.3479
35207W        W48621   1.656  12.337   4.254 -0.2397 -0.2113  0.3554
35208W        W48622   9.606   4.382  15.991  0.1352 -0.3178 -0.3986
35209W        W48623  12.507  17.514   5.964  0.2284 -0.0397 -0.1590
35210W        W48624   3.342  16.461   5.271 -0.2726 -0.0144 -0.1076
35211W        W48625  17.940  14.146   3.491 -0.3586  0.0110 -0.4634
35212W        W48626   1.735  14.426   3.557  0.1945 -0.4188 -0.0242
35213W        W48627   3.438   8.003  14.119  0.4196  0.0590  0.1598
35214W        W48628  14.857   7.048   0.683 -0.0109  0.3293 -0.0459
35215W        W48629   1.081   4.422   2.066  0.0790 -0.1174  0.1120
35216W        W48630  10.676  16.734   3.034 -0.0970  0.2571 -0.0148
35217W        W48631   0.975  15.775   4.171  0.1727  0.1667 -0.1559
35218W        W48632   6.028  15.993  13.662  0.1161  0.0854 -0.0360
35219W        W48633   3.625   2.433   1.841  0.1014  0.1097 -0.3065
35220W        W48634  12.760   2.846  12.530 -0.0244 -0.0613 -0.3930
35221W        W48635   3.518  15.305  16.584  0.0139 -0.3364  0.1505
35222W        W48636   9.062   5.849   0.862  0.1732 -0.1498  0.1468
35223W        W48637  14.196  11.851   2.340 -0.2453  0.2125 -0.4070
35224W        W48638   8.103   2.974   3.054  0.0159 -0.0936  0.0138
35225W        W48639   3.269  17.833   4.583 -0.0606  0.0031  0.1166
35226W        W48640  10.670  12.884  11.234  0.0795  0.1749  0.0439
35227W        W48641  16.173   6.607  14.714  0.2004 -0.0369  0.2419
35228W        W48642   1.025   6.045  14.019 -0.1537 -0.0876 -0.1333
35229W        W48643   1.946   4.968  13.245 -0.1284  0.1803 -0.1701
35230W        W48644   4.370  10.701  10.620 -0.1860  0.1221 -0.1089
35231W        W48645   0.856  13.875   4.492 -0.1740 -0.1321  0.0438
35232W        W48646  11.698  12.879  12.688 -0.2443 -0.2846  0.0671
35233W        W48647   6.160  14.676  14.204  0.0763  0.3114  0.1449
35234W        W48648  16.818   2.623   4.770 -0.2310 -0.4246  0.1083
35235W        W48649   0.423   1.772   1.775 -0.0891 -0.2496  0.1838
35236W        W48650   5.318  13.490  16.063 -0.1991  0.1894 -0.0541
35237W        W48651  10.278  15.932  13.547  0.3623 -0.0132  0.1642
35238W        W48652   2.175   5.653  15.602  0.0785 -0.0799 -0.2026
35239W        W48653   1.657  10.067  13.674  0.3611  0.2575  0.1302
35240W        W48654  16.168   0.385   0.883  0.2160 -0.4649 -0.0946
35241W        W48655   2.175   3.710  14.419 -0.1084 -0.1430 -0.0494
35242W        W48656  15.674  14.180   4.751  0.0726  0.1058  0.2712
35243W        W48657   3.234   6.222   2.142  0.4120  0.0834  0.1433
35244W        W48658   4.547   6.276   3.042 -0.4747  0.0512 -0.0268
35245W        W48659  10.752  13.461   4.259  0.0860  0.2030 -0.0516
35246W        W48660  13.506   7.918  13.353 -0.2441 -0.2148 -0.0322
35247W        W48661   5.406   4.943   1.450  0.1355  0.1848  0.0208
35248W        W48662  10.181  17.415  16.437  0.1029 -0.0401 -0.0349
35249W        W48663   2.047  12.599  14.103 -0.1198 -0.2285  0.1856
35250W        W48664   1.982   7.249   0.247  0.1590 -0.0980  0.1402
35251W        W48665   0.668  17.312  11.639 -0.0832  0.4463  0.2233
35252W        W48666   1.677   6.165   0.609 -0.2219 -0.3534 -0.0973
35253W        W48667   6.329   5.312   4.317 -0.2205 -0.2927  0.1530
35254W        W48668  17.455   8.881   2.410  0.0758 -0.0867  0.3940
35255W        W48669   1.964  10.294  14.719 -0.1002  0.2817 -0.3225
35256W        W48670  11.594   1.435   5.895 -0.2464  0.0733  0.0007
35257W        W48671   0.248  16.042  12.378  0.0407  0.1791  0.1068
35258W        W48672  14.716   0.584   4.718 -0.4551  0.1595  0.1186
35259W        W48673   9.042   8.281  11.586 -0.0396  0.0327  0.3808
35260W        W48674   8.868  17.875  13.829  0.1500 -0.2701  0.1995
35261W        W48675  12.959  15.996  11.871  0.3444  0.1504 -0.1938
35262W        W48676   5.756  15.516   0.749  0.0522  0.2031 -0.1672
35263W        W48677  14.312   1.754   1.759  0.2854 -0.2591 -0.0796
35264W        W48678   2.406   8.140   1.499  0.1042  0.2131 -0.2161
35265W        W48679   7.859   8.409  16.055  0.0253 -0.1405 -0.1140
35266W        W48680  13.974   5.004  14.560 -0.1354 -0.1150  0.2024
35267W        W48681  13.597  17.728   5.974 -0.0742 -0.0820  0.1106
35268W        W48682   4.923   1.219  13.002  0.0786  0.3374  0.3315
35269W        W48683   6.102   5.197   4.787  0.1485 -0.2693  0.1639
35270W        W48684   6.401  17.150   0.582 -0.1360  0.2525  0.2583
35271W        W48685   7.510  14.463  11.590  0.1110 -0.1279  0.3740
35272W        W48686   7.278   7.216   2.793 -0.0248  0.1095  0.0827
35273W        W48687   2.435  17.546   1.524  0.2616  0.2568 -0.0213
35274W        W48688  13.267   8.916   3.776 -0.1192  0.3159  0.3755
35275W        W48689  16.351   1.670   5.369 -0.1124 -0.0514 -0.0186
35276W        W48690   9.331   4.753   4.228 -0.3391 -0.4733 -0.0056
35277W        W48691  12.997   1.163   1.718 -0.2162 -0.1788  0.1086
35278W        W48692   2.841  14.752  14.829  0.1576 -0.1321  0.1496
35279W        W48693   9.721   4.180  12.645  0.0380 -0.0810 -0.3377
35280W        W48694   8.566  10.785  13.718  0.0631 -0.0106 -0.0540
35281W        W48695   5.692  17.583   5.438 -0.1583  0.1221 -0.0256
35282W        W48696   7.264   9.330  13.935  0.0321  0.0447 -0.0097
35283W        W48697   3.463  14.001   3.993  0.0294 -0.0890 -0.0282
35284W        W48698   6.924  13.018   1.986  0.1073 -0.1918 -0.0268
35285W        W48699  10.512  16.727   0.615 -0.1673  0.3010 -0.4399
35286W        W48700   8.496  11.586   4.265 -0.2654  0.1303  0.0419
35287W        W48701  16.124  10.331   0.933  0.0924  0.3057 -0.0935
35288W        W48702  16.029   1.438   2.850 -0.2501  0.2279 -0.1821
35289W        W48703  12.277  13.949  16.633  0.2735 -0.3075 -0.0903
35290W        W48704   4.358  14.292   4.051 -0.0803 -0.2837  0.0021
35291W        W48705  16.136  10.098  10.511  0.0352  0.3402 -0.1817
35292W        W48706   2.276   2.997   1.508 -0.0238 -0.2797 -0.0253
35293W        W48707   0.661  10.089   2.479 -0.1859 -0.2418 -0.2276
35294W        W48708   1.536   7.477  10.961 -0.1363  0.4943  0.1762
35295W        W48709   7.699   9.000  12.715 -0.0200 -0.0241  0.1803
35296W        W48710   3.613   1.857   5.958 -0.1931  0.1515 -0.0143
35297W        W48711   1.250  10.808  15.109 -0.1640 -0.1625  0.1552
35298W        W48712  11.027  17.538  16.677 -0.0915  0.1922  0.4595
35299W        W48713   5.916   2.843   3.638 -0.4059 -0.1187  0.0139
35300W        W48714  16.432   6.666  16.071  0.1702  0.0642 -0.2355
35301W        W48715  16.158   8.695  13.116 -0.1089 -0.0211  0.0361
35302W        W48716  12.438  17.715   1.816 -0.0435  0.1251  0.2547
35303W        W48717  11.028  11.835  14.510  0.0584 -0.0758  0.1744
35304W        W48718  14.014  10.887   2.779  0.0439 -0.1436  0.4042
35305W        W48719  13.009  17.882   1.852 -0.3197  0.1784 -0.0591
35306W        W48720  15.955   4.953  14.821 -0.4055  0.0941  0.0977
35307W        W48721   5.904   6.427   0.582 -0.0286  0.0257 -0.1527
35308W        W48722   2.572   8.003  13.271  0.0919  0.0760 -0.0169
35309W        W48723   8.325   4.795   4.486  0.1315 -0.0003  0.1670
35310W        W48724  17.119  11.152   4.279  0.0730 -0.0267  0.0436
35311W        W48725   8.262   0.903   0.045  0.0593  0.3534 -0.0519
35312W        W48726   2.654  15.072   1.380 -0.0899 -0.2220  0.0338
35313W        W48727  11.761  17.749  11.354 -0.0123 -0.1185 -0.3454
35314W        W48728   1.421   3.064   6.403  0.3083 -0.0519  0.0853
35315W        W48729  17.164  17.279  14.532 -0.3719 -0.1325  0.0432
35316W        W48730   6.193   9.116   5.780 -0.0271  0.0832  0.1471
35317W        W48731   0.184  17.090   4.872  0.0386 -0.0221 -0.0692
35318W        W48732   7.654  15.821  11.123 -0.3419  0.0165 -0.0172
35319W        W48733  11.880   9.542  14.898 -0.4158  0.1944 -0.0905
35320W        W48734   2.872   0.820   4.306 -0.1763  0.1053 -0.2864
35321W        W48735   5.111  11.676   5.405  0.2733 -0.1614  0.1760
35322W        W48736   3.825  12.905   4.685  0.0708  0.1854 -0.1410
35323W        W48737  17.379   3.021   1.728 -0.2437 -0.3542 -0.0101
35324W        W48738   9.702   1.802   2.037 -0.3639  0.1955  0.1857
35325W        W48739   3.908   0.436   2.075  0.0194  0.1007 -0.1140
35326W        W48740  12.493  10.803  10.817 -0.0328 -0.3409 -0.0096
35327W        W48741   7.933   9.902   4.037 -0.0347 -0.1063 -0.0920
35328W        W48742  16.673   3.147  12.824 -0.0622 -0.3892  0.0825
35329W        W48743   6.519   1.707  14.035  0.0222  0.0397 -0.1415
35330W        W48744  16.448  15.981  13.826  0.1462 -0.1303  0.2556
35331W        W48745  14.090   6.489  14.081 -0.2193  0.0260 -0.1792
35332W        W48746   5.270  15.382   4.806 -0.0032  0.1200 -0.1494
35333W        W48747  11.611  10.676   5.877 -0.0520  0.3642  0.0199
35334W        W48748  16.892   0.498   4.749  0.0373  0.1900 -0.0646
35335W        W48749  12.588   5.388   3.842 -0.0668 -0.0606 -0.3886
35336W        W48750   2.877  18.013   2.277  0.1024  0.0701  0.3304
35337W        W48751  17.313  11.995  13.143  0.1176 -0.1435 -0.2282
35338W        W48752   9.598  13.918   0.308 -0.0364  0.3523  0.1927
35339W        W48753   2.036   1.220   1.444 -0.0735 -0.2206  0.0234
35340W        W48754  16.231  12.884   2.841 -0.1567  0.0638 -0.0547
35341W        W48755   8.387   3.245   1.193 -0.0452  0.0263 -0.3603
35342W        W48756   5.037   5.938  14.799 -0.0386 -0.3783 -0.0066
35343W        W48757   8.292  10.480   4.784 -0.0365  0.0943 -0.1774
35344W        W48758   6.596  15.277  10.769  0.3102 -0.0050  0.4602
35345W        W48759   3.411   5.300   0.776 -0.0584 -0.0229 -0.0629
35346W        W48760  13.178   5.564   0.452  0.2353  0.0916  0.0094
35347W        W48761  14.080  11.165  15.115  0.0503  0.3271  0.1322
35348W        W48762  16.500   3.161  12.343  0.3627  0.1793 -0.1163
35349W        W48763  13.781  10.419  11.624  0.0416 -0.2384  0.0149
35350W        W48764  11.073  16.596   0.671  0.0313 -0.2917  0.2103
35351W        W48765   5.929   8.720   2.052 -0.1133  0.4653 -0.0565
35352W        W48766   5.906   0.502   3.177  0.0919 -0.0634  0.1414
35353W        W48767   5.260   2.172  11.889  0.0616 -0.1074  0.3667
35354W        W48768  17.085  12.294   3.964 -0.2575 -0.1459 -0.0916
35355W        W48769  11.008  16.708  11.983 -0.2487 -0.0314  0.4074
35356W        W48770   5.591   2.192   3.698  0.1805  0.1002  0.1802
35357W        W48771   2.571   5.914  13.975  0.0025  0.1644  0.0854
35358W        W48772  10.043   0.124  10.613 -0.0232  0.1072 -0.2767
35359W        W48773   2.008  10.234   1.936  0.1772 -0.1020  0.2136
35360W        W48774   4.106  13.515   5.714 -0.0354  0.0374 -0.2371
35361W        W48775  14.819   6.573   3.524  0.3441 -0.1816  0.0473
35362W        W48776   6.647  10.342   1.972  0.1423 -0.0150  0.0470
35363W        W48777   7.224   7.342  13.710 -0.2146  0.0797  0.1117
35364W        W48778   8.694   3.172   2.791 -0.1951  0.0368 -0.3397
35365W        W48779   4.520  11.959   4.861 -0.0448 -0.0826  0.0361
35366W        W48780  11.554   3.517   2.587 -0.1963  0.4243 -0.0435
35367W        W48781   9.167   4.810   1.793 -0.0898 -0.1372  0.0968
35368W        W48782  14.343   1.307  10.200  0.1629  0.0183  0.2685
35369W        W48783   0.514   2.108  16.627  0.1065 -0.0945 -0.0477
35370W        W48784   5.156  14.649   3.554 -0.1743  0.2335 -0.0074
35371W        W48785   1.334   8.371  14.067 -0.0956 -0.0010 -0.1202
35372W        W48786   9.438  10.612  15.137  0.0992  0.0488  0.2535
35373W        W48787   2.319  16.744  15.341  0.2266 -0.2021 -0.0955
35374W        W48788  14.064  16.453   3.258  0.0515  0.1279 -0.0148
35375W        W48789   5.128  13.514   1.559  0.2165  0.2712 -0.0593
35376W        W48790   8.011  14.042   2.100 -0.1542  0.0674  0.0051
35377W        W48791  13.358   1.921   4.036  0.1578 -0.0497 -0.0179
35378W        W48792  16.777   7.419  14.923 -0.0293  0.2861 -0.1251
35379W        W48793   3.903   1.120  16.577  0.1849 -0.3160  0.2535
35380W        W48794  16.753   2.787   4.002  0.0235 -0.1256 -0.4617
35381W        W48795  11.839  16.121  10.976  0.0655 -0.0227 -0.1981
35382W        W48796   8.761  10.549   2.393  0.3983  0.1357  0.4300
35383W        W48797  15.068  13.484  12.068 -0.1138 -0.0820  0.1236
35384W        W48798   9.304  13.954   3.338 -0.1675  0.0315  0.0196
35385W        W48799   8.720   5.626   0.451  0.1284  0.0668  0.2062
35386W        W48800   4.039   2.829  15.087 -0.1589 -0.1333 -0.1085
35387W        W48801  14.556   0.319  12.419  0.0627 -0.0474  0.1818
35388W        W48802   6.186  14.111  10.113  0.0865 -0.0157 -0.1893
35389W        W48803   2.409  10.951  10.239  0.3476 -0.0677 -0.0394
35390W        W48804  12.838  17.020   3.555  0.0534  0.1546  0.3365
35391W        W48805   3.936   4.628  12.970 -0.1175  0.4577  0.0930
35392W        W48806  12.916   4.232  11.194 -0.3124  0.2018  0.1733
35393W        W48807  12.432  17.048  16.529 -0.1602  0.1424 -0.0368
35394W        W48808   8.767  17.038  14.548  0.0734  0.1354 -0.0579
35395W        W48809  13.549   7.984   3.007 -0.2517 -0.0918  0.1258
35396W        W48810   7.883   8.075  16.454  0.1191 -0.1516 -0.1179
35397W        W48811   6.975  10.062  11.235 -0.0518 -0.2483  0.1157
35398W        W48812   0.126  15.723  16.691  0.0091  0.0031  0.1541
35399W        W48813   0.138  16.575   0.336 -0.2965  0.1111 -0.2997
35400W        W48814  13.683  14.109  15.527  0.2805 -0.1214 -0.0085
35401W        W48815  11.753  14.797  10.507  0.0041 -0.1597 -0.0588
35402W        W48816  12.793  16.329   5.682  0.3950  0.2032 -0.0738
35403W        W48817  17.835  12.525   1.102 -0.0362  0.0521  0.3156
35404W        W48818   7.422   9.731  13.428  0.2139  0.0834 -0.0086
35405W        W48819   3.575  15.959   3.209  0.2197  0.2486  0.3712
35406W        W48820   1.056   1.611   4.215 -0.0116  0.2190 -0.2844
35407W        W48821  14.156  10.470  14.483  0.2283  0.0734 -0.0572
35408W        W48822   0.535  14.765   4.748  0.0334  0.6168  0.3049
35409W        W48823   0.589   8.594  13.736 -0.0133  0.3985  0.2772
35410W        W48824   1.605   8.964   4.915  0.0638  0.0034  0.2311
35411W        W48825   5.994   5.272  14.568  0.0620 -0.2830 -0.1139
35412W        W48826   5.159  12.610   5.933  0.2643  0.1065  0.3052
35413W        W48827  16.200   1.221  15.895  0.0785 -0.0628 -0.2155
35414W        W48828   5.966  16.931   6.170 -0.1719  0.2378 -0.2516
35415W        W48829   1.075   4.882  11.801 -0.1934 -0.2316  0.2107
35416W        W48830   9.213   0.993   1.111 -0.0464  0.2089  0.0031
35417W        W48831   9.314   0.767  12.639 -0.3309  0.0571 -0.0087
35418W        W48832  10.183  11.742  15.628 -0.3840  0.2717 -0.1154
35419W        W48833  11.027  15.375  15.709 -0.0003 -0.1196  0.0750
35420W        W48834   8.651   7.143   5.314  0.0207  0.0681  0.1218
35421W        W48835  13.964  15.113  13.488  0.1649 -0.0288 -0.1625
35422W        W48836   5.173  15.152   0.595 -0.0821 -0.2226 -0.3144
35423W        W48837   5.698  15.955   6.578  0.0609  0.1271  0.1140
35424W        W48838  11.152  17.783  12.648  0.0552  0.1116  0.3749
35425W        W48839   6.987  13.812   1.830  0.0965 -0.0793 -0.1768
35426W        W48840   5.480   2.436   0.947 -0.3758  0.4173 -0.2260
35427W        W48841  17.448   8.501  11.198 -0.0379  0.1645 -0.4581
35428W        W48842   7.871  10.146   3.482 -0.0389 -0.2239 -0.3881
35429ION     NA48843   2.244   7.752   2.783 -0.1868 -0.1390  0.2741
35430ION     NA48844   9.009  12.268  16.292 -0.1303 -0.3678 -0.2661
35431ION     NA48845   8.260  11.151  10.366 -0.1605 -0.3090 -0.2037
35432ION     NA48846   1.573   6.612  13.321  0.2371  0.0394  0.1491
35433ION     NA48847   7.488   9.562   1.249  0.0356 -0.0185  0.3848
35434ION     NA48848   4.188  12.249   0.032 -0.0842  0.3113  0.3320
35435ION     NA48849   1.706  12.587   2.729 -0.4909  0.0531 -0.0957
35436ION     NA48850   8.915  10.506  10.815 -0.2101 -0.0853 -0.1727
35437ION     NA48851  13.824  17.237  12.230 -0.1995  0.1343 -0.0222
35438ION     NA48852   9.304  11.565   6.016 -0.0198  0.1152 -0.0113
35439ION     NA48853  16.746  13.565   6.022 -0.1003 -0.0890  0.0080
35440ION     NA48854   4.678   1.060   1.116 -0.1051 -0.0840 -0.1821
35441ION     NA48855  17.913  15.355   2.225  0.1148 -0.4206  0.0905
35442ION     NA48856  10.967  14.764   4.598 -0.1420 -0.3012 -0.1097
35443ION     NA48857  10.856   5.172   3.169 -0.0349 -0.1878 -0.0716
35444ION     NA48858   8.075  14.672  15.992  0.2463  0.0315 -0.0200
35445ION     NA48859   3.585   8.478   6.290 -0.0875 -0.1636  0.0775
35446ION     NA48860   9.776  11.627  11.912  0.2263 -0.0269 -0.1328
35447ION     NA48861   4.137   9.670   3.297 -0.4019  0.1006 -0.1400
35448ION     NA48862   8.317  13.625  15.215  0.1402 -0.1961  0.1415
35449ION     NA48863  10.731   7.911  10.319 -0.1254 -0.1755  0.0236
35450ION     NA48864  13.905   8.992  10.630  0.1039  0.3585 -0.2181
35451ION     NA48865  10.446   0.464   0.839  0.0973  0.0881 -0.2506
35452ION     NA48866   5.220   2.037  10.532 -0.0903  0.0350 -0.0834
35453ION     NA48867   7.594  10.102   4.435 -0.2544 -0.1622  0.1692
35454ION     NA48868  15.402   4.523  11.171 -0.2665 -0.2427 -0.2399
35455ION     NA48869   9.452   3.244  13.834  0.1563 -0.0636 -0.2677
35456ION     NA48870   6.825  16.763   6.359 -0.0471  0.0130 -0.2717
35457ION     NA48871  14.689  15.647  10.276  0.1559  0.0258 -0.0370
35458ION     NA48872   8.209  12.615   3.922 -0.2764  0.1359 -0.1339
35459ION     NA48873  13.696   7.243  12.875  0.2554  0.1062 -0.3409
35460ION     NA48874  13.272  17.424  15.036  0.1271 -0.0447 -0.3116
35461ION     NA48875  10.423  13.833   5.854  0.0918 -0.1864 -0.0499
35462ION     NA48876   2.260  10.317   3.676 -0.1212  0.0253 -0.1504
35463ION     NA48877  17.372   5.838  11.035 -0.0401 -0.2249 -0.3095
35464ION     NA48878   3.213  12.169  10.388 -0.0605  0.1545  0.0898
35465ION     NA48879   3.588   5.330   6.676 -0.0313 -0.1189  0.3529
35466ION     NA48880  11.127   0.750   4.310  0.0480 -0.0652  0.2252
35467ION     NA48881   3.229  10.905   6.319 -0.1033 -0.1524  0.1481
35468ION     NA48882   6.406   0.541   6.204  0.1588  0.0457 -0.3113
35469ION     NA48883   7.790   6.984  14.263  0.5354 -0.2262 -0.2179
35470ION     NA48884   0.759  12.184   0.658 -0.0691  0.4488  0.1783
35471ION     NA48885  17.262   4.682   4.410  0.0233  0.1235  0.2235
35472ION     NA48886   8.642   7.938   1.473  0.1948  0.2283 -0.1097
35473ION     NA48887  15.129  12.763  10.194 -0.1747 -0.1144 -0.2735
35474ION     NA48888   4.654   8.278   5.313 -0.2161  0.1998  0.2189
35475ION     NA48889   9.517   3.428  10.288  0.0500  0.1994  0.1762
35476ION     NA48890   3.878   6.163   6.442  0.0232  0.1076 -0.0105
35477ION     NA48891   2.979  10.407  13.351 -0.1250 -0.1289 -0.0177
35478ION     NA48892  11.690   1.843   6.156  0.0862  0.4071 -0.1154
35479ION     NA48893  14.544   4.663   6.839 -0.1263  0.0635 -0.0116
35480ION     NA48894   3.152  14.928   6.540  0.0635  0.1849  0.5978
35481ION     NA48895   4.610   9.842  13.343 -0.1684 -0.1013 -0.1223
35482ION     NA48896   8.670   4.798   1.055  0.0442  0.1308  0.0009
35483ION     NA48897   0.212   6.854  13.244  0.0465 -0.1388  0.0328
35484ION     NA48898  13.153   3.595  11.399  0.0699 -0.0646 -0.1379
35485ION     NA48899  16.577  10.353  10.484 -0.2376 -0.1938 -0.0560
35486ION     NA48900   9.695  11.184   6.218 -0.3776 -0.2292 -0.2171
35487ION     NA48901  10.181   3.741  13.525 -0.0325  0.0396 -0.0409
35488ION     NA48902   9.293  14.173  10.526 -0.1293 -0.0787  0.1584
35489ION     NA48903   7.240  17.978   4.799  0.0154  0.2821 -0.0946
35490ION     NA48904  15.213  17.231  13.830 -0.2509 -0.1005 -0.1372
35491ION     NA48905  15.322   9.192   3.369 -0.2204  0.0163 -0.1281
35492ION     NA48906  17.670   4.836  11.463  0.3297  0.0123 -0.0503
35493ION     NA48907  15.419   8.786   6.405 -0.2346  0.0566 -0.0082
35494ION     NA48908  17.188  12.344   0.464  0.0049  0.1241  0.0929
35495ION     NA48909  11.291   1.033   6.295 -0.0857 -0.2786 -0.0517
35496ION     NA48910  11.921   0.890  15.923  0.0695  0.2938  0.1681
35497ION     NA48911   0.378  16.241   0.931  0.0952  0.4084  0.0064
35498ION     NA48912  15.308   7.605   2.716  0.0313  0.2811 -0.0534
35499ION     NA48913   0.146  15.811   3.060  0.1984  0.2304  0.1572
35500ION     NA48914  17.870  17.039  11.789  0.0080 -0.2030 -0.0612
35501ION     NA48915  14.909   5.110  15.319 -0.0893  0.1035  0.0360
35502ION     NA48916   5.944  14.319  12.482 -0.0487  0.0371  0.0948
35503ION     NA48917   6.876  16.423   0.964 -0.3046 -0.0108  0.0351
35504ION     NA48918  17.555   2.260  16.590 -0.1859 -0.0722 -0.5059
35505ION     NA48919  11.915   9.779   6.315 -0.1164  0.3083  0.0758
35506ION     NA48920   2.562  14.379  10.445 -0.0929 -0.0704 -0.3807
35507ION     NA48921  15.183   8.321  13.785 -0.2267 -0.1109  0.2064
35508ION     NA48922   9.236  17.547  11.216 -0.0820  0.0092  0.2019
35509ION     NA48923  14.451  13.914  16.560 -0.1646  0.0217 -0.0447
35510ION     NA48924   4.443   1.186   2.540 -0.1128 -0.0366  0.1043
35511ION     NA48925  15.913   7.330   6.786 -0.0365  0.0213  0.1349
35512ION     NA48926  15.538  16.968   5.390  0.0588  0.1313  0.3696
35513ION     NA48927   1.478  17.623   3.533 -0.2226 -0.4107  0.0841
35514ION     NA48928   7.731   9.129   4.348 -0.1754 -0.1349 -0.0757
35515ION     NA48929   8.695  16.696  12.948 -0.1039 -0.1769 -0.2046
35516ION     NA48930   0.150   0.384   6.691 -0.2604  0.0545 -0.3940
35517ION     NA48931  11.616   9.853   0.447 -0.0333  0.1345 -0.2030
35518ION     NA48932   0.363   6.792   0.887  0.1358 -0.1517  0.1532
35519ION     NA48933   8.572  17.209   3.078 -0.1127  0.1682 -0.1197
35520ION     NA48934   1.352   6.447  11.906  0.0106 -0.1800 -0.0216
35521ION     NA48935  12.307  17.328   2.903  0.3898  0.0266  0.2411
35522ION     NA48936  18.006  16.358   6.634  0.1522  0.0680 -0.0756
35523ION     NA48937  10.611   1.909  10.129 -0.3119 -0.2922  0.1062
35524ION     NA48938  18.001   6.613  11.132  0.0132  0.0302 -0.1660
35525ION     NA48939   6.674   7.201  15.427 -0.1566  0.0904 -0.3768
35526ION     NA48940   6.354   0.380  16.408  0.0632 -0.2567 -0.2242
35527ION     NA48941   6.430  16.291   2.297 -0.0491 -0.0036 -0.1045
35528ION     NA48942  13.506  13.720  13.510 -0.0282 -0.1397 -0.2616
35529ION     NA48943   4.375   4.319   6.430  0.1800  0.2491  0.1612
35530ION     NA48944   8.259   3.274  15.975  0.3139  0.0718 -0.0403
35531ION     NA48945   9.339  15.488  10.838 -0.0019  0.1243 -0.2217
35532ION     NA48946   4.752   1.155   3.749 -0.0986 -0.2770 -0.0411
35533ION     NA48947  15.840  12.550  13.784 -0.2571  0.0061  0.0072
35534ION     NA48948  13.479  17.255  13.050 -0.2258  0.0645  0.0280
35535ION     NA48949   3.420  13.839   0.736  0.1176 -0.0683  0.1957
35536ION     NA48950  16.141   5.600   5.048 -0.1575  0.3357  0.0296
35537ION     NA48951  11.525   9.317   6.269  0.0272 -0.0023  0.0402
35538ION     NA48952   9.075   4.076  14.579 -0.2694 -0.1027 -0.0823
35539ION     NA48953   7.914   8.331  13.957  0.1325  0.0812 -0.0574
35540ION     NA48954  13.087  14.671  10.797 -0.1779 -0.2242  0.1037
35541ION     NA48955   6.754   4.105  12.882 -0.2596 -0.1423 -0.2797
35542ION     NA48956   6.862  10.498  13.446 -0.1514 -0.2775 -0.1208
35543ION     NA48957  17.584   5.260   6.931 -0.0175  0.1202  0.3315
35544ION     NA48958   9.273   7.584   5.841  0.0566  0.0422 -0.2293
35545ION     NA48959   6.575   5.177   5.830  0.2115 -0.1260 -0.1547
35546ION     NA48960   1.191   4.881   7.047 -0.0605  0.0188  0.4534
35547ION     NA48961   7.988  16.817  14.186 -0.0415  0.0180  0.1540
35548ION     NA48962   0.803  11.302  14.486  0.6119 -0.2766  0.0600
35549ION     NA48963   2.670   7.535  15.031  0.2853  0.2022 -0.1243
35550ION     NA48964  13.246   8.080   2.145  0.2642 -0.1089  0.1660
35551ION     NA48965  13.739  10.760  10.350 -0.1529  0.0344  0.1150
35552ION     NA48966  16.296   3.382  10.802  0.0437  0.0934 -0.1420
35553ION     NA48967   8.369  17.768  11.328 -0.2472  0.0893  0.0633
35554ION     NA48968  10.866   3.577   6.291 -0.1138 -0.0652 -0.1797
35555ION     NA48969   9.114   5.281  13.585  0.1695  0.0360  0.3898
35556ION     NA48970  15.803   2.950  15.607  0.1043 -0.3220 -0.0100
35557ION     NA48971  13.069  15.341  10.115  0.0040  0.2170 -0.0232
35558ION     NA48972  16.791   8.907  16.507  0.0999 -0.2040 -0.1281
35559ION     NA48973   6.548   6.332  15.693 -0.2468 -0.0587  0.1872
35560ION     NA48974  17.800  11.736   5.305  0.0592 -0.1455  0.0046
35561ION     NA48975  17.438   7.320   0.836 -0.2042  0.0116 -0.0698
35562ION     NA48976  10.535  15.914  10.117  0.0542 -0.2346 -0.1481
35563ION     NA48977   7.691   0.285   0.200 -0.3430 -0.3169  0.0013
35564ION     NA48978  14.833   0.028   4.193  0.2499  0.2286  0.0355
35565ION     NA48979  17.889  16.102  10.667  0.0108 -0.1126  0.4399
35566ION     NA48980   2.874  10.087   2.946 -0.1102 -0.1505 -0.3040
35567ION     NA48981  10.336   6.580   6.376 -0.0830  0.1803 -0.0202
35568ION     NA48982  15.110   0.634   3.690 -0.4440  0.0958  0.0238
35569ION     NA48983   3.151  10.352   1.703  0.0714  0.0733 -0.0502
35570ION     NA48984  17.639  10.334  12.576 -0.0883 -0.1326  0.3293
35571ION     NA48985   0.313  16.820   6.506  0.3941  0.3366 -0.1807
35572ION     NA48986   7.045   5.442  15.701  0.0398  0.3697  0.1873
35573ION     NA48987  17.029   5.542   1.184  0.4299  0.1420  0.1230
35574ION     NA48988   2.755  12.635  10.227 -0.3854 -0.0432  0.1496
35575ION     NA48989   3.078  14.192  15.795 -0.3252  0.2203  0.0075
35576ION     NA48990  14.769  17.484  12.016  0.0715 -0.3921  0.2493
35577ION     NA48991   8.287   1.819  12.282  0.0094  0.2226 -0.0183
35578ION     NA48992  16.067   2.614  13.292  0.0068 -0.1589 -0.2618
35579ION     NA48993   9.562   6.709   6.146  0.3048 -0.1689 -0.0036
35580ION     NA48994   2.398   3.343  11.146 -0.0645 -0.0768  0.1453
35581ION     NA48995   1.616   8.470  10.585 -0.3244  0.0722  0.3375
35582ION     NA48996  11.909   2.080   2.015  0.3902  0.2314  0.5896
35583ION     NA48997   4.647   9.164  11.843 -0.0999  0.2601  0.1409
35584ION     NA48998  12.589  11.961   0.938 -0.3343  0.1378 -0.0755
35585ION     NA48999   4.592  16.439  10.783 -0.1080  0.1778 -0.0978
35586ION     NA49000  16.431   1.979  13.102 -0.0745  0.1063 -0.2497
35587ION     NA49001  16.847   4.915  14.849  0.0101 -0.0738 -0.1348
35588ION     NA49002   0.546  11.903   9.829 -0.0639  0.1845 -0.0104
35589ION     NA49003   9.428  14.465   1.453  0.0799 -0.1926 -0.2303
35590ION     NA49004   2.186  12.437  16.327  0.1293  0.0325 -0.1007
35591ION     NA49005   9.106   3.611   1.166  0.0570  0.0269  0.0624
35592ION     NA49006   5.536   5.580   1.419 -0.3160  0.2128 -0.1410
35593ION     NA49007   7.222   6.594   6.148 -0.2112 -0.0285  0.1897
35594ION     NA49008   1.273   7.870  15.287  0.2450 -0.0978 -0.1605
35595ION     NA49009   7.527   8.359   1.875  0.0806  0.1196 -0.1483
35596ION     NA49010   9.242  16.573   3.237  0.0011 -0.2464 -0.3020
35597ION     NA49011  12.135   1.585   4.328 -0.0585 -0.1118  0.0474
35598ION     NA49012   6.853   5.283  10.858 -0.2863 -0.1717 -0.2397
35599ION     NA49013   4.048   9.748  16.028 -0.1176  0.1078 -0.3088
35600ION     NA49014  10.076   5.172   3.767  0.1387  0.0106  0.0793
35601ION     NA49015   1.988   4.104   2.949  0.0130  0.0171 -0.1641
35602ION     NA49016  14.811  10.156   2.025  0.1795  0.0996 -0.5076
35603ION     NA49017  10.810  12.192   5.694  0.0641  0.0809  0.1412
35604ION     NA49018  12.023   7.037   0.550 -0.4112 -0.0120  0.2002
35605ION     NA49019  11.387   0.752   0.036  0.1372 -0.1810  0.0140
35606ION     NA49020   0.036  10.964   4.643  0.1104 -0.1135 -0.0699
35607ION     NA49021  13.630   0.316  14.993 -0.2038  0.0019 -0.0216
35608ION     NA49022  12.827  17.955   5.776 -0.1077  0.1041  0.0414
35609ION     NA49023  11.180  12.290   2.000  0.3748 -0.0665  0.0593
35610ION     NA49024  12.850   9.570   5.304 -0.1097 -0.0856 -0.4786
35611ION     NA49025   7.235  15.677   3.671 -0.0878  0.1494 -0.2392
35612ION     NA49026   0.264  12.709  10.352  0.0281  0.0174 -0.0313
35613ION     NA49027   2.728   1.388  14.750 -0.2680  0.2386  0.1325
35614ION     NA49028  15.557   2.605   5.380  0.6054  0.1296 -0.1929
35615ION     NA49029   3.844  15.987  12.576  0.2137 -0.1804  0.1315
35616ION     NA49030   8.692   4.425   4.492  0.0030 -0.0985 -0.0308
35617ION     NA49031  14.695   1.380   1.511  0.0784  0.0451  0.1640
35618ION     NA49032   6.942  16.424   4.138 -0.2449  0.2775 -0.1060
35619ION     NA49033   5.128  12.938  14.962  0.0340 -0.0244  0.0157
35620ION     NA49034   8.519   6.945  11.083 -0.3047 -0.2892 -0.1531
35621ION     NA49035   3.010  13.514  13.194  0.0330  0.1274  0.2009
35622ION     NA49036  12.210   0.593   5.454  0.1697 -0.0964 -0.1769
35623ION     NA49037   9.490  15.327   6.120  0.2490  0.1920 -0.3474
35624ION     NA49038   1.224   4.686   2.532 -0.0789 -0.1315 -0.1794
35625ION     NA49039   1.942   3.354  15.342  0.0015  0.1721  0.0756
35626ION     NA49040   8.291   7.357   3.417 -0.0423 -0.0713 -0.0533
35627ION     NA49041  12.793   9.435   1.077  0.0813  0.1052  0.1432
35628ION     NA49042   8.429   0.547  15.401 -0.0576  0.2521  0.0232
35629ION     NA49043  11.646   2.581   4.033  0.0239  0.1532  0.0154
35630ION     NA49044   0.687   6.601   2.670 -0.1130  0.1760  0.1702
35631ION     NA49045  11.399   1.619   9.826  0.2894 -0.0821  0.0606
35632ION     NA49046  14.568   8.355  14.583  0.3104  0.1069 -0.0719
35633ION     NA49047   5.961  11.149   1.961  0.2109  0.0149  0.0097
35634ION     NA49048   2.854   9.943  10.317  0.0561  0.2775  0.1988
35635ION     NA49049   5.238   7.602   2.152  0.0345  0.1243  0.1347
35636ION     NA49050   3.202  12.227   0.080 -0.1958  0.0485  0.0663
35637ION     NA49051  10.444  11.119   1.337  0.1869 -0.2460  0.0332
35638ION     NA49052   7.196   8.925  15.578 -0.0429  0.2211  0.1103
35639ION     NA49053  11.449   3.664   1.499 -0.0166 -0.3674  0.1494
35640ION     NA49054  13.039   3.134  10.416  0.2628 -0.0207 -0.2159
35641ION     NA49055  11.540   3.618  10.268  0.0383  0.0203  0.2431
35642ION     NA49056   1.870   4.025   0.084 -0.1610 -0.1325 -0.0239
35643ION     NA49057   1.426  11.486  10.052  0.3443 -0.1410  0.1017
35644ION     NA49058  17.728  11.230  16.153 -0.0320  0.0501 -0.3517
35645ION     NA49059   1.750  14.650   1.595 -0.0428 -0.1919 -0.0439
35646ION     NA49060   7.085  15.350   2.494 -0.1234  0.1616 -0.1530
35647ION     NA49061  10.958   7.789  14.910  0.0782  0.0966  0.3035
35648ION     NA49062   3.864  17.995  14.048  0.1241 -0.0019 -0.1981
35649ION     NA49063  14.207  16.123   6.301 -0.3389 -0.2578  0.1567
35650ION     NA49064   9.596   2.464  10.115 -0.0673 -0.0372 -0.4127
35651ION     NA49065   0.187   6.232   4.378 -0.3716  0.1228  0.0104
35652ION     NA49066   7.225   4.964  14.792 -0.2837  0.2409  0.0417
35653ION     NA49067  15.130   3.458  10.769  0.1923  0.0450 -0.0527
35654ION     NA49068  15.565  13.817  10.377 -0.1059 -0.1065 -0.0021
35655ION     NA49069  13.737  17.021   5.120  0.3809 -0.1547  0.2052
35656ION     NA49070   0.249   3.774   4.747 -0.0456  0.2074 -0.1446
35657ION     NA49071   2.522  16.483  10.557 -0.3443  0.1007  0.1073
35658ION     NA49072   0.759  12.209  14.245 -0.0980  0.0612  0.0416
35659ION     NA49073  11.984  12.396   2.358  0.0500 -0.0919 -0.0804
35660ION     NA49074  16.817  13.750   5.525  0.0255  0.0524  0.0156
35661ION     NA49075   0.858   8.628   4.689 -0.1492  0.0096 -0.0285
35662ION     NA49076   2.743  16.267   2.064  0.0825 -0.1950 -0.0174
35663ION     NA49077  12.629  13.988  13.586  0.1838  0.2453 -0.2116
35664ION     NA49078   2.790  11.688   4.277 -0.3389  0.0374  0.1717
35665ION     NA49079  14.421  17.805   6.395 -0.0607 -0.0424 -0.0234
35666ION     NA49080   9.005   8.314  16.180 -0.1945  0.2036 -0.0020
35667ION     NA49081   1.973   5.497   6.884  0.3800 -0.0761 -0.1608
35668ION     NA49082  10.402   0.149   3.090  0.0874 -0.0408 -0.1822
35669ION     NA49083   1.026  15.097  15.287 -0.1738  0.1010  0.1178
35670ION     NA49084   4.496  10.763   1.272  0.0374  0.0153  0.0028
35671ION     NA49085  10.474  10.474   5.293 -0.1833  0.0967 -0.0971
35672ION     NA49086   6.701   0.660  10.128 -0.4520  0.0848  0.0904
35673ION     NA49087   1.890  10.508   5.966  0.1366  0.2770 -0.0522
35674ION     NA49088   1.693  13.753  12.885  0.1821  0.0217 -0.0703
35675ION     NA49089  15.977   6.804  13.858 -0.0167 -0.1413  0.1767
35676ION     NA49090  17.134  17.535   0.846  0.2775 -0.0115  0.2232
35677ION     NA49091   6.570   4.358   0.326  0.2455  0.0803 -0.0832
35678ION     NA49092   1.292  17.637  15.877  0.1053 -0.1466  0.0964
35679ION     NA49093  14.432  13.545  10.506  0.0483  0.0746 -0.2292
35680ION     NA49094  18.011  10.478   0.957 -0.1346  0.2574 -0.1908
35681ION     NA49095   0.842  17.883   2.295  0.1253 -0.1992 -0.0778
35682ION     NA49096  17.559  17.812  13.900  0.3442  0.1136 -0.1529
35683ION     NA49097  12.435   5.415   4.760 -0.4056 -0.2384  0.0435
35684ION     NA49098  17.855   9.749   6.437 -0.0676 -0.1178  0.2455
35685ION     NA49099   8.124   9.010   1.864  0.3362 -0.1691  0.2753
35686ION     NA49100  15.183  12.541  15.327 -0.1640  0.2795 -0.0982
35687ION     NA49101   9.183  15.541  16.444 -0.0060 -0.1464 -0.0705
35688ION     NA49102   7.136  15.008   0.693 -0.2953 -0.1831  0.0129
35689ION     NA49103  12.664  16.890  15.604  0.0118  0.2265 -0.1885
35690ION     NA49104   8.300  14.614  13.700 -0.1800 -0.1635  0.3877
35691ION     NA49105   3.751  12.980  13.199  0.1164  0.2233  0.2496
35692ION     NA49106  12.393   9.857   3.884 -0.0372  0.0363  0.0943
35693ION     NA49107   2.638  11.782   6.022 -0.0477  0.2110 -0.1329
35694ION     NA49108   7.119   3.686  15.994  0.0324 -0.1297 -0.1304
35695ION     NA49109   1.410   6.148   2.099  0.4697 -0.2261 -0.1467
35696ION     NA49110  11.945   1.291  13.891 -0.1251 -0.2920  0.1868
35697ION     NA49111   1.439  16.310  16.373 -0.0601  0.0845  0.0417
35698ION     NA49112   9.643  10.879  12.814 -0.2224 -0.0637  0.0159
35699ION     NA49113   6.412   6.352   0.352  0.1002  0.1062 -0.0582
35700ION     NA49114   4.083   5.117  12.598  0.0790  0.1195  0.2771
35701ION     NA49115  17.902   8.007  10.716 -0.0225 -0.2231  0.3809
35702ION     NA49116  15.495  10.837   4.121 -0.0986  0.0711 -0.1787
35703ION     NA49117   5.013   4.257   4.798 -0.3798  0.1485  0.1242
35704ION     NA49118   6.976   8.573   5.037  0.0531  0.0756 -0.1276
35705ION     NA49119  16.798   9.731   0.609  0.0432 -0.3015  0.0556
35706ION     NA49120   8.303   1.732  16.174 -0.0338  0.2006 -0.2912
35707ION     NA49121  17.052  15.821  14.346  0.0056 -0.1133  0.0777
35708ION     NA49122  10.980   3.487  16.211  0.0163  0.0022  0.1983
35709ION     NA49123   1.623   8.219  13.429  0.1649 -0.1972 -0.0795
35710ION     NA49124  16.147   3.428   6.628  0.0725  0.1423 -0.1133
35711ION     NA49125   9.154   8.423   5.107  0.0462 -0.2403 -0.1574
35712ION     NA49126  12.235   7.374  15.657  0.3300  0.0730  0.0736
35713ION     NA49127   7.379  14.942  10.210 -0.0720  0.0074 -0.2624
35714ION     NA49128   4.030   2.962  14.570  0.2863  0.0223  0.1623
35715ION     NA49129   3.542  17.729   6.662 -0.0493 -0.0533  0.0642
35716ION     NA49130  14.115   9.805  12.438  0.3490  0.2004 -0.2234
35717ION     NA49131   4.826   3.137  11.033 -0.0682 -0.0999  0.2645
35718ION     NA49132   6.000   2.269   0.015  0.0017 -0.1291 -0.0861
35719ION     NA49133  10.105   3.628   0.536 -0.0856  0.1195  0.1012
35720ION     NA49134   5.728   1.922  15.947  0.3759 -0.1242  0.1353
35721ION     NA49135  10.102   7.465   6.114 -0.0396  0.2953 -0.0673
35722ION     NA49136   0.347   1.087  10.891 -0.1707  0.3025  0.0876
35723ION     NA49137   2.034   9.353  16.416 -0.2793 -0.2021  0.2511
35724ION     NA49138   7.938   4.592  14.766  0.1678  0.1985 -0.1335
35725ION     NA49139   7.623  11.461   6.181  0.1238  0.2457  0.0595
35726ION     NA49140   0.974  16.758  15.572 -0.3374  0.1614  0.0657
35727ION     NA49141   1.810   6.989  10.853 -0.1788  0.2979  0.2063
35728ION     NA49142   0.576  15.421  10.619 -0.0957  0.1227  0.0267
35729ION     NA49143  13.775  11.137  12.431 -0.0520  0.2185 -0.3731
35730ION     NA49144  11.430   8.877  15.420 -0.2658  0.1037  0.2244
35731ION     NA49145  11.275   4.047   5.191 -0.0113  0.0359 -0.0231
35732ION     NA49146   9.475   3.134   5.564 -0.1774 -0.1006  0.1052
35733ION     NA49147  16.282  13.818  15.246 -0.1343  0.2558 -0.1282
35734ION     NA49148  17.008  15.316  14.933  0.2036  0.0559  0.3060
35735ION     NA49149  13.773  13.735  12.198 -0.0836  0.0276  0.1315
35736ION     NA49150  10.172   9.140   5.880 -0.4083  0.2789 -0.0510
35737ION     NA49151   8.185   0.877   3.700 -0.1490 -0.1439 -0.3088
35738ION     NA49152   6.707   9.193   2.407 -0.1080 -0.6470 -0.0074
35739ION     NA49153   8.223  12.185   6.056 -0.1204 -0.1441  0.0312
35740ION     NA49154   3.503  12.561   2.255 -0.2864 -0.1514  0.2963
35741ION     NA49155   3.488   7.968   3.543 -0.2435  0.0393 -0.0565
35742ION     NA49156   2.653   4.842  12.636 -0.2611  0.0460  0.1083
35743ION     NA49157  13.758   0.924  14.126 -0.0941  0.0328  0.0790
35744ION     NA49158  16.887   0.234   6.639  0.1179 -0.0100  0.3276
35745ION     NA49159   5.285  11.532  15.259  0.3699 -0.0213  0.1763
35746ION     NA49160  14.040   2.828   0.723  0.1635 -0.0141  0.0139
35747ION     NA49161   6.148  16.670   3.871 -0.2129 -0.1203  0.3426
35748ION     NA49162   4.404   9.199   6.269  0.1988 -0.2465 -0.1383
35749ION     NA49163   1.156   6.195  14.573  0.0233 -0.1110 -0.2035
35750ION     NA49164   1.700  15.226  13.758 -0.0348 -0.2676  0.1698
35751ION     NA49165  10.165   7.297  16.502 -0.0368 -0.0668 -0.2375
35752ION     NA49166  10.567  11.546   1.977  0.2329  0.0474 -0.0221
35753ION     NA49167  11.312   4.500  15.101 -0.0761  0.1451 -0.0468
35754ION     NA49168   4.028  16.942   6.600  0.0708 -0.0131 -0.1381
35755ION     NA49169   2.524  15.601   6.646  0.3190 -0.3684  0.2211
35756ION     NA49170   7.138   7.138   9.927  0.0541  0.1926  0.0172
35757ION     NA49171   8.575  12.792   4.919  0.1441  0.2221  0.0948
35758ION     NA49172  12.987   3.435   4.712  0.2196 -0.0398 -0.2331
35759ION     NA49173   1.768   8.308   6.348 -0.0501  0.0900  0.1732
35760ION     NA49174   7.960  11.006   4.745 -0.2446 -0.0675 -0.0947
35761ION     NA49175   3.252   6.801  15.720  0.1619 -0.2389 -0.0898
35762ION     NA49176   8.672  11.399  15.940 -0.0117 -0.2392  0.1570
35763ION     NA49177  15.002   9.783  11.956  0.0191 -0.0019 -0.3825
35764ION     NA49178   5.015  10.777  10.524 -0.1073  0.0389 -0.1432
35765ION     NA49179  16.298   1.734   0.143  0.4383  0.0104 -0.1426
35766ION     NA49180  17.924  16.129  13.262 -0.2939  0.1013  0.2648
35767ION     NA49181  12.113  15.655   6.192 -0.1740 -0.0505  0.2694
35768ION     NA49182   6.471  17.021   1.170  0.0651  0.2129  0.0339
35769ION     NA49183   0.781   5.523  15.817 -0.0971 -0.4839 -0.0048
35770ION     NA49184  12.990  13.455   0.790  0.3046 -0.0439  0.0293
35771ION     NA49185  14.213  12.672   1.696 -0.1223 -0.0718 -0.4649
35772ION     NA49186   2.946  17.488   3.843 -0.0524 -0.3207 -0.1673
35773ION     NA49187   5.306   9.653  12.164 -0.3905  0.0238 -0.0835
35774ION     NA49188   8.902   2.068   6.106  0.1208 -0.0155  0.2515
35775ION     NA49189   9.735   8.913   2.517  0.0854 -0.0505  0.0009
35776ION     NA49190   3.735  16.804  11.930 -0.0976  0.2439 -0.2431
35777ION     NA49191   8.963   3.150   3.255  0.0668  0.1220 -0.1157
35778ION     NA49192   5.248  13.013   2.346  0.3592  0.2602 -0.0694
35779ION     NA49193  17.268  12.994  11.832  0.1011 -0.0927  0.2860
35780ION     NA49194  13.187  12.195   6.058 -0.1485 -0.0513 -0.0891
35781ION     NA49195   8.637  12.020  10.042  0.0750  0.0436  0.0349
35782ION     NA49196  10.623   6.124   2.919  0.1175 -0.2824  0.1340
35783ION     NA49197  13.335  16.748   2.746 -0.0490 -0.2068 -0.0364
35784ION     NA49198  11.320   7.248  16.175 -0.1063 -0.2254  0.0944
35785ION     NA49199   1.315   1.359  15.160  0.0672 -0.2620  0.1522
35786ION     NA49200   3.460   0.530  13.019 -0.2423  0.1245 -0.2557
35787ION     NA49201   5.389   6.780  10.249 -0.3148  0.1035 -0.3554
35788ION     NA49202   6.335   4.305  10.153 -0.3100  0.2999 -0.0427
35789ION     NA49203   6.050   2.145  10.169 -0.0486 -0.1380 -0.1650
35790ION     NA49204   7.489  17.596  11.242 -0.3046  0.2839  0.0252
35791ION     NA49205   9.778   2.387   6.032 -0.0576 -0.0721 -0.0487
35792ION     NA49206  14.443  11.541   1.542  0.1256  0.1971 -0.4108
35793ION     NA49207   7.822   0.786   1.452 -0.3183  0.2039 -0.2142
35794ION     NA49208   2.764  10.114   4.647 -0.0011 -0.2017 -0.0931
35795ION     NA49209   8.624  16.635  10.381  0.3562  0.2479 -0.0705
35796ION     NA49210  16.278   3.121   2.564  0.0295 -0.1951 -0.1450
35797ION     NA49211   7.532  12.782  15.929  0.0263 -0.1904 -0.1539
35798ION     NA49212  12.753   3.728  16.594 -0.0027 -0.0246 -0.0894
35799ION     NA49213   2.345   1.441   6.580 -0.2191  0.3690 -0.0167
35800ION     NA49214  13.173  14.978   6.236 -0.1228 -0.1362  0.2254
35801ION     NA49215   0.673   0.164  16.380 -0.1291 -0.0451  0.2134
35802ION     NA49216  15.511  17.381  10.775  0.2069 -0.1467  0.0624
35803ION     NA49217   0.447  15.329   3.066  0.0050  0.1235 -0.3609
35804ION     NA49218   6.185  13.309   4.191 -0.0611 -0.1395  0.0200
35805ION     NA49219  15.589  10.944  14.055 -0.0174  0.3421  0.1095
35806ION     NA49220  15.605   4.186  16.364 -0.1100  0.1460 -0.1291
35807ION     NA49221  10.132   2.435  16.402  0.0260  0.0011 -0.0495
35808ION     NA49222  17.880  14.060   4.044 -0.2594  0.1314  0.1886
35809ION     NA49223   8.603   8.455   5.946  0.0506 -0.1253 -0.1810
35810ION     NA49224  11.894  15.935   5.194 -0.0238 -0.0695 -0.0206
35811ION     NA49225  13.737  17.843  10.444 -0.0750 -0.0054  0.0475
35812ION     NA49226   2.623   8.960  14.690  0.1732  0.0814  0.1246
35813ION     NA49227  16.808  13.084  14.003  0.1493  0.2017 -0.1046
35814ION     NA49228   6.417  11.433  10.643  0.2904 -0.0862 -0.1492
35815ION     NA49229  10.443  14.768   0.045 -0.2926  0.0530  0.0312
35816ION     NA49230  17.328   8.375   6.816  0.0890 -0.1666 -0.0857
35817ION     NA49231   9.824  17.645   2.779 -0.0815 -0.0210  0.2572
35818ION     NA49232   8.943  10.061   5.458  0.0397 -0.0559 -0.1400
35819ION     NA49233  13.748  14.864   6.178  0.0697  0.2936 -0.0402
35820ION     NA49234  11.799   3.214  10.255  0.0974  0.1956 -0.2422
35821ION     NA49235  13.636  10.472  13.003 -0.0803  0.1341  0.2391
35822ION     NA49236  16.554   7.395   3.387  0.2976 -0.0823 -0.0354
35823ION     NA49237   2.493  10.829   5.818 -0.0317  0.0381  0.1402
35824ION     NA49238   0.078  16.690   2.771 -0.0106 -0.5252 -0.1280
35825ION     NA49239   3.508  14.945   1.937 -0.0288 -0.3586  0.0197
35826ION     NA49240  13.932   5.433  15.506 -0.0075  0.2944  0.2187
35827ION     NA49241   2.960   9.274   1.243 -0.3688  0.2317 -0.4174
35828ION     NA49242   5.943   3.846  13.210 -0.2403  0.2727 -0.1060
35829ION     NA49243   5.369  12.203  12.367  0.1425  0.4753 -0.5295
35830ION     NA49244   9.490  16.729  10.876  0.0570  0.0292 -0.3342
35831ION     NA49245   2.054   9.386  10.336  0.1739 -0.0944 -0.3167
35832ION     NA49246  16.337  12.782   1.784  0.0872  0.0804 -0.3409
35833ION     NA49247   1.022   1.001   0.284 -0.1936  0.1110 -0.0144
35834ION     NA49248   6.605   3.182   4.106 -0.0000  0.4401  0.1082
35835ION     NA49249   1.815   5.849  12.691 -0.1915 -0.0726  0.1067
35836ION     NA49250  14.025  11.351  11.815  0.0562 -0.4535  0.3209
35837ION     NA49251   4.517  12.147  15.007  0.0912  0.0124 -0.4674
35838ION     NA49252  12.920   6.812   1.132  0.2106 -0.2495 -0.0536
35839ION     NA49253  17.045   9.041   1.368 -0.2230  0.0119 -0.0346
35840ION     NA49254   0.330   4.348   3.974  0.0520 -0.2722  0.1220
35841ION     NA49255  16.746  11.173   3.430 -0.1051 -0.0161 -0.0635
35842ION     NA49256  13.860   1.694   4.171  0.0398  0.0902  0.1100
35843ION     NA49257   8.049   5.098   2.483 -0.1541 -0.4333 -0.0368
35844ION     NA49258   2.693  15.483  15.931 -0.1966  0.0644 -0.3021
35845ION     NA49259  14.671   9.203  14.877 -0.1318 -0.0290  0.2365
35846ION     NA49260   2.035   8.706   1.959  0.1158  0.0128 -0.0515
35847ION     NA49261   8.492   7.881   0.344  0.1749  0.0235 -0.2776
35848ION     NA49262  13.743   4.757  11.835 -0.3381  0.0717  0.0192
35849ION     NA49263  10.845  11.586  16.387  0.0125  0.1885  0.3550
35850ION     NA49264  17.052   1.101   4.087  0.1349  0.2145 -0.1316
35851ION     NA49265  17.177   0.918  10.695 -0.0555  0.1053 -0.1044
35852ION     NA49266   2.961   6.841   1.017 -0.0768 -0.1295 -0.0196
35853ION     NA49267   8.613   5.399  12.839  0.0425  0.4121 -0.0051
35854ION     NA49268   3.009  16.839  14.080 -0.2152 -0.4399  0.1326
35855ION     NA49269  15.368   1.915  13.186  0.0434  0.0575  0.3392
35856ION     NA49270   0.287  15.006  16.052 -0.1612 -0.0799 -0.0719
35857ION     NA49271  12.257   9.339  16.646 -0.2628 -0.2750  0.0928
35858ION     NA49272  14.195   0.745   0.257 -0.0711  0.1675  0.4039
35859ION     NA49273   8.018   1.252   0.368 -0.1435  0.0460  0.0260
35860ION     NA49274   8.939  10.646   6.243 -0.0230  0.2936 -0.1812
35861ION     NA49275  13.402   4.213   4.285  0.0110 -0.2383 -0.2086
35862ION     NA49276  12.144   5.049  16.095 -0.0115  0.0875  0.4391
35863ION     NA49277  16.291  16.422   3.559  0.3500  0.2233 -0.0744
35864ION     NA49278  16.658   8.281  10.811 -0.0737  0.1088  0.1027
35865ION     NA49279  12.351  10.075   3.308 -0.0965  0.1947  0.0695
35866ION     NA49280   6.854  10.189   2.798  0.3107  0.2168  0.1403
35867ION     NA49281  17.121   4.428  12.954 -0.5713  0.3395 -0.0900
35868ION     NA49282   5.882   4.610  10.073 -0.2641  0.2613  0.1553
35869ION     NA49283   4.820  10.042   6.551  0.2288  0.3454  0.0164
35870ION     NA49284  15.648  11.999   5.746  0.1724  0.2030  0.2452
35871ION     NA49285   1.098  15.964  13.341 -0.0840  0.0860 -0.1150
35872ION     NA49286   0.941  13.058   0.540  0.1716  0.1661 -0.1416
35873ION     NA49287  13.595   8.152  12.850  0.2766 -0.1423 -0.0045
35874ION     NA49288   7.591  15.965   6.096 -0.1831 -0.0882  0.3478
35875ION     NA49289   7.435  15.693  10.398 -0.0716  0.2195 -0.3121
35876ION     NA49290  15.103  17.964  15.876 -0.0975 -0.0346  0.0979
35877ION     NA49291   1.949   7.079   3.780  0.0685  0.0846 -0.0855
35878ION     NA49292   8.000  14.189   1.570 -0.1164 -0.2146  0.0568
35879ION     NA49293  14.093   4.402   3.789 -0.0241 -0.0449 -0.1050
35880ION     NA49294  12.220   8.937   5.999  0.0342  0.1689 -0.2053
35881ION     NA49295  11.060   2.504   3.025 -0.1748  0.1495 -0.1233
35882ION     NA49296   2.764  18.051   6.631  0.0307 -0.2091 -0.2633
35883ION     NA49297   3.510   5.374  16.098 -0.0706 -0.2407  0.1986
35884ION     NA49298   0.263   7.021   5.429  0.2675 -0.0058 -0.0377
35885ION     NA49299   7.904   5.146   0.415  0.0382  0.1363 -0.2540
35886ION     NA49300   8.434   9.913   6.126 -0.1627 -0.2032 -0.0372
35887ION     NA49301  10.885  12.254  15.282 -0.0840 -0.1617 -0.0283
35888ION     NA49302  11.624   8.481   6.061  0.1695 -0.1590 -0.2731
35889ION     NA49303   3.152  10.917   5.374  0.1119  0.2289  0.0624
35890ION     NA49304   4.297   7.040  12.863 -0.0069 -0.0571 -0.1035
35891ION     NA49305   9.098   8.222  10.284 -0.0649  0.1821  0.1246
35892ION     NA49306   4.084   4.598   4.778 -0.0577 -0.0223  0.1985
35893ION     NA49307  16.595   1.041   1.374 -0.0179 -0.2400  0.0168
35894ION     NA49308   5.503   8.498  10.266 -0.2407  0.0482 -0.0770
35895ION     NA49309   5.071  11.511   0.757 -0.0943  0.1494 -0.1526
35896ION     NA49310  16.516   8.278  12.113  0.0373 -0.1540  0.1449
35897ION     NA49311   5.245   8.386  13.849 -0.0443 -0.0217 -0.1821
35898ION     NA49312   9.985  10.894  16.054  0.3940  0.1666  0.0401
35899ION     NA49313  12.699   6.215  14.083  0.3350 -0.2473 -0.1978
35900ION     NA49314  14.725  13.519   1.402 -0.2265  0.1391 -0.5249
35901ION     NA49315   9.729  12.666  15.615 -0.2435  0.0320  0.0093
35902ION     NA49316   9.842  12.388  10.776  0.0662 -0.0591 -0.0474
35903ION     NA49317  17.644   3.491  10.972 -0.2511  0.1298 -0.1712
35904ION     NA49318   5.323  13.322  13.838 -0.1612  0.1354 -0.2427
35905ION     NA49319   4.941  14.716  10.281  0.0935  0.1593  0.0569
35906ION     NA49320   4.701  14.187   2.466  0.0759 -0.1970 -0.0414
35907ION     NA49321   4.364  12.514   1.860  0.0130  0.0278  0.0541
35908ION     NA49322  16.489   7.791   1.478  0.0068 -0.0923  0.1909
35909ION     NA49323   1.648  14.465   2.237  0.0329  0.3039  0.1538
35910ION     NA49324   1.696   3.697  12.499  0.0698 -0.0646  0.1059
35911ION     NA49325   4.147  15.631  15.162 -0.0704  0.1925 -0.1549
35912ION     NA49326   2.226   5.683  11.111  0.2167 -0.3074  0.2537
35913ION     NA49327   8.723  16.243  14.526 -0.1592  0.0523  0.1654
35914ION     NA49328   8.593   0.258  12.385 -0.0968  0.2004 -0.0489
35915ION     NA49329   7.910   1.613   3.513 -0.1609 -0.2347  0.3314
35916ION     NA49330  10.443  17.600   5.919 -0.3588 -0.1288 -0.1149
35917ION     NA49331   9.066  14.243   3.854 -0.0774  0.1689 -0.1026
35918ION     NA49332  15.261  17.624  12.624 -0.0116 -0.2204 -0.2288
35919ION     NA49333   6.744   4.036   2.853  0.2790 -0.0073 -0.0552
35920ION     NA49334   9.450  17.631   5.863 -0.2959 -0.2195 -0.1662
35921ION     NA49335  14.302   6.484  10.589  0.1507  0.1016  0.0814
35922ION     NA49336  15.030   3.598   4.604 -0.1392 -0.1356  0.1583
35923ION     NA49337  10.419   3.746  10.036 -0.0194  0.1057 -0.0215
35924ION     NA49338  17.887   6.061  13.590 -0.0861  0.1007 -0.1722
35925ION     NA49339   2.227   6.001   1.725  0.2444 -0.0097 -0.2427
35926ION     NA49340   1.906   6.420  11.260  0.1724  0.1716  0.0843
35927ION     NA49341  13.484   6.716   1.962 -0.1319  0.0361 -0.1004
35928ION     NA49342   4.620  14.741   3.334 -0.0594 -0.0505  0.1332
35929ION     NA49343   1.897   4.715  14.007 -0.0907  0.0719 -0.2520
35930ION     NA49344   3.953   1.999   1.868 -0.0918 -0.0004 -0.0159
35931ION     NA49345  17.924   9.375  10.646 -0.1939  0.1500  0.1721
35932ION     NA49346  15.668  10.403  10.477 -0.0909 -0.1628  0.1172
35933ION     NA49347   1.202  16.784  14.051  0.0737  0.0591 -0.0386
35934ION     NA49348   9.876   6.669  10.706  0.1356 -0.0285  0.1031
35935ION     NA49349   7.820  13.062   6.017  0.0523  0.0722 -0.1915
35936ION     NA49350  15.102   5.820  10.729 -0.1646  0.0050 -0.0884
35937ION     NA49351   8.894  17.335   4.346 -0.0058  0.3025  0.1111
35938ION     NA49352   5.896   5.936  13.982 -0.0246  0.1403 -0.1786
35939ION     NA49353   0.409   5.098  10.922 -0.1234 -0.0071 -0.0609
35940ION     NA49354   6.206   3.603   3.414 -0.0261  0.0641  0.0697
35941ION     NA49355  14.195  14.877  14.969 -0.1714  0.1260  0.4133
35942ION     NA49356  16.931   6.041  12.072  0.1127  0.1483  0.0348
35943ION     NA49357   4.315   5.798  11.749 -0.1705 -0.0566  0.0106
35944ION     NA49358  14.152  13.389   6.137  0.2617 -0.4145 -0.0386
35945ION     NA49359  13.424   8.157  10.901 -0.1986  0.2645  0.0018
35946ION     NA49360  10.742  13.534   9.997  0.1301  0.1306 -0.0464
35947ION     NA49361   6.399   2.552  14.998  0.1335  0.1859 -0.1094
35948ION     NA49362   6.901  17.660   6.136  0.0407  0.0877  0.0676
35949ION     NA49363  11.168  16.058   6.284 -0.0451 -0.1341 -0.0157
35950ION     NA49364  11.247   0.858  12.336 -0.1903  0.3341 -0.0858
35951ION     NA49365  13.463  14.008   6.061 -0.1038  0.0953 -0.0725
35952ION     NA49366   5.868   6.788   6.143  0.0527 -0.1739  0.3078
35953ION     NA49367   4.743  10.936   2.698  0.0750  0.0296 -0.0350
35954ION     NA49368   3.833  18.017   1.323  0.0711 -0.0574  0.3566
35955ION     NA49369  10.199   1.771   1.802 -0.0990 -0.0523  0.0525
35956ION     NA49370  14.983   2.030   0.863 -0.1190 -0.0772 -0.1773
35957ION     NA49371   1.494   5.915   6.955  0.0886  0.0458 -0.1167
35958ION     NA49372  14.893  16.863  10.918  0.1675  0.1685 -0.3964
35959ION     NA49373  11.658  16.120  14.489  0.0760 -0.0612 -0.1062
35960ION     NA49374   3.866  12.477  10.300  0.2658  0.0207  0.0037
35961ION     NA49375  10.044   2.897   6.161  0.0446 -0.0027  0.2102
35962ION     NA49376   3.738  16.447   0.556  0.3187  0.1326 -0.4329
35963ION     NA49377  17.420   3.330   3.475  0.0041 -0.3367 -0.0355
35964ION     NA49378  17.553  16.613   0.094  0.0040 -0.0392 -0.0459
35965ION     NA49379  13.328   6.097   6.711 -0.0381  0.0912 -0.1183
35966ION     NA49380   3.375  17.991  16.430  0.1124 -0.1893 -0.1362
35967ION     NA49381   9.117   5.197   4.133  0.3032  0.1353  0.1773
35968ION     NA49382   6.802   4.985   5.421  0.3236  0.1147  0.0566
35969ION     NA49383   7.113   6.336  11.784 -0.1776 -0.0035 -0.0131
35970ION     NA49384  16.797  18.008  14.205  0.0054  0.0210  0.0094
35971ION     CL49385  15.076  16.718   5.268  0.0061  0.1253  0.2265
35972ION     CL49386   3.732  16.392  12.258  0.0886 -0.1491  0.1559
35973ION     CL49387   0.003  16.217   2.841  0.1704 -0.1952 -0.0158
35974ION     CL49388   6.596   3.557   3.770 -0.1199 -0.1358 -0.0455
35975ION     CL49389   7.771  13.476  12.497  0.3482 -0.1702  0.1422
35976ION     CL49390   9.947  11.420  15.976  0.0307 -0.0485 -0.3262
35977ION     CL49391   8.319   8.071  13.743 -0.0516  0.1660  0.3370
35978ION     CL49392   5.297   8.570  15.090  0.0089 -0.0237 -0.0124
35979ION     CL49393   5.500  10.876  15.290 -0.0961 -0.0163 -0.2115
35980ION     CL49394   1.673   1.589  16.328  0.0695  0.1534 -0.0047
35981ION     CL49395  12.502  10.106  13.798 -0.0956 -0.0781  0.1717
35982ION     CL49396  15.726   2.021  11.769  0.1602  0.2763  0.1375
35983ION     CL49397  10.786   8.052  12.523 -0.1931  0.1751  0.1218
35984ION     CL49398   7.969  10.912   4.079 -0.0715  0.0408  0.0528
35985ION     CL49399  11.440   2.453   3.522 -0.0065 -0.1123 -0.1736
35986ION     CL49400  10.433  15.835   4.274 -0.2185 -0.1214 -0.3887
35987ION     CL49401   3.992   3.484  14.487  0.0412 -0.3089 -0.3933
35988ION     CL49402   8.028  14.993  14.714 -0.1626 -0.0140 -0.1942
35989ION     CL49403   8.591   8.864   1.962 -0.2369 -0.0424 -0.0936
35990ION     CL49404   7.589  13.319  13.260 -0.2295  0.0976  0.1111
35991ION     CL49405  14.645  10.480  10.898  0.0249 -0.0700 -0.1050
35992ION     CL49406   7.928  17.959  11.440  0.3093  0.2650 -0.1262
35993ION     CL49407   4.166   0.758   2.431  0.2105  0.1117  0.0884
35994ION     CL49408   0.053   6.590   5.412 -0.0280  0.2134  0.5107
35995ION     CL49409   3.544   2.650  15.810  0.0411 -0.1198 -0.0155
35996ION     CL49410  13.602   4.550  12.284 -0.0877 -0.0421 -0.0078
35997ION     CL49411  14.817   3.515   0.596 -0.0497  0.2619 -0.1152
35998ION     CL49412   7.967  10.308   0.957  0.0794  0.0618  0.0907
35999ION     CL49413  14.517  17.097  11.772  0.2509  0.2460 -0.0017
36000ION     CL49414  17.875  11.358   4.959 -0.1688  0.3263  0.3671
36001ION     CL49415  14.213  11.344  11.256  0.1130 -0.1044 -0.2017
36002ION     CL49416  17.254   9.507   3.728  0.1905  0.0977 -0.1893
36003ION     CL49417   2.016   3.059  14.946  0.2392 -0.0766 -0.0347
36004ION     CL49418   9.527  14.100   4.000 -0.1676  0.0248  0.2370
36005ION     CL49419   2.707   8.019  15.341 -0.0517 -0.1096 -0.0455
36006ION     CL49420  11.233  12.091  15.638  0.0850 -0.1408  0.0472
36007ION     CL49421   2.582  13.966  15.079 -0.1024  0.1467 -0.2985
36008ION     CL49422  13.727   0.597  14.560 -0.0738 -0.0222  0.0674
36009ION     CL49423   2.590  15.813   5.234 -0.2162  0.0579 -0.1701
36010ION     CL49424   1.871   8.774  13.481 -0.0816 -0.0292 -0.0123
36011ION     CL49425   0.215   3.695  14.290  0.2129 -0.1090 -0.1597
36012ION     CL49426  10.778   3.881  16.470 -0.1266 -0.0768  0.1772
36013ION     CL49427   3.102   7.353   1.386 -0.0002  0.0912 -0.1515
36014ION     CL49428   0.316   4.148   4.404  0.2133  0.1385  0.0839
36015ION     CL49429  16.348   8.780  16.300 -0.0679  0.0859  0.1143
36016ION     CL49430   3.848   6.872  12.988  0.2225  0.0528  0.0869
36017ION     CL49431   9.401   8.763   2.162  0.4894 -0.1868 -0.1521
36018ION     CL49432   2.006  14.777   2.002  0.0221 -0.0411 -0.1864
36019ION     CL49433   5.800  14.511  12.031 -0.0106 -0.3534  0.0910
36020ION     CL49434   1.423  15.621  14.068  0.0134  0.1168 -0.0573
36021ION     CL49435  17.766  10.040  12.115  0.0564  0.2248  0.3920
36022ION     CL49436  13.038   3.763   4.226  0.1226 -0.2032  0.3014
36023ION     CL49437  14.892   8.156  14.273  0.0544 -0.1558 -0.0147
36024ION     CL49438  17.844   6.419   4.167  0.1088  0.1228  0.0589
36025ION     CL49439  16.703  15.552  14.580 -0.0865 -0.3230  0.0965
36026ION     CL49440   2.122  12.861   2.588  0.0652  0.2214  0.0954
36027ION     CL49441  14.735  16.216  16.609  0.1946  0.2246 -0.0398
36028ION     CL49442   2.188   5.535  12.527  0.1350 -0.1454  0.1001
36029ION     CL49443  16.888   9.321   5.566 -0.2120 -0.1330  0.0386
36030ION     CL49444  15.864  13.439  15.252 -0.2198 -0.3670  0.3255
36031ION     CL49445   8.065  10.179  12.542  0.1876 -0.0170 -0.4944
36032ION     CL49446  14.793   8.807  14.584 -0.2516  0.0764  0.0197
36033ION     CL49447   9.329  11.677  11.647 -0.1273  0.3812  0.2646
36034ION     CL49448   9.028   5.670   3.841  0.0586 -0.1271  0.1205
36035ION     CL49449  17.858   0.838   5.513 -0.1459  0.3201  0.0526
36036ION     CL49450  13.221   6.371   0.759  0.1944  0.0640  0.1143
36037ION     CL49451   3.615  16.843   0.238 -0.0017 -0.1859 -0.1197
36038ION     CL49452   0.064   8.891   4.191 -0.0453 -0.1318 -0.1490
36039ION     CL49453   7.868   7.174   3.547 -0.0964  0.0197  0.2358
36040ION     CL49454   7.650   5.504  11.790 -0.1837 -0.0448 -0.0282
36041ION     CL49455   6.612   8.337   4.740  0.0760  0.1331 -0.2261
36042ION     CL49456   4.452   4.702   6.119 -0.2386 -0.0149 -0.3587
36043ION     CL49457   2.025   8.181  12.609  0.1133  0.1070 -0.2001
36044ION     CL49458   7.388  13.634   5.233 -0.1313 -0.1923 -0.2136
36045ION     CL49459  11.831   7.543  14.408  0.0965 -0.0810  0.0948
36046ION     CL49460  14.909  16.470  11.322 -0.0522 -0.1471 -0.1359
36047ION     CL49461   4.013  12.473   2.225  0.2809  0.1552  0.2325
36048ION     CL49462  14.909  13.596  11.598  0.1764  0.0772 -0.0884
36049ION     CL49463  14.549   2.447   5.272  0.0578 -0.1912  0.0515
36050ION     CL49464  13.490  10.768  12.639  0.0220  0.1829  0.4261
36051ION     CL49465  16.871   8.069  12.380 -0.0180  0.2593  0.1896
36052ION     CL49466  12.802  17.476  15.404 -0.0638  0.4491 -0.1379
36053ION     CL49467   4.174  12.292   1.401 -0.0431  0.2834 -0.1773
36054ION     CL49468   7.651   8.784   2.103 -0.1692  0.0397 -0.0611
36055ION     CL49469   1.603  15.940  13.150  0.2753  0.1467  0.2062
36056ION     CL49470   8.942   7.934   5.961 -0.1687 -0.0988  0.1829
36057ION     CL49471   8.020  16.018   3.979  0.1496 -0.0005 -0.0207
36058ION     CL49472   4.765  10.154   3.278  0.1670  0.0816  0.1353
36059ION     CL49473   2.895   4.959   1.903  0.2149 -0.1252 -0.0238
36060ION     CL49474   7.044  17.890   5.250 -0.2717  0.0920 -0.1324
36061ION     CL49475   3.738   6.425  14.739  0.2269 -0.0889  0.1228
36062ION     CL49476  16.718   4.028   4.458 -0.1681 -0.1300 -0.1914
36063ION     CL49477   3.095   4.100  12.648  0.0909 -0.1269  0.1925
36064ION     CL49478  15.233  10.700  13.780  0.0538  0.0983  0.1712
36065ION     CL49479  16.492   7.041   3.779  0.1372 -0.0524 -0.1947
36066ION     CL49480   4.409   7.204   1.268  0.1514  0.0895 -0.1357
36067ION     CL49481  11.367   4.203   1.538 -0.0924 -0.3289  0.2801
36068ION     CL49482   0.125  11.591   2.220  0.3072 -0.0504  0.0162
36069ION     CL49483  10.987   2.559   2.558 -0.0912 -0.1341  0.1686
36070ION     CL49484   0.535  10.051   0.527  0.2969  0.0474 -0.1458
36071ION     CL49485   3.504   7.443  15.073  0.0849 -0.0093 -0.3238
36072ION     CL49486  12.650  14.729   4.900 -0.1400  0.2299  0.0977
36073ION     CL49487   1.568   4.442   2.836  0.0341  0.1357 -0.0827
36074ION     CL49488   9.826  13.096   2.063  0.0074  0.0901 -0.0094
36075ION     CL49489   0.146   0.533   6.183 -0.2070  0.0328  0.2809
36076ION     CL49490  17.485  17.405  13.643  0.2160  0.1748  0.1299
36077ION     CL49491   0.093  17.809  14.291  0.1248 -0.0348  0.0839
36078ION     CL49492  10.546   1.291   2.089 -0.0141  0.2187 -0.0592
36079ION     CL49493  13.664   4.492   3.944 -0.1902  0.1321 -0.0071
36080ION     CL49494  12.397  10.331   3.748 -0.2713  0.1610  0.1780
36081ION     CL49495  16.519  11.008   3.003 -0.0744  0.4172  0.0380
36082ION     CL49496  14.458   6.235  11.047 -0.0019 -0.1057 -0.0723
36083ION     CL49497   9.025  16.636  14.417  0.2203 -0.0434  0.0698
36084ION     CL49498   6.803  15.232  11.890 -0.1522 -0.0596  0.3043
36085ION     CL49499  10.147   5.279  14.735 -0.2220 -0.2046 -0.1735
36086ION     CL49500   3.124  14.763   2.442  0.1585  0.2848 -0.0238
36087ION     CL49501   8.813  17.791  11.098 -0.0458 -0.0349  0.0603
36088ION     CL49502  11.944   6.514  15.661  0.1512  0.1268  0.0459
36089ION     CL49503   4.894   7.923   5.547  0.0935  0.0735 -0.1490
36090ION     CL49504   0.636  11.815  14.497  0.0023  0.0019  0.3424
36091ION     CL49505   0.727  12.157   4.610 -0.0130  0.1103  0.4861
36092ION     CL49506   3.068  13.051  13.009 -0.2853 -0.2172  0.1247
36093ION     CL49507  12.367  16.120   5.287 -0.1002  0.0829  0.0340
36094ION     CL49508  12.223  11.259   2.692 -0.0697  0.1649  0.0041
36095ION     CL49509   6.521   8.094   1.808 -0.0826  0.1607 -0.0015
36096ION     CL49510  15.352   8.272   6.045  0.3590  0.2969  0.3447
36097ION     CL49511   3.417  12.071  13.163 -0.2102  0.1990  0.1733
36098ION     CL49512  17.866   0.439  12.402 -0.2076 -0.1252  0.2037
36099ION     CL49513   4.074   0.278   1.634  0.0751 -0.0880 -0.1769
36100ION     CL49514  12.866   4.841   1.204  0.1269 -0.1220  0.1863
36101ION     CL49515   1.251   3.727   3.797 -0.1829  0.1781  0.0786
36102ION     CL49516  15.335  18.026   4.208 -0.1520  0.0062 -0.2713
36103ION     CL49517   3.318   5.650  12.310  0.0780  0.2221 -0.0547
36104ION     CL49518  15.020   0.958   4.601  0.1815 -0.0060 -0.0057
36105ION     CL49519   0.147  17.557   5.872  0.2304 -0.0358  0.0773
36106ION     CL49520  18.020   6.636  13.621 -0.1905  0.1075 -0.1399
36107ION     CL49521   1.691  14.513  13.125 -0.4006 -0.1425 -0.0566
36108ION     CL49522  17.475   7.567  11.883 -0.0989 -0.0548 -0.0562
36109ION     CL49523   1.433  11.693  11.458 -0.0290 -0.1616 -0.1834
36110ION     CL49524  15.003  18.039  16.346  0.0390  0.2539 -0.0332
36111ION     CL49525   0.183  13.825   3.794  0.0909 -0.0857  0.0804
36112ION     CL49526  10.042   2.316   0.222  0.0628 -0.1570  0.4209
36113ION     CL49527   7.039   6.314  15.730  0.2472  0.1034 -0.1936
36114ION     CL49528   5.200  10.757   2.516  0.0532 -0.0036 -0.1422
36115ION     CL49529   2.237   6.609   1.948  0.2454  0.1220 -0.1042
36116ION     CL49530  14.891  17.897  12.884  0.0952  0.1642 -0.1921
36117ION     CL49531  12.951   3.952  11.629  0.0161 -0.1624  0.1527
36118ION     CL49532   4.491  16.205   5.567 -0.0604  0.2925  0.0220
36119ION     CL49533  16.545   5.646   5.306  0.0228  0.0211 -0.0527
36120ION     CL49534  14.749   5.404  13.416 -0.0834 -0.0949 -0.0407
36121ION     CL49535   4.263  15.679   1.284 -0.0778 -0.1712 -0.0968
36122ION     CL49536   8.182   0.369   3.625 -0.1019 -0.2222  0.2269
36123ION     CL49537  15.867  13.266   0.859  0.0128 -0.1639 -0.1584
36124ION     CL49538  17.957   3.391   4.808 -0.1855 -0.1888 -0.1050
36125ION     CL49539  10.349   2.975   3.255  0.0499  0.0114  0.0965
36126ION     CL49540   6.663   9.883  14.687  0.0855  0.0949  0.0440
36127ION     CL49541   5.821   5.959   0.646 -0.2075 -0.0102 -0.1078
36128ION     CL49542   9.953  17.974   3.183  0.1097 -0.0260  0.1573
36129ION     CL49543   6.988  16.945   0.987  0.0580  0.0490  0.0703
36130ION     CL49544  13.755   8.025  14.874 -0.0231 -0.0645  0.1241
36131ION     CL49545  15.592   8.020   1.955 -0.1491 -0.2861  0.0538
36132ION     CL49546   7.947  13.128  15.838 -0.0242 -0.1707  0.0713
36133ION     CL49547  13.111  16.448   2.320 -0.0930 -0.0322 -0.1096
36134ION     CL49548   5.842  11.451   2.338 -0.1024 -0.1896 -0.0030
36135ION     CL49549  12.224   1.737   2.878 -0.2791 -0.0213  0.1824
36136ION     CL49550   4.903   6.052  12.062 -0.0020  0.3178 -0.3504
36137ION     CL49551   0.321  11.892  11.008  0.2078 -0.1301  0.0073
36138ION     CL49552   3.880  10.339  13.919  0.0227 -0.0576  0.1830
36139ION     CL49553  15.711   3.480   5.530 -0.0068 -0.5584 -0.2392
36140ION     CL49554  16.524  12.676  14.316 -0.0082  0.0684 -0.2569
36141ION     CL49555  12.357   4.585  16.315  0.0494 -0.1103  0.1404
36142ION     CL49556   4.561   4.378   4.887  0.3092  0.0182 -0.0797
36143ION     CL49557  14.983   3.060   4.941 -0.1298 -0.1032 -0.1643
36144ION     CL49558  18.051   0.792  15.146  0.1461  0.1897  0.0345
36145ION     CL49559  11.179   9.502  12.050 -0.0558  0.0210 -0.0565
36146ION     CL49560  13.200   8.877   5.543 -0.2962 -0.4812  0.1589
36147ION     CL49561   9.491  16.838   2.274 -0.1489  0.2543 -0.0527
36148ION     CL49562   7.383  12.307   3.067  0.2916  0.0105  0.0781
36149ION     CL49563   3.619  14.190  15.765  0.1385 -0.0023  0.3515
36150ION     CL49564  13.153  13.990  13.768 -0.1694 -0.0200 -0.0505
36151ION     CL49565  15.911  12.234   1.460 -0.2024 -0.1383 -0.0289
36152ION     CL49566   7.695   8.696  14.284 -0.0557 -0.0777  0.0275
36153ION     CL49567  17.625   3.092   2.967  0.0187  0.2171  0.1217
36154ION     CL49568  13.001   6.339  14.453 -0.0226  0.0248 -0.1534
36155ION     CL49569   8.461  10.842  10.969 -0.3930  0.0586  0.1448
36156ION     CL49570  15.685   5.490   3.833  0.0547 -0.1090  0.4104
36157ION     CL49571   1.896   0.843  13.615 -0.0261  0.0987  0.3064
36158ION     CL49572  13.649  17.552  12.649 -0.1503  0.0071  0.1845
36159ION     CL49573  11.353   0.667   4.869  0.1761 -0.0728 -0.0645
36160ION     CL49574   7.216  15.269  14.395 -0.1274  0.1392  0.2043
36161ION     CL49575  16.133   2.153  13.526  0.0296  0.1357  0.1647
36162ION     CL49576   9.902   5.400   5.265 -0.0371  0.0025  0.0733
36163ION     CL49577  11.305   1.429  16.448  0.2637  0.1094  0.2224
36164ION     CL49578  11.501  12.108   2.368  0.1944 -0.0503  0.4289
36165ION     CL49579  14.268   1.513   4.460  0.1280  0.2002 -0.3095
36166ION     CL49580   5.815  13.186   4.514  0.0321 -0.1838 -0.1880
36167ION     CL49581  12.253   2.653  10.792  0.0157  0.2898 -0.2506
36168ION     CL49582   2.892  13.400  13.740 -0.0831  0.0307  0.2745
36169ION     CL49583   8.942   1.560  16.422  0.1172 -0.1672  0.0042
36170ION     CL49584   4.235  15.461  15.664 -0.0754  0.0541 -0.1584
36171ION     CL49585   2.138  13.504  13.115 -0.2404 -0.3946 -0.2232
36172ION     CL49586  12.704   2.765  13.643  0.0968 -0.0150  0.2199
36173ION     CL49587   4.780  13.320  13.933 -0.2379  0.0401  0.3289
36174ION     CL49588   8.560  14.518  15.925 -0.0034 -0.0248  0.1143
36175ION     CL49589   6.568  10.348  12.731  0.0056 -0.0061 -0.0980
36176ION     CL49590   3.932  14.800  14.330 -0.1939  0.1246 -0.1141
36177ION     CL49591  11.583   0.584  16.175 -0.1497 -0.5618 -0.0242
36178ION     CL49592  11.869   8.322   1.962  0.0319 -0.0983 -0.3165
  18.05585  18.05585  16.70389
