INSANE! Membrane UpperLeaflet>PSPI:POPI:POPS:YOPS:POPE:YOPE:POPC:YOPC:ERGO=6.0:14.0:21.0:9.0:9.0:21.0:12.0:48.0:60.0 LowerLeaflet>PSPI:POPI:POPS:YOPS:POPE:YOPE:POPC:YOPC:ERGO=6.0:14.0:21.0:9.0:9.0:21.0:12.0:48.0:60.0
49592
    1PSPI    C1    1  13.158   8.471  10.028 -0.0735  0.0368  0.0798
    1PSPI    C2    2  13.554   8.449   9.980 -0.0733  0.2785 -0.0483
    1PSPI    C3    3  13.392   8.380  10.339  0.0418 -0.2681 -0.0920
    1PSPI   PO4    4  13.090   8.743   9.848  0.2194 -0.0956 -0.0512
    1PSPI   GL1    5  13.381   8.999   9.522  0.2857 -0.0952  0.0059
    1PSPI   GL2    6  13.155   9.329   9.534 -0.1695  0.2712 -0.1802
    1PSPI   C1A    7  13.316   8.886   9.146 -0.1296  0.0443 -0.4195
    1PSPI   C2A    8  13.248   9.031   8.695  0.3008 -0.1701  0.0543
    1PSPI   C3A    9  12.927   9.277   8.661  0.0130  0.0131  0.0401
    1PSPI   C4A   10  12.709   9.611   8.514  0.1408 -0.2261 -0.0709
    1PSPI   C1B   11  13.221   9.579   9.150 -0.2612  0.0830  0.0986
    1PSPI   C2B   12  13.342   9.503   8.656  0.0992 -0.1635  0.2480
    1PSPI   C3B   13  13.354   9.295   8.239 -0.1482  0.1552 -0.1766
    1PSPI   C4B   14  13.056   8.878   8.143 -0.7275 -0.0513 -0.2915
    2PSPI    C1   15   2.854  15.824  10.788  0.2010 -0.1561 -0.1575
    2PSPI    C2   16   3.131  15.720  11.058  0.0416 -0.1046  0.0286
    2PSPI    C3   17   2.920  16.056  11.108 -0.0775 -0.1600 -0.0946
    2PSPI   PO4   18   2.890  15.751  10.596 -0.2326 -0.5582  0.0878
    2PSPI   GL1   19   3.107  15.815  10.219  0.0329  0.1765  0.2552
    2PSPI   GL2   20   3.064  16.066  10.148 -0.1402 -0.0815 -0.2463
    2PSPI   C1A   21   3.241  15.633   9.847 -0.3681  0.2040  0.0419
    2PSPI   C2A   22   3.199  15.450   9.492  0.1136 -0.4846 -0.0822
    2PSPI   C3A   23   3.155  15.654   9.076 -0.0466 -0.0701  0.3244
    2PSPI   C4A   24   3.134  15.654   8.649  0.1095  0.3736  0.1093
    2PSPI   C1B   25   3.154  16.108   9.737  0.1224 -0.1223 -0.1713
    2PSPI   C2B   26   3.146  16.044   9.403  0.2127  0.1397  0.1114
    2PSPI   C3B   27   3.145  16.191   8.953  0.0245  0.2033 -0.1112
    2PSPI   C4B   28   3.165  16.459   8.626  0.1942  0.2906 -0.0046
    3PSPI    C1   29   5.017  17.060  10.519  0.3131 -0.2153  0.2335
    3PSPI    C2   30   4.645  16.918  10.480  0.1390  0.2655  0.0732
    3PSPI    C3   31   4.943  16.672  10.581 -0.1459 -0.2091 -0.2039
    3PSPI   PO4   32   4.989  17.341  10.427 -0.1137  0.0315 -0.1091
    3PSPI   GL1   33   4.925  17.552  10.022  0.0906  0.1121 -0.0273
    3PSPI   GL2   34   4.630  17.265  10.064  0.0572  0.0182  0.0363
    3PSPI   C1A   35   4.888  17.487   9.628  0.0882  0.0124  0.1110
    3PSPI   C2A   36   4.898  17.595   9.216 -0.1100  0.0009 -0.0639
    3PSPI   C3A   37   4.912  17.877   8.914  0.3213  0.2283 -0.1138
    3PSPI   C4A   38   4.808  18.148   8.578  0.0466  0.1184 -0.0778
    3PSPI   C1B   39   4.513  17.143   9.690  0.0631 -0.0539  0.3175
    3PSPI   C2B   40   4.610  17.128   9.347  0.0176 -0.0938 -0.0071
    3PSPI   C3B   41   4.617  17.266   8.934 -0.2087  0.1327 -0.2442
    3PSPI   C4B   42   4.497  17.132   8.532  0.3076  0.0552  0.0298
    4PSPI    C1   43   4.645  14.558  10.827 -0.1064 -0.0254 -0.1779
    4PSPI    C2   44   4.930  14.278  10.823  0.0243  0.1055 -0.1230
    4PSPI    C3   45   4.607  14.231  11.054  0.0807  0.0346 -0.0579
    4PSPI   PO4   46   4.809  14.687  10.518 -0.0403 -0.0073 -0.0857
    4PSPI   GL1   47   4.570  14.934  10.228  0.0383 -0.2348  0.2779
    4PSPI   GL2   48   4.772  15.059   9.959  0.1611 -0.2584  0.3994
    4PSPI   C1A   49   4.392  14.818   9.782 -0.1534  0.0068  0.0513
    4PSPI   C2A   50   4.416  14.795   9.403  0.0825 -0.0081  0.2367
    4PSPI   C3A   51   4.365  14.656   9.022  0.0656  0.1963 -0.3321
    4PSPI   C4A   52   3.982  14.451   8.918 -0.0685  0.0296  0.0001
    4PSPI   C1B   53   4.881  14.864   9.582  0.1129 -0.1846 -0.0833
    4PSPI   C2B   54   4.844  14.772   9.162 -0.1199 -0.0865  0.2058
    4PSPI   C3B   55   4.921  14.521   8.879 -0.0273  0.0226  0.0842
    4PSPI   C4B   56   4.746  14.419   8.527  0.2056 -0.2370  0.3195
    5PSPI    C1   57   9.117  13.687   9.890 -0.1573  0.1989  0.1104
    5PSPI    C2   58   9.236  13.625  10.267  0.1800 -0.0244 -0.0283
    5PSPI    C3   59   9.197  13.998  10.128  0.3119  0.0570  0.1486
    5PSPI   PO4   60   8.897  13.463   9.878  0.3161  0.2482 -0.1873
    5PSPI   GL1   61   8.720  13.265   9.543 -0.0605 -0.2085 -0.1616
    5PSPI   GL2   62   8.971  13.075   9.478 -0.3470  0.2426  0.2228
    5PSPI   C1A   63   8.473  12.907   9.385 -0.0422  0.3023 -0.0343
    5PSPI   C2A   64   8.310  12.957   8.878  0.0112 -0.2532  0.3169
    5PSPI   C3A   65   8.067  13.200   8.660 -0.0715 -0.0229  0.2108
    5PSPI   C4A   66   7.788  12.943   8.511 -0.0171  0.1792  0.2188
    5PSPI   C1B   67   8.893  13.125   9.051  0.2605 -0.1124 -0.0811
    5PSPI   C2B   68   8.768  13.243   8.737 -0.1385  0.0160 -0.1287
    5PSPI   C3B   69   8.812  13.328   8.303  0.1533  0.1998  0.2874
    5PSPI   C4B   70   8.998  13.275   7.866 -0.0635 -0.1648  0.0054
    6PSPI    C1   71   2.594   2.103  10.479  0.0395  0.0117  0.0317
    6PSPI    C2   72   2.963   2.182  10.348 -0.0512  0.0397 -0.2108
    6PSPI    C3   73   2.720   2.481  10.456 -0.0384  0.0275 -0.1478
    6PSPI   PO4   74   2.596   1.855  10.365 -0.1835  0.0069 -0.3029
    6PSPI   GL1   75   2.694   1.469  10.103 -0.0218 -0.2286 -0.0585
    6PSPI   GL2   76   2.998   1.381   9.935  0.1275 -0.2096 -0.1436
    6PSPI   C1A   77   2.480   1.466   9.747  0.1599 -0.1320 -0.1062
    6PSPI   C2A   78   2.415   1.385   9.280 -0.1299 -0.0127  0.1250
    6PSPI   C3A   79   2.618   1.041   8.934 -0.0438 -0.1860 -0.1791
    6PSPI   C4A   80   2.674   0.750   8.658  0.2446  0.4200  0.1943
    6PSPI   C1B   81   2.988   1.385   9.614 -0.1139  0.2461  0.0942
    6PSPI   C2B   82   2.889   1.413   9.215  0.2607 -0.1808 -0.0638
    6PSPI   C3B   83   2.635   1.523   8.831 -0.0609  0.0505 -0.1181
    6PSPI   C4B   84   2.596   1.324   8.456 -0.0320 -0.1012 -0.1085
    7PSPI    C1   85  16.705   0.218  10.692 -0.1118 -0.0730 -0.1323
    7PSPI    C2   86  16.748   0.452  11.013 -0.0568  0.0677 -0.2410
    7PSPI    C3   87  16.524   0.122  11.035  0.2580 -0.1327  0.0503
    7PSPI   PO4   88  16.910   0.309  10.474  0.1037  0.1150 -0.0727
    7PSPI   GL1   89  16.978   0.357  10.103 -0.1121  0.1112 -0.0227
    7PSPI   GL2   90  16.987   0.044   9.974 -0.2089  0.1859 -0.1063
    7PSPI   C1A   91  16.842   0.384   9.704  0.0377  0.2071  0.2540
    7PSPI   C2A   92  16.713   0.379   9.389 -0.1574 -0.0643  0.1129
    7PSPI   C3A   93  16.945   0.518   8.982  0.0804  0.0691 -0.0453
    7PSPI   C4A   94  17.221   0.712   8.790  0.0354 -0.3232  0.1785
    7PSPI   C1B   95  16.851  -0.182   9.717  0.0642 -0.1629 -0.1790
    7PSPI   C2B   96  16.760  -0.201   9.275 -0.0925  0.0314  0.0255
    7PSPI   C3B   97  16.613   0.050   8.954 -0.1998  0.0836  0.0898
    7PSPI   C4B   98  16.762   0.184   8.599 -0.2111 -0.0298 -0.4093
    8PSPI    C1   99   9.421   9.248  10.178 -0.0864  0.0306 -0.1504
    8PSPI    C2  100   9.372   9.158  10.564  0.1135 -0.1767 -0.1714
    8PSPI    C3  101   9.663   9.409  10.452 -0.0798  0.0519 -0.1688
    8PSPI   PO4  102   9.120   9.249  10.078  0.0751 -0.1744 -0.1849
    8PSPI   GL1  103   8.857   9.266   9.799 -0.0054 -0.0236 -0.0582
    8PSPI   GL2  104   8.691   8.986   9.861  0.0124 -0.1436 -0.0328
    8PSPI   C1A  105   8.717   9.411   9.441 -0.0168  0.1729 -0.0507
    8PSPI   C2A  106   8.591   9.370   9.050 -0.2613  0.0239 -0.1184
    8PSPI   C3A  107   8.350   9.263   8.722  0.0296  0.2541 -0.0285
    8PSPI   C4A  108   7.923   9.277   8.520 -0.1545 -0.1269  0.1565
    8PSPI   C1B  109   8.831   8.908   9.466 -0.0871 -0.0830  0.1521
    8PSPI   C2B  110   8.880   8.989   8.966  0.2019 -0.2363 -0.2753
    8PSPI   C3B  111   8.740   9.025   8.605  0.0178  0.0268 -0.0769
    8PSPI   C4B  112   8.730   8.851   8.197 -0.1185 -0.2939 -0.1362
    9PSPI    C1  113  15.974  17.955  11.043  0.0557 -0.1519  0.0322
    9PSPI    C2  114  16.109  17.624  11.223  0.2153 -0.0603  0.0827
    9PSPI    C3  115  16.364  17.916  11.122  0.0885  0.0077 -0.0457
    9PSPI   PO4  116  15.818  17.946  10.699  0.0890 -0.0729  0.1069
    9PSPI   GL1  117  15.764  18.267  10.363 -0.0170 -0.0450 -0.1894
    9PSPI   GL2  118  15.531  18.048  10.272  0.0259  0.0004  0.0800
    9PSPI   C1A  119  15.525  18.585  10.058  0.0692  0.0739  0.0646
    9PSPI   C2A  120  15.413  18.584   9.617 -0.1251  0.0160 -0.0966
    9PSPI   C3A  121  15.484  18.738   9.140  0.2462 -0.0223  0.0650
    9PSPI   C4A  122  15.429  18.611   8.703  0.3244  0.1379  0.2008
    9PSPI   C1B  123  15.573  18.064   9.776 -0.0323  0.0356  0.1986
    9PSPI   C2B  124  15.381  18.114   9.381 -0.0654  0.0212  0.0075
    9PSPI   C3B  125  15.251  18.191   8.935 -0.0499 -0.4414  0.0173
    9PSPI   C4B  126  15.121  18.024   8.574  0.0912 -0.0483 -0.0138
   10PSPI    C1  127  11.626   3.466  10.133 -0.2254 -0.0842 -0.0567
   10PSPI    C2  128  11.500   3.839  10.205 -0.1063 -0.0367 -0.0923
   10PSPI    C3  129  11.692   3.634  10.489 -0.0228 -0.0090 -0.1285
   10PSPI   PO4  130  11.546   3.473   9.743  0.0512  0.0061 -0.2167
   10PSPI   GL1  131  11.555   3.801   9.401  0.0642 -0.1461 -0.1169
   10PSPI   GL2  132  11.783   4.003   9.281 -0.2018 -0.0366  0.0091
   10PSPI   C1A  133  11.453   3.711   8.999  0.1335 -0.2819  0.1370
   10PSPI   C2A  134  11.346   3.635   8.607 -0.3085  0.0508  0.0209
   10PSPI   C3A  135  11.604   3.675   8.296 -0.1231 -0.2312  0.0315
   10PSPI   C4A  136  11.764   3.427   8.026 -0.2121  0.0429 -0.0589
   10PSPI   C1B  137  11.761   4.068   8.864  0.0797 -0.1049 -0.3466
   10PSPI   C2B  138  11.538   4.128   8.473 -0.1488  0.0297  0.2187
   10PSPI   C3B  139  11.733   4.453   8.167 -0.0632 -0.1308  0.6017
   10PSPI   C4B  140  11.810   4.343   7.748  0.0442  0.0927 -0.0744
   11PSPI    C1  141  17.097  17.020  10.676  0.0326 -0.0222 -0.1390
   11PSPI    C2  142  16.698  16.996  10.680  0.0308  0.0215  0.0139
   11PSPI    C3  143  16.910  16.850  10.986  0.1172  0.2517  0.0663
   11PSPI   PO4  144  17.132  17.003  10.372 -0.2083  0.1991 -0.1103
   11PSPI   GL1  145  17.257  16.743  10.053  0.1995 -0.4602  0.1215
   11PSPI   GL2  146  17.237  16.544   9.980  0.0084 -0.0743 -0.2700
   11PSPI   C1A  147  17.071  16.923   9.656 -0.0092  0.1790 -0.0279
   11PSPI   C2A  148  16.810  17.109   9.304  0.1163 -0.1393  0.0823
   11PSPI   C3A  149  16.603  17.160   8.966 -0.0381 -0.0185 -0.0799
   11PSPI   C4A  150  16.580  17.146   8.582 -0.1597  0.1843  0.1343
   11PSPI   C1B  151  17.303  16.373   9.530 -0.1990 -0.1679  0.1032
   11PSPI   C2B  152  17.482  16.226   9.162 -0.1678  0.0213  0.1481
   11PSPI   C3B  153  17.465  16.082   8.718 -0.1074  0.3369 -0.5286
   11PSPI   C4B  154  17.200  15.712   8.412 -0.2890 -0.1548 -0.1497
   12PSPI    C1  155   2.871  17.775  10.650 -0.0664  0.0777  0.0444
   12PSPI    C2  156   3.173  17.681  10.404 -0.3093 -0.1290 -0.1806
   12PSPI    C3  157   3.207  17.616  10.797 -0.0107 -0.0233 -0.1868
   12PSPI   PO4  158   2.649  17.688  10.599  0.0173 -0.0713 -0.2291
   12PSPI   GL1  159   2.378  17.791  10.194 -0.2404 -0.0977  0.0778
   12PSPI   GL2  160   2.082  18.017  10.014 -0.3140 -0.0393 -0.0421
   12PSPI   C1A  161   2.325  17.479   9.964  0.2989 -0.1998 -0.0689
   12PSPI   C2A  162   2.412  17.349   9.648  0.2281 -0.0524  0.3853
   12PSPI   C3A  163   2.559  17.517   9.282 -0.1336 -0.0238  0.1944
   12PSPI   C4A  164   2.668  17.578   8.876 -0.1059 -0.0156  0.0337
   12PSPI   C1B  165   1.672  17.948   9.879 -0.1783  0.1005  0.0707
   12PSPI   C2B  166   1.480  17.777   9.532 -0.1101  0.0632 -0.1439
   12PSPI   C3B  167   1.427  17.541   9.102  0.1132  0.0805 -0.0515
   12PSPI   C4B  168   1.670  17.575   8.711  0.0982 -0.0847  0.0161
   13PSPI    C1  169  13.229  10.357  10.205 -0.2728  0.4693  0.3169
   13PSPI    C2  170  13.012  10.048  10.338  0.0886  0.0892  0.0491
   13PSPI    C3  171  13.250  10.249  10.590 -0.0670  0.0834  0.2023
   13PSPI   PO4  172  13.344  10.280  10.039 -0.3048 -0.3597  0.1436
   13PSPI   GL1  173  13.366  10.398   9.660 -0.1067  0.1415 -0.4245
   13PSPI   GL2  174  13.082  10.451   9.557  0.1152  0.0699 -0.1378
   13PSPI   C1A  175  13.470  10.545   9.188 -0.0789 -0.4333  0.0481
   13PSPI   C2A  176  13.306  10.489   8.750 -0.0549  0.1375  0.1618
   13PSPI   C3A  177  13.147  10.373   8.377 -0.1638 -0.3172  0.0569
   13PSPI   C4A  178  12.940  10.170   8.109 -0.3506 -0.0570  0.0676
   13PSPI   C1B  179  12.975  10.427   9.126  0.1695 -0.0303  0.2271
   13PSPI   C2B  180  12.826  10.624   8.764  0.1720  0.2035 -0.1957
   13PSPI   C3B  181  12.887  10.793   8.279  0.1096 -0.3093  0.1917
   13PSPI   C4B  182  12.647  11.046   8.000  0.1008 -0.0193  0.2429
   14PSPI    C1  183  11.488  11.769  10.338 -0.0400  0.0669 -0.0282
   14PSPI    C2  184  11.845  11.682  10.182 -0.0311  0.0571 -0.0024
   14PSPI    C3  185  11.806  11.727  10.577 -0.0137  0.2786 -0.0242
   14PSPI   PO4  186  11.402  11.898  10.119 -0.0878  0.0823  0.1450
   14PSPI   GL1  187  11.512  12.222   9.946 -0.2601 -0.2748 -0.1619
   14PSPI   GL2  188  11.936  12.059   9.875 -0.1474 -0.1684 -0.0593
   14PSPI   C1A  189  11.398  12.382   9.554  0.2100  0.1244 -0.3446
   14PSPI   C2A  190  11.667  12.638   9.227  0.0777  0.0584 -0.2772
   14PSPI   C3A  191  11.724  12.674   8.761  0.2013 -0.1703  0.0728
   14PSPI   C4A  192  11.749  12.620   8.312 -0.2630  0.1264 -0.0050
   14PSPI   C1B  193  11.803  12.098   9.418 -0.2440  0.1649 -0.1469
   14PSPI   C2B  194  11.628  12.159   9.010 -0.1211  0.1055  0.0063
   14PSPI   C3B  195  11.461  12.253   8.681  0.0472  0.1225 -0.1091
   14PSPI   C4B  196  11.260  12.427   8.352  0.3541  0.1144  0.1917
   15PSPI    C1  197  16.965   9.545  10.749 -0.1618 -0.0586  0.0170
   15PSPI    C2  198  16.699   9.544  11.047 -0.0500 -0.0875  0.1174
   15PSPI    C3  199  17.090   9.563  11.128 -0.0196 -0.0802 -0.0284
   15PSPI   PO4  200  16.871   9.689  10.535  0.1998  0.0021  0.0518
   15PSPI   GL1  201  16.914   9.504  10.162  0.1253 -0.0691 -0.0586
   15PSPI   GL2  202  16.881   9.775  10.042  0.0439  0.1607  0.2078
   15PSPI   C1A  203  16.890   9.315   9.799  0.1563  0.3178 -0.3134
   15PSPI   C2A  204  16.706   9.261   9.374  0.0822 -0.0502  0.0837
   15PSPI   C3A  205  16.754   9.280   8.988  0.0434  0.1811 -0.0749
   15PSPI   C4A  206  17.003   9.513   8.693 -0.0299  0.3847  0.1774
   15PSPI   C1B  207  16.956   9.886   9.610  0.0612  0.0141  0.0748
   15PSPI   C2B  208  16.954   9.798   9.168 -0.1096  0.0964  0.4243
   15PSPI   C3B  209  16.960   9.989   8.837  0.2193  0.1664 -0.1728
   15PSPI   C4B  210  16.817  10.237   8.586  0.0802 -0.0219  0.1025
   16PSPI    C1  211   3.289  11.575  10.677 -0.0345  0.2073 -0.0461
   16PSPI    C2  212   3.376  11.378  11.015 -0.1487  0.0782 -0.0907
   16PSPI    C3  213   3.273  11.765  11.029 -0.0569  0.0997  0.0114
   16PSPI   PO4  214   3.427  11.347  10.502 -0.0027  0.1396  0.3954
   16PSPI   GL1  215   3.392  11.281  10.199 -0.0490  0.2840 -0.0137
   16PSPI   GL2  216   3.564  11.070  10.080  0.2990  0.2112  0.1702
   16PSPI   C1A  217   3.152  11.516   9.924 -0.1660  0.0471  0.1921
   16PSPI   C2A  218   3.262  11.675   9.566  0.5307 -0.0169  0.0551
   16PSPI   C3A  219   3.156  11.962   9.269  0.1365  0.0953  0.3811
   16PSPI   C4A  220   3.021  12.011   8.882  0.2155  0.0011  0.1069
   16PSPI   C1B  221   3.468  11.084   9.652 -0.1670 -0.0392 -0.0553
   16PSPI   C2B  222   3.332  11.141   9.252 -0.2601 -0.3232 -0.2955
   16PSPI   C3B  223   3.345  11.068   8.848  0.1674 -0.0183 -0.2827
   16PSPI   C4B  224   3.622  10.891   8.533 -0.2578  0.0538  0.0287
   17PSPI    C1  225   7.492  14.820  10.145 -0.0513 -0.0873 -0.2611
   17PSPI    C2  226   7.850  14.962  10.254 -0.2504  0.0485  0.2444
   17PSPI    C3  227   7.740  14.593  10.362 -0.1879 -0.0713 -0.0869
   17PSPI   PO4  228   7.344  15.138  10.071 -0.1051 -0.0124  0.0450
   17PSPI   GL1  229   7.096  15.288   9.675  0.1714  0.2192  0.0364
   17PSPI   GL2  230   7.068  15.587   9.737  0.0250  0.1346 -0.2564
   17PSPI   C1A  231   6.892  15.316   9.351  0.0615 -0.3126 -0.3374
   17PSPI   C2A  232   6.759  15.417   8.829 -0.0198 -0.1271  0.1958
   17PSPI   C3A  233   6.621  15.266   8.437  0.2703  0.0890  0.1097
   17PSPI   C4A  234   6.676  14.963   8.273  0.0705 -0.0238 -0.0203
   17PSPI   C1B  235   7.122  15.775   9.342 -0.3173 -0.1449 -0.1050
   17PSPI   C2B  236   7.042  15.772   8.903 -0.0003 -0.0785 -0.0367
   17PSPI   C3B  237   6.831  15.713   8.429 -0.1313 -0.3588  0.0662
   17PSPI   C4B  238   6.615  15.959   8.049  0.2803  0.3514  0.1492
   18PSPI    C1  239  12.304  12.209  10.199  0.2952 -0.0489  0.1432
   18PSPI    C2  240  12.349  11.816  10.139  0.2670 -0.0200 -0.0728
   18PSPI    C3  241  12.342  11.962  10.511 -0.0373 -0.2617  0.0203
   18PSPI   PO4  242  12.448  12.387   9.916 -0.0333 -0.0004  0.2912
   18PSPI   GL1  243  12.756  12.467   9.605  0.0073  0.1931  0.0586
   18PSPI   GL2  244  12.927  12.166   9.650  0.0798 -0.5060 -0.0923
   18PSPI   C1A  245  12.562  12.324   9.174 -0.0479 -0.0587  0.3450
   18PSPI   C2A  246  12.505  12.233   8.727  0.4413 -0.1236 -0.2901
   18PSPI   C3A  247  12.448  12.278   8.318 -0.0870 -0.0222 -0.1568
   18PSPI   C4A  248  12.580  12.682   8.090 -0.1853  0.1424 -0.0296
   18PSPI   C1B  249  12.981  12.000   9.294  0.0257 -0.2934  0.0437
   18PSPI   C2B  250  13.262  11.777   9.100  0.2314 -0.2127  0.1866
   18PSPI   C3B  251  13.316  11.921   8.589 -0.1671 -0.1631 -0.0678
   18PSPI   C4B  252  12.931  11.907   8.474  0.0043 -0.1501 -0.1996
   19PSPI    C1  253   3.897   8.326  10.695  0.1110 -0.3524 -0.0357
   19PSPI    C2  254   3.687   8.114  10.960 -0.0534 -0.1045  0.0355
   19PSPI    C3  255   3.972   8.364  11.086 -0.1707  0.0563 -0.0150
   19PSPI   PO4  256   3.723   8.421  10.544 -0.0496  0.2452 -0.0135
   19PSPI   GL1  257   3.647   8.381  10.133  0.3047  0.0559 -0.2973
   19PSPI   GL2  258   3.687   8.692  10.062  0.1926 -0.1209  0.2295
   19PSPI   C1A  259   3.649   8.319   9.669  0.3211 -0.1959 -0.0176
   19PSPI   C2A  260   3.770   8.338   9.224 -0.0830  0.0356 -0.0779
   19PSPI   C3A  261   3.798   8.589   8.864 -0.0238  0.0419  0.2987
   19PSPI   C4A  262   4.104   8.719   8.575  0.0333  0.0849 -0.0733
   19PSPI   C1B  263   3.760   8.846   9.743 -0.1047 -0.2552  0.2055
   19PSPI   C2B  264   3.626   8.783   9.361  0.0995  0.2218  0.0080
   19PSPI   C3B  265   3.448   9.001   9.090 -0.2349 -0.0674  0.2123
   19PSPI   C4B  266   3.205   9.140   8.723 -0.0093 -0.0141 -0.2151
   20PSPI    C1  267   1.335  16.768  10.902  0.2549 -0.1818 -0.2259
   20PSPI    C2  268   1.625  16.504  10.985  0.1921 -0.1555  0.0900
   20PSPI    C3  269   1.418  16.674  11.282  0.1176  0.1240 -0.1175
   20PSPI   PO4  270   1.201  16.673  10.653 -0.0904  0.2558  0.1412
   20PSPI   GL1  271   1.178  16.462  10.215 -0.0287 -0.1516 -0.0942
   20PSPI   GL2  272   1.471  16.444  10.184  0.0884 -0.1587  0.1064
   20PSPI   C1A  273   1.076  16.416   9.762  0.1230  0.1712  0.4011
   20PSPI   C2A  274   0.935  16.379   9.312 -0.0217 -0.0036  0.0186
   20PSPI   C3A  275   0.733  16.358   8.970 -0.2050  0.0912  0.2661
   20PSPI   C4A  276   0.422  16.270   8.645  0.0776  0.1210 -0.3459
   20PSPI   C1B  277   1.600  16.371   9.869 -0.0654  0.1242  0.0020
   20PSPI   C2B  278   1.439  16.231   9.419 -0.0228 -0.1333 -0.1311
   20PSPI   C3B  279   1.330  16.459   9.037 -0.0233  0.0665 -0.1076
   20PSPI   C4B  280   1.048  16.679   8.765  0.0049  0.0345  0.2547
   21POPI    C1  281   7.626   7.029  10.288  0.0424  0.1431 -0.0944
   21POPI    C2  282   7.458   7.174  10.621  0.2584 -0.0614  0.1079
   21POPI    C3  283   7.451   7.389  10.283 -0.0056  0.1272  0.2293
   21POPI   PO4  284   7.466   6.818  10.279  0.2722 -0.2366  0.1024
   21POPI   GL1  285   7.337   6.586   9.889 -0.2516 -0.2921 -0.0594
   21POPI   GL2  286   6.992   6.576   9.863 -0.0369 -0.0876  0.0477
   21POPI   C1A  287   7.452   6.563   9.474 -0.0526  0.0306 -0.1051
   21POPI   D2A  288   7.298   6.400   9.088 -0.1793  0.0818  0.0844
   21POPI   C3A  289   7.504   6.316   8.807 -0.2155  0.1553 -0.2777
   21POPI   C4A  290   7.717   6.342   8.416 -0.4268 -0.1838  0.2002
   21POPI   C1B  291   6.993   6.797   9.632  0.2146 -0.1628 -0.2084
   21POPI   C2B  292   6.998   6.807   9.260 -0.0727 -0.0875 -0.1677
   21POPI   C3B  293   6.914   7.044   8.970 -0.0192 -0.0731  0.1228
   21POPI   C4B  294   6.776   7.193   8.540 -0.0596 -0.2203  0.1218
   22POPI    C1  295   5.907  15.964  10.704  0.1242 -0.3175  0.4673
   22POPI    C2  296   6.304  15.939  10.664  0.1086  0.1520 -0.1118
   22POPI    C3  297   6.139  16.264  10.830 -0.0403 -0.0238  0.0907
   22POPI   PO4  298   5.893  15.701  10.505 -0.0181 -0.1421 -0.0199
   22POPI   GL1  299   5.859  15.664  10.035  0.0934  0.0337 -0.0118
   22POPI   GL2  300   5.990  16.000   9.969  0.0192 -0.0989 -0.0820
   22POPI   C1A  301   5.569  15.822   9.623  0.3453 -0.1881  0.0770
   22POPI   D2A  302   5.322  15.748   9.305 -0.0187  0.2937 -0.2253
   22POPI   C3A  303   5.487  15.788   8.855 -0.1193  0.1230 -0.1420
   22POPI   C4A  304   5.332  15.429   8.670 -0.1471 -0.2825  0.1481
   22POPI   C1B  305   6.062  15.783   9.566 -0.3172 -0.3270  0.0791
   22POPI   C2B  306   6.077  15.651   9.190 -0.0722  0.0285 -0.1079
   22POPI   C3B  307   6.261  15.599   8.817 -0.0541  0.0132  0.3189
   22POPI   C4B  308   6.339  15.686   8.448 -0.1760  0.0094  0.2463
   23POPI    C1  309  17.807  16.681  11.127 -0.2233 -0.2077 -0.0675
   23POPI    C2  310  17.476  16.858  10.989  0.0182  0.2401 -0.0919
   23POPI    C3  311  17.662  17.006  11.311  0.1470 -0.0612 -0.0254
   23POPI   PO4  312  17.892  16.600  10.861  0.1011  0.1485  0.1591
   23POPI   GL1  313  17.919  16.548  10.381  0.0295  0.0175 -0.0098
   23POPI   GL2  314  17.662  16.418  10.188  0.0252 -0.2556 -0.0131
   23POPI   C1A  315  18.062  16.755   9.979 -0.0549 -0.1982 -0.0376
   23POPI   D2A  316  18.260  16.971   9.703  0.0131  0.0701  0.0457
   23POPI   C3A  317  18.285  16.956   9.265  0.3647 -0.1380  0.0556
   23POPI   C4A  318  18.187  16.972   8.875  0.0438 -0.3010  0.3315
   23POPI   C1B  319  17.756  16.237   9.755  0.1272 -0.1854 -0.0107
   23POPI   C2B  320  18.008  16.086   9.313  0.2312  0.0373 -0.1550
   23POPI   C3B  321  18.383  15.954   8.944 -0.3741 -0.2790  0.2463
   23POPI   C4B  322  18.574  15.594   8.843  0.1200 -0.0424  0.0561
   24POPI    C1  323  11.844  15.082  10.324  0.2248  0.2302 -0.0120
   24POPI    C2  324  12.008  14.974  10.672 -0.2254 -0.1320  0.0978
   24POPI    C3  325  11.704  15.234  10.666 -0.1137 -0.0026 -0.0423
   24POPI   PO4  326  11.917  14.899  10.152 -0.0565 -0.1985 -0.0766
   24POPI   GL1  327  11.837  14.840   9.830  0.1797 -0.2608  0.0898
   24POPI   GL2  328  11.754  15.142   9.656 -0.2939 -0.2077  0.0034
   24POPI   C1A  329  12.204  14.776   9.604  0.0100 -0.1020 -0.1260
   24POPI   D2A  330  12.196  14.671   9.101  0.1457 -0.0444 -0.0874
   24POPI   C3A  331  12.464  14.784   8.820  0.1451  0.2322  0.1316
   24POPI   C4A  332  12.695  15.009   8.535 -0.2331  0.1208  0.1437
   24POPI   C1B  333  11.904  15.052   9.335 -0.0548 -0.1398 -0.1174
   24POPI   C2B  334  11.971  15.087   8.881  0.2445 -0.2972 -0.1175
   24POPI   C3B  335  12.119  15.204   8.470 -0.2766 -0.1186 -0.1050
   24POPI   C4B  336  12.192  15.145   8.013 -0.1149  0.1011  0.2084
   25POPI    C1  337  13.975  15.182  11.004  0.0328  0.2138  0.2202
   25POPI    C2  338  14.102  14.809  11.073  0.0084  0.0934 -0.3375
   25POPI    C3  339  13.714  14.879  11.006 -0.0126  0.2485 -0.0709
   25POPI   PO4  340  14.193  15.221  10.721 -0.2289  0.1792 -0.0899
   25POPI   GL1  341  14.140  15.345  10.255 -0.1743 -0.2845 -0.4354
   25POPI   GL2  342  14.061  15.601  10.260  0.0043 -0.1461 -0.2385
   25POPI   C1A  343  14.195  15.574   9.778 -0.1634  0.0368 -0.1237
   25POPI   D2A  344  14.297  15.650   9.364 -0.0177  0.0038  0.0916
   25POPI   C3A  345  14.695  15.675   9.153  0.0119 -0.3146 -0.1951
   25POPI   C4A  346  14.869  15.709   8.702 -0.1237 -0.2436  0.0490
   25POPI   C1B  347  13.848  15.950  10.004 -0.1552  0.0320 -0.3459
   25POPI   C2B  348  13.882  15.847   9.598  0.0191  0.0397  0.1445
   25POPI   C3B  349  14.045  16.076   9.246 -0.1699 -0.1703  0.1364
   25POPI   C4B  350  14.175  16.035   8.855  0.0231 -0.0356  0.1278
   26POPI    C1  351  17.574   5.318  10.465  0.2240 -0.2498 -0.1494
   26POPI    C2  352  17.758   5.512  10.762 -0.0241 -0.0236 -0.1394
   26POPI    C3  353  17.763   5.113  10.751 -0.1067 -0.0383  0.2304
   26POPI   PO4  354  17.583   5.519  10.285  0.0997  0.0594  0.0742
   26POPI   GL1  355  17.514   5.658   9.865 -0.0135  0.1918  0.2221
   26POPI   GL2  356  17.568   6.034   9.902  0.0390 -0.1229 -0.1144
   26POPI   C1A  357  17.597   5.736   9.437 -0.1756  0.0054  0.1781
   26POPI   D2A  358  17.581   5.871   8.992  0.3186 -0.0446 -0.3081
   26POPI   C3A  359  17.818   6.175   8.767 -0.1763  0.0032 -0.0308
   26POPI   C4A  360  17.716   6.527   8.558 -0.3526  0.0154 -0.0238
   26POPI   C1B  361  17.447   6.242   9.535  0.0372  0.1811 -0.0505
   26POPI   C2B  362  17.351   6.273   9.085  0.2377 -0.0592  0.3208
   26POPI   C3B  363  17.291   6.283   8.655  0.1108  0.1897 -0.0033
   26POPI   C4B  364  17.505   6.058   8.316  0.0671  0.1509 -0.1823
   27POPI    C1  365   2.752  14.832  11.100  0.2813 -0.0453  0.0574
   27POPI    C2  366   2.481  15.104  11.212  0.3647  0.0460  0.0396
   27POPI    C3  367   2.597  14.819  11.468 -0.2449 -0.4079 -0.1637
   27POPI   PO4  368   2.840  14.899  10.799 -0.0826 -0.0147  0.0683
   27POPI   GL1  369   3.087  14.772  10.316 -0.0586 -0.3364  0.1429
   27POPI   GL2  370   3.019  14.380  10.301 -0.0816  0.0935  0.2388
   27POPI   C1A  371   3.243  15.045  10.027 -0.1770 -0.1132  0.0181
   27POPI   D2A  372   3.534  15.108   9.740  0.0981 -0.2123 -0.0272
   27POPI   C3A  373   3.604  15.307   9.316 -0.1533 -0.0492  0.5035
   27POPI   C4A  374   3.429  15.310   8.820  0.2813  0.0910 -0.1748
   27POPI   C1B  375   2.899  14.351   9.875  0.1852 -0.0148  0.3262
   27POPI   C2B  376   2.783  14.479   9.543 -0.1377 -0.0927 -0.2017
   27POPI   C3B  377   2.945  14.406   9.096 -0.0083  0.0863 -0.1948
   27POPI   C4B  378   2.669  14.189   8.718 -0.2904  0.1010 -0.3384
   28POPI    C1  379  18.218   4.664  10.389 -0.0926  0.1160 -0.0816
   28POPI    C2  380  17.844   4.675  10.530  0.0017 -0.0734  0.1903
   28POPI    C3  381  18.041   4.327  10.511  0.0408 -0.0320 -0.2888
   28POPI   PO4  382  18.439   4.772  10.466  0.2091  0.0720 -0.1425
   28POPI   GL1  383  18.649   4.848  10.066 -0.0851  0.0933  0.0450
   28POPI   GL2  384  18.667   4.508   9.919 -0.1082  0.0054 -0.0088
   28POPI   C1A  385  18.663   5.113   9.772 -0.0173  0.1834  0.2030
   28POPI   D2A  386  18.714   5.501   9.488 -0.3032 -0.2863  0.1930
   28POPI   C3A  387  18.883   5.584   9.160 -0.0083 -0.2592  0.0517
   28POPI   C4A  388  18.770   5.721   8.772 -0.1306  0.0918  0.1713
   28POPI   C1B  389  18.829   4.409   9.445  0.2498 -0.1329 -0.0777
   28POPI   C2B  390  18.935   4.486   9.067 -0.0171 -0.0207 -0.3633
   28POPI   C3B  391  19.007   4.507   8.696  0.0702  0.1313 -0.1983
   28POPI   C4B  392  19.130   4.436   8.173  0.0567 -0.2675  0.2157
   29POPI    C1  393   7.690   1.429  10.212 -0.0405  0.0014  0.1896
   29POPI    C2  394   8.030   1.477  10.006 -0.2439 -0.0510 -0.1667
   29POPI    C3  395   7.991   1.168  10.257  0.0927  0.1442  0.1362
   29POPI   PO4  396   7.461   1.460   9.998  0.1079  0.1466  0.1261
   29POPI   GL1  397   7.447   1.546   9.511 -0.2336 -0.0685  0.1777
   29POPI   GL2  398   7.797   1.395   9.540  0.0104 -0.0015  0.3530
   29POPI   C1A  399   7.291   1.421   9.149 -0.1924  0.0965  0.0434
   29POPI   D2A  400   7.217   1.488   8.716 -0.3196 -0.1299  0.0642
   29POPI   C3A  401   7.040   1.229   8.384 -0.1952 -0.0504 -0.2424
   29POPI   C4A  402   6.840   0.996   8.020 -0.4197 -0.2494  0.2091
   29POPI   C1B  403   7.786   1.348   9.175  0.0107 -0.2390  0.0206
   29POPI   C2B  404   7.643   1.320   8.791  0.0976  0.0346  0.3673
   29POPI   C3B  405   7.546   1.153   8.402  0.0090 -0.5454 -0.4344
   29POPI   C4B  406   7.728   1.215   8.084  0.1243  0.1562  0.2924
   30POPI    C1  407   4.025  12.565  11.083 -0.1109  0.0728 -0.3517
   30POPI    C2  408   3.965  12.943  11.199 -0.0271  0.0659 -0.2858
   30POPI    C3  409   3.655  12.694  11.161 -0.0926  0.1665 -0.4173
   30POPI   PO4  410   4.219  12.545  10.912 -0.0914 -0.1342 -0.0362
   30POPI   GL1  411   4.254  12.703  10.525  0.1837 -0.1637  0.1073
   30POPI   GL2  412   4.043  12.493  10.456  0.0927 -0.1755  0.2564
   30POPI   C1A  413   4.615  12.641  10.345  0.0522 -0.3607 -0.2018
   30POPI   D2A  414   4.825  12.709   9.921  0.2727  0.0272  0.2929
   30POPI   C3A  415   5.260  12.686   9.714  0.1598  0.0351  0.1638
   30POPI   C4A  416   5.628  12.427   9.408 -0.0930  0.2275 -0.0054
   30POPI   C1B  417   4.226  12.566  10.047  0.0478 -0.0280  0.0458
   30POPI   C2B  418   3.870  12.488   9.822 -0.4351 -0.1909  0.2286
   30POPI   C3B  419   3.713  12.485   9.500 -0.1211 -0.1708 -0.0700
   30POPI   C4B  420   3.930  12.388   9.086 -0.2930  0.0832  0.2497
   31POPI    C1  421   4.167   5.468  10.443  0.2247 -0.0204  0.1309
   31POPI    C2  422   4.508   5.482  10.652  0.0955  0.1904  0.3317
   31POPI    C3  423   4.304   5.139  10.624  0.4147  0.0176  0.0587
   31POPI   PO4  424   4.138   5.528  10.170  0.1002 -0.1060  0.2597
   31POPI   GL1  425   3.746   5.478  10.042  0.1800 -0.2122 -0.2833
   31POPI   GL2  426   3.515   5.555   9.844 -0.2831 -0.1769 -0.0623
   31POPI   C1A  427   3.781   5.173   9.695 -0.1666 -0.0313  0.0262
   31POPI   D2A  428   3.564   5.154   9.356  0.3185 -0.0776  0.4420
   31POPI   C3A  429   3.679   5.078   8.964  0.1016 -0.2020  0.2918
   31POPI   C4A  430   3.357   4.943   8.743 -0.0771 -0.2811 -0.0921
   31POPI   C1B  431   3.448   5.599   9.500  0.1881  0.3053  0.4956
   31POPI   C2B  432   3.311   5.542   9.082  0.2397 -0.0404  0.1503
   31POPI   C3B  433   3.347   5.457   8.697  0.0370 -0.0120  0.1534
   31POPI   C4B  434   3.542   5.202   8.380 -0.1601 -0.0995 -0.0075
   32POPI    C1  435   6.800   4.118  10.116 -0.2166  0.0372  0.0382
   32POPI    C2  436   6.660   3.817  10.339  0.0598 -0.0909  0.0431
   32POPI    C3  437   6.604   3.815   9.943 -0.1921 -0.0005  0.0762
   32POPI   PO4  438   7.078   4.080  10.050 -0.0799 -0.0719  0.1565
   32POPI   GL1  439   7.151   4.259   9.672 -0.1530 -0.2890  0.3229
   32POPI   GL2  440   6.796   4.263   9.593  0.0882 -0.1164  0.0078
   32POPI   C1A  441   7.369   4.495   9.307 -0.2329 -0.3717 -0.0704
   32POPI   D2A  442   7.313   4.413   8.879 -0.2946  0.1896  0.4484
   32POPI   C3A  443   7.060   4.639   8.586  0.0949  0.0920  0.0945
   32POPI   C4A  444   6.802   5.040   8.401  0.1093  0.2480  0.2946
   32POPI   C1B  445   6.885   4.400   9.229 -0.2595  0.1513  0.0853
   32POPI   C2B  446   6.753   4.353   8.874  0.2886  0.2347  0.2146
   32POPI   C3B  447   6.832   4.197   8.473  0.2527  0.1557 -0.1179
   32POPI   C4B  448   6.737   4.053   7.999 -0.2938  0.1359 -0.0724
   33POPI    C1  449   2.017   4.984  10.329 -0.1250 -0.0182 -0.1674
   33POPI    C2  450   1.975   5.223  10.647  0.0185 -0.3707  0.1238
   33POPI    C3  451   2.336   5.083  10.549 -0.0218 -0.2506 -0.2103
   33POPI   PO4  452   1.863   5.134  10.147  0.1428  0.3181  0.0935
   33POPI   GL1  453   1.837   5.148   9.682 -0.0382  0.0614  0.0026
   33POPI   GL2  454   2.181   5.010   9.719 -0.1363 -0.2219 -0.0763
   33POPI   C1A  455   1.914   5.335   9.379 -0.1834 -0.3226  0.1642
   33POPI   D2A  456   1.945   5.646   8.996 -0.1304 -0.1544  0.0512
   33POPI   C3A  457   1.862   5.521   8.499 -0.0536  0.1210 -0.2434
   33POPI   C4A  458   1.853   5.465   8.048  0.2882 -0.1124  0.1343
   33POPI   C1B  459   2.399   5.253   9.413  0.1236  0.0407  0.3018
   33POPI   C2B  460   2.377   5.431   8.991  0.0816  0.2268  0.3376
   33POPI   C3B  461   2.378   5.633   8.562 -0.3248  0.1842  0.1730
   33POPI   C4B  462   2.299   5.704   8.194  0.1866 -0.2411 -0.1126
   34POPI    C1  463  17.202  12.041  11.035  0.0361  0.0488 -0.0093
   34POPI    C2  464  17.556  12.183  10.915  0.2252 -0.0645  0.3974
   34POPI    C3  465  17.525  11.806  11.047 -0.1131 -0.1550  0.0769
   34POPI   PO4  466  17.069  12.158  10.808 -0.1248 -0.0426  0.2795
   34POPI   GL1  467  16.938  11.927  10.427 -0.1072  0.1017  0.0886
   34POPI   GL2  468  17.179  11.969  10.352  0.1146 -0.2569 -0.0548
   34POPI   C1A  469  16.899  11.954   9.909  0.0376 -0.0332  0.0858
   34POPI   D2A  470  16.858  12.175   9.642  0.1504  0.3789  0.1064
   34POPI   C3A  471  16.794  12.129   9.274 -0.0902 -0.0766 -0.1585
   34POPI   C4A  472  16.576  11.944   8.909  0.2449 -0.1019  0.3618
   34POPI   C1B  473  17.429  11.973   9.980  0.2890 -0.2744 -0.1721
   34POPI   C2B  474  17.400  12.264   9.626 -0.0445 -0.0222 -0.0120
   34POPI   C3B  475  17.208  12.509   9.328 -0.2836 -0.2610  0.0524
   34POPI   C4B  476  17.036  12.340   8.921 -0.1513 -0.0521 -0.2168
   35POPI    C1  477  15.130  17.394  10.931 -0.1325  0.1896 -0.3436
   35POPI    C2  478  14.801  17.167  10.908  0.1555 -0.2928  0.0688
   35POPI    C3  479  14.927  17.302  11.263  0.2730  0.0961 -0.1141
   35POPI   PO4  480  15.324  17.251  10.781  0.0355  0.3388 -0.2790
   35POPI   GL1  481  15.264  17.330  10.342  0.0247  0.2536 -0.3098
   35POPI   GL2  482  15.066  17.519  10.419  0.1456  0.0645  0.2276
   35POPI   C1A  483  15.573  17.588  10.097 -0.1357  0.0126 -0.0059
   35POPI   D2A  484  15.795  17.527   9.757  0.1444 -0.0712  0.0673
   35POPI   C3A  485  16.022  17.153   9.668  0.1728  0.0140  0.0534
   35POPI   C4A  486  16.468  17.084   9.700 -0.1159  0.0423 -0.3288
   35POPI   C1B  487  14.753  17.634  10.222  0.1334 -0.0225 -0.0526
   35POPI   C2B  488  14.540  17.742   9.793 -0.1879  0.0911 -0.2231
   35POPI   C3B  489  14.502  17.763   9.336 -0.5134  0.1149  0.0001
   35POPI   C4B  490  14.389  17.682   8.902 -0.2484 -0.1156 -0.1347
   36POPI    C1  491  11.080  11.357  10.519 -0.0822 -0.1750  0.1008
   36POPI    C2  492  11.448  11.348  10.677  0.0445 -0.1163 -0.1840
   36POPI    C3  493  11.157  11.553  10.859  0.1676 -0.1120  0.0105
   36POPI   PO4  494  11.099  11.473  10.243  0.0819 -0.3037 -0.1645
   36POPI   GL1  495  11.168  11.533   9.852 -0.0474  0.0804 -0.0875
   36POPI   GL2  496  10.928  11.497   9.642 -0.2114 -0.0203  0.0726
   36POPI   C1A  497  11.213  11.820   9.474  0.1501  0.0318 -0.1014
   36POPI   D2A  498  11.135  11.953   9.097 -0.1450  0.0026 -0.0512
   36POPI   C3A  499  11.115  11.802   8.720 -0.1036  0.0608  0.1411
   36POPI   C4A  500  11.204  11.518   8.327 -0.1334 -0.0099 -0.0586
   36POPI   C1B  501  10.698  11.765   9.310 -0.5057  0.0820  0.3964
   36POPI   C2B  502  10.620  11.930   8.879 -0.2075  0.2058  0.0038
   36POPI   C3B  503  10.389  12.098   8.428 -0.0889  0.3114 -0.1183
   36POPI   C4B  504  10.161  11.855   8.086  0.1213  0.2167 -0.1086
   37POPI    C1  505   8.295  16.181  10.187  0.1194 -0.1365 -0.0971
   37POPI    C2  506   8.487  16.458  10.401  0.1010 -0.0275 -0.2202
   37POPI    C3  507   8.651  16.097  10.349  0.1624 -0.0137 -0.1268
   37POPI   PO4  508   8.248  16.345   9.926  0.2982 -0.1768 -0.0551
   37POPI   GL1  509   8.414  16.146   9.559  0.2056 -0.1316  0.3418
   37POPI   GL2  510   8.165  16.387   9.435 -0.0359 -0.1998 -0.3325
   37POPI   C1A  511   8.491  16.133   9.153 -0.0278  0.1969  0.1719
   37POPI   D2A  512   8.715  16.149   8.789  0.2088  0.0359 -0.1161
   37POPI   C3A  513   8.568  15.839   8.432  0.1703  0.1117  0.0429
   37POPI   C4A  514   8.277  15.524   8.562  0.0782  0.2370 -0.2653
   37POPI   C1B  515   8.031  16.378   9.027  0.0900  0.0815  0.2696
   37POPI   C2B  516   7.774  16.346   8.723  0.1167 -0.2264 -0.0103
   37POPI   C3B  517   7.743  16.546   8.300  0.1239  0.0206  0.2220
   37POPI   C4B  518   7.788  16.873   8.038 -0.0542 -0.1455 -0.1023
   38POPI    C1  519   6.990  14.105  10.368 -0.0443  0.0991 -0.0353
   38POPI    C2  520   6.681  14.147  10.617  0.1194 -0.2670  0.2380
   38POPI    C3  521   6.814  14.461  10.409 -0.4487 -0.1105  0.0953
   38POPI   PO4  522   6.940  13.953  10.173 -0.1622 -0.1836  0.1152
   38POPI   GL1  523   7.081  13.914   9.837 -0.0236 -0.1287  0.2130
   38POPI   GL2  524   7.179  13.629   9.802  0.1970  0.0999  0.1722
   38POPI   C1A  525   7.166  13.911   9.448  0.0256  0.2054  0.1283
   38POPI   D2A  526   7.087  13.687   9.087  0.0131  0.0134  0.0528
   38POPI   C3A  527   7.042  13.894   8.593  0.0136  0.0236  0.0914
   38POPI   C4A  528   6.837  13.876   8.230  0.0090 -0.2212  0.2818
   38POPI   C1B  529   7.496  13.555   9.408  0.0215 -0.1843  0.0860
   38POPI   C2B  530   7.587  13.584   8.945  0.1716 -0.1255 -0.0884
   38POPI   C3B  531   7.508  13.359   8.569 -0.2785 -0.0286 -0.2184
   38POPI   C4B  532   7.220  13.014   8.373  0.1507 -0.3435 -0.1809
   39POPI    C1  533  10.262  16.151  10.393 -0.3659 -0.0802  0.1625
   39POPI    C2  534  10.658  16.107  10.356 -0.3451  0.2673 -0.0778
   39POPI    C3  535  10.482  16.048  10.711 -0.0987 -0.0165  0.0009
   39POPI   PO4  536  10.214  16.089  10.097  0.0605 -0.2461  0.1033
   39POPI   GL1  537  10.235  16.148   9.687 -0.0679 -0.0529 -0.0012
   39POPI   GL2  538  10.084  16.402   9.668 -0.0248 -0.1832 -0.0859
   39POPI   C1A  539  10.150  15.980   9.361 -0.1729  0.0387  0.1318
   39POPI   D2A  540  10.039  15.627   9.175  0.1883 -0.2593  0.0050
   39POPI   C3A  541  10.015  15.668   8.713  0.2439 -0.1838 -0.1170
   39POPI   C4A  542   9.905  15.788   8.387 -0.1685  0.4034 -0.0030
   39POPI   C1B  543  10.053  16.473   9.122  0.0121  0.0599 -0.0825
   39POPI   C2B  544  10.012  16.677   8.772 -0.0988 -0.1387  0.1782
   39POPI   C3B  545   9.992  16.764   8.427 -0.5360 -0.0172  0.0516
   39POPI   C4B  546  10.231  16.728   7.970  0.0918 -0.0022 -0.1338
   40POPI    C1  547   7.385   7.894  10.447  0.1067 -0.1631 -0.0710
   40POPI    C2  548   7.231   7.972  10.808  0.1563  0.0602 -0.0968
   40POPI    C3  549   7.604   7.832  10.775  0.0452 -0.2545 -0.0468
   40POPI   PO4  550   7.205   7.842  10.342  0.0967 -0.2242  0.2993
   40POPI   GL1  551   7.358   7.672   9.881 -0.0809 -0.1103 -0.1924
   40POPI   GL2  552   7.644   7.820   9.987 -0.2110 -0.1064  0.0586
   40POPI   C1A  553   7.319   7.560   9.411  0.2351 -0.1999  0.0697
   40POPI   D2A  554   7.293   7.327   9.086  0.0150  0.2324 -0.0970
   40POPI   C3A  555   7.330   7.120   8.659 -0.1018 -0.0060 -0.1586
   40POPI   C4A  556   7.196   6.708   8.696  0.0222 -0.2677  0.2602
   40POPI   C1B  557   7.658   7.878   9.526 -0.0908 -0.0513  0.4087
   40POPI   C2B  558   7.655   7.787   9.052 -0.0078  0.2373  0.0718
   40POPI   C3B  559   7.936   7.797   8.746 -0.2212 -0.0777 -0.0158
   40POPI   C4B  560   8.431   7.800   8.507 -0.0081  0.0718  0.1365
   41POPI    C1  561  16.268  12.454  10.495  0.1156 -0.0365 -0.1228
   41POPI    C2  562  16.098  12.549  10.146  0.0480 -0.1322 -0.1165
   41POPI    C3  563  16.431  12.736  10.264  0.2129 -0.2738 -0.3494
   41POPI   PO4  564  16.142  12.129  10.393  0.0681  0.1143 -0.2934
   41POPI   GL1  565  16.067  11.998  10.061 -0.1073 -0.0535  0.0659
   41POPI   GL2  566  16.253  12.090   9.856 -0.1001  0.0500  0.1332
   41POPI   C1A  567  16.145  11.612   9.683  0.0105 -0.0737  0.1312
   41POPI   D2A  568  16.315  11.321   9.412 -0.3013 -0.0722 -0.2630
   41POPI   C3A  569  16.458  11.532   9.141 -0.0103 -0.0520 -0.0747
   41POPI   C4A  570  16.697  11.470   8.744  0.1316 -0.1819  0.2603
   41POPI   C1B  571  16.326  12.247   9.415 -0.2374 -0.0443  0.2743
   41POPI   C2B  572  16.330  12.246   9.167  0.1507  0.0850  0.4346
   41POPI   C3B  573  16.208  12.267   8.787  0.1534  0.2879 -0.1170
   41POPI   C4B  574  15.942  12.067   8.511 -0.1617  0.1413 -0.2958
   42POPI    C1  575   5.188   8.039  10.826  0.0277 -0.1727 -0.0915
   42POPI    C2  576   5.090   7.658  10.750  0.2287 -0.2188 -0.1253
   42POPI    C3  577   5.234   7.759  11.109 -0.0253 -0.1346 -0.0450
   42POPI   PO4  578   5.143   8.122  10.460  0.1060  0.1769 -0.1424
   42POPI   GL1  579   4.984   8.192  10.013  0.2626 -0.0753 -0.1027
   42POPI   GL2  580   5.019   7.933   9.823 -0.1417  0.0696 -0.0305
   42POPI   C1A  581   5.213   8.441   9.704 -0.0733  0.2699  0.0946
   42POPI   D2A  582   5.556   8.424   9.444  0.2195  0.3552  0.2517
   42POPI   C3A  583   5.718   8.506   9.020  0.1596 -0.0087 -0.1420
   42POPI   C4A  584   5.882   8.620   8.651  0.1692 -0.0005  0.4227
   42POPI   C1B  585   5.157   7.989   9.412  0.1859 -0.1154 -0.0591
   42POPI   C2B  586   5.429   8.081   9.030 -0.1255 -0.1095  0.3666
   42POPI   C3B  587   5.646   8.125   8.644 -0.0480 -0.0031  0.1929
   42POPI   C4B  588   5.657   8.077   8.226  0.1720 -0.1004  0.0655
   43POPI    C1  589  10.478   7.069  10.727  0.1124 -0.1336 -0.0356
   43POPI    C2  590  10.509   6.986  11.117 -0.1802  0.0980  0.0404
   43POPI    C3  591  10.182   6.875  10.915 -0.0364 -0.0068 -0.1373
   43POPI   PO4  592  10.586   6.936  10.627  0.2273 -0.1647  0.1954
   43POPI   GL1  593  10.848   7.102  10.316  0.0526 -0.2179  0.1603
   43POPI   GL2  594  11.080   7.004  10.090 -0.0806 -0.1144  0.0134
   43POPI   C1A  595  10.678   7.323   9.910 -0.1317 -0.0773 -0.0215
   43POPI   D2A  596  10.455   7.540   9.956 -0.1694  0.0820 -0.2601
   43POPI   C3A  597  10.184   7.685   9.656 -0.4034 -0.1544 -0.1404
   43POPI   C4A  598  10.089   7.982   9.403 -0.0102 -0.0609 -0.0704
   43POPI   C1B  599  11.019   6.999   9.605  0.2111  0.5394  0.2200
   43POPI   C2B  600  10.893   7.204   9.385  0.1082  0.0381  0.0560
   43POPI   C3B  601  10.688   7.350   8.947 -0.0327 -0.2410  0.1254
   43POPI   C4B  602  10.567   7.161   8.612 -0.0569  0.1885 -0.0034
   44POPI    C1  603   6.370  13.599  10.794  0.0837  0.2092  0.0482
   44POPI    C2  604   6.291  13.975  10.906 -0.3499  0.1273  0.0335
   44POPI    C3  605   6.039  13.680  11.002 -0.0248 -0.1598  0.0261
   44POPI   PO4  606   6.540  13.690  10.535 -0.1990 -0.1975 -0.2098
   44POPI   GL1  607   6.503  13.673  10.056 -0.0413 -0.0860 -0.3183
   44POPI   GL2  608   6.708  13.604   9.895  0.0870  0.1632  0.1826
   44POPI   C1A  609   6.338  13.549   9.647 -0.0570 -0.2243  0.2760
   44POPI   D2A  610   6.342  13.429   9.288  0.2715  0.0604  0.0364
   44POPI   C3A  611   6.184  13.144   9.039  0.1401  0.1004  0.1491
   44POPI   C4A  612   6.066  12.911   8.661  0.0771 -0.0397  0.2203
   44POPI   C1B  613   6.811  13.445   9.525 -0.2500  0.1357 -0.1241
   44POPI   C2B  614   6.715  13.053   9.415  0.1791  0.1119  0.0160
   44POPI   C3B  615   6.536  12.798   9.216  0.1686 -0.1606 -0.2757
   44POPI   C4B  616   6.432  12.465   8.874 -0.0928 -0.2751 -0.1167
   45POPI    C1  617   2.526   0.801  10.690  0.0969 -0.0982  0.2224
   45POPI    C2  618   2.763   0.555  10.482 -0.1516  0.0340 -0.2313
   45POPI    C3  619   2.489   0.405  10.732  0.1947 -0.1254  0.0630
   45POPI   PO4  620   2.497   1.032  10.447 -0.0902 -0.2323 -0.0516
   45POPI   GL1  621   2.209   0.990  10.031 -0.0363 -0.3623  0.0255
   45POPI   GL2  622   2.349   0.727  10.001  0.0011 -0.0967  0.0837
   45POPI   C1A  623   2.233   1.066   9.676 -0.1638 -0.1419  0.0310
   45POPI   D2A  624   2.057   0.988   9.290  0.1419 -0.3068 -0.2700
   45POPI   C3A  625   2.163   0.911   8.874 -0.1048  0.1912 -0.3348
   45POPI   C4A  626   2.120   1.233   8.578  0.0675 -0.1613 -0.3345
   45POPI   C1B  627   2.618   0.504   9.649 -0.0854  0.0639 -0.2242
   45POPI   C2B  628   2.506   0.175   9.290 -0.1722 -0.0500  0.0359
   45POPI   C3B  629   2.286   0.343   8.813 -0.2620 -0.2501 -0.0945
   45POPI   C4B  630   1.892   0.567   8.665  0.1320  0.1170 -0.3781
   46POPI    C1  631  12.372   3.901  10.172 -0.0842 -0.0393 -0.0034
   46POPI    C2  632  11.998   3.963  10.298 -0.0740 -0.0802  0.0472
   46POPI    C3  633  12.297   4.185  10.443 -0.0885  0.0025 -0.0482
   46POPI   PO4  634  12.419   3.922   9.812  0.1655  0.1350  0.0718
   46POPI   GL1  635  12.219   3.818   9.413 -0.1165  0.0577  0.0454
   46POPI   GL2  636  12.024   3.608   9.473  0.2546  0.0478  0.1006
   46POPI   C1A  637  12.391   3.610   8.966  0.0749 -0.1367 -0.1530
   46POPI   D2A  638  12.128   3.521   8.493 -0.2102 -0.1941  0.2598
   46POPI   C3A  639  12.297   3.275   8.152 -0.3335  0.1421 -0.3877
   46POPI   C4A  640  12.372   3.289   7.689  0.2091  0.7079 -0.0573
   46POPI   C1B  641  11.923   3.594   9.040  0.4572  0.2570  0.2231
   46POPI   C2B  642  11.747   3.327   8.693 -0.0757 -0.3296  0.1433
   46POPI   C3B  643  11.891   3.070   8.378 -0.0604  0.0065 -0.2177
   46POPI   C4B  644  11.981   2.923   7.934 -0.1015 -0.1478 -0.2538
   47POPI    C1  645  17.205  11.601  10.798 -0.0623  0.1902 -0.2057
   47POPI    C2  646  16.991  11.318  10.984  0.0505  0.1026 -0.2087
   47POPI    C3  647  16.858  11.695  10.974 -0.0512  0.0695 -0.1184
   47POPI   PO4  648  17.266  11.457  10.580  0.0645 -0.2527  0.1568
   47POPI   GL1  649  17.475  11.461  10.165  0.3574  0.0201 -0.1397
   47POPI   GL2  650  17.790  11.451  10.214 -0.1390 -0.2409 -0.0855
   47POPI   C1A  651  17.480  11.358   9.725 -0.2839 -0.2146 -0.0453
   47POPI   D2A  652  17.357  11.365   9.375 -0.0313 -0.1716 -0.0625
   47POPI   C3A  653  17.626  11.614   9.093 -0.2146 -0.1915 -0.1962
   47POPI   C4A  654  17.544  11.830   8.671 -0.3453 -0.0037 -0.0092
   47POPI   C1B  655  17.915  11.816  10.039 -0.0202 -0.2016 -0.3235
   47POPI   C2B  656  17.893  12.161   9.701  0.2250 -0.0855 -0.0069
   47POPI   C3B  657  17.930  12.071   9.242 -0.0771 -0.2519  0.1418
   47POPI   C4B  658  17.992  12.103   8.722 -0.2421 -0.0194 -0.1279
   48POPI    C1  659  14.490  12.765  10.403 -0.0236 -0.0627  0.0144
   48POPI    C2  660  14.226  13.038  10.528  0.0643  0.0143  0.0330
   48POPI    C3  661  14.516  12.914  10.774  0.2907  0.2302 -0.1199
   48POPI   PO4  662  14.270  12.548  10.312 -0.0821  0.0617 -0.0017
   48POPI   GL1  663  14.159  12.503   9.919  0.1043  0.0194 -0.1114
   48POPI   GL2  664  14.335  12.540   9.773 -0.3909 -0.0618 -0.4396
   48POPI   C1A  665  14.009  12.845   9.572  0.1052 -0.2269 -0.4091
   48POPI   D2A  666  13.969  12.982   9.227 -0.1763 -0.1238  0.1001
   48POPI   C3A  667  14.353  12.990   8.873 -0.0237 -0.5565 -0.1250
   48POPI   C4A  668  14.567  12.801   8.690  0.2121 -0.0670 -0.0410
   48POPI   C1B  669  14.386  12.617   9.342  0.0830 -0.1218  0.0626
   48POPI   C2B  670  14.193  12.525   9.032 -0.3022 -0.0229 -0.0549
   48POPI   C3B  671  14.075  12.512   8.533  0.0744 -0.1934  0.1367
   48POPI   C4B  672  13.980  12.469   8.152 -0.0456 -0.1673 -0.2477
   49POPI    C1  673  14.094   4.122  10.049 -0.0484 -0.0680  0.1582
   49POPI    C2  674  13.885   4.430   9.903 -0.1706 -0.2148  0.0194
   49POPI    C3  675  13.814   4.298  10.274  0.1590  0.1763  0.2295
   49POPI   PO4  676  14.126   3.956   9.845 -0.0528 -0.2053 -0.1437
   49POPI   GL1  677  14.305   3.795   9.575  0.1455  0.2689  0.0480
   49POPI   GL2  678  14.422   4.068   9.372 -0.0838  0.3215 -0.0393
   49POPI   C1A  679  14.163   3.503   9.296  0.0951  0.0728  0.2375
   49POPI   D2A  680  14.015   3.251   8.993 -0.0645 -0.2151  0.0813
   49POPI   C3A  681  14.291   3.009   8.759  0.1126 -0.0555 -0.0453
   49POPI   C4A  682  14.460   2.842   8.444  0.0691  0.0355 -0.2470
   49POPI   C1B  683  14.521   3.947   8.975 -0.0554 -0.0461 -0.1542
   49POPI   C2B  684  14.598   3.901   8.549  0.2732 -0.1613  0.3262
   49POPI   C3B  685  14.445   3.669   8.145  0.1166 -0.1376 -0.1000
   49POPI   C4B  686  14.288   3.367   7.802 -0.2928 -0.0262 -0.0313
   50POPI    C1  687  10.301   4.579   9.870 -0.1152 -0.0245 -0.1244
   50POPI    C2  688  10.608   4.339   9.777 -0.0993  0.0221 -0.1930
   50POPI    C3  689  10.450   4.329  10.144 -0.1037 -0.0989 -0.1980
   50POPI   PO4  690  10.069   4.614   9.658 -0.0605 -0.0117 -0.0457
   50POPI   GL1  691  10.035   4.936   9.369 -0.1297 -0.1185 -0.0769
   50POPI   GL2  692   9.785   4.648   9.232 -0.1203  0.2861  0.0304
   50POPI   C1A  693  10.026   5.075   8.945  0.0161 -0.2173  0.1558
   50POPI   D2A  694  10.111   4.906   8.572  0.0184  0.0804 -0.3015
   50POPI   C3A  695  10.024   5.165   8.244 -0.1990  0.2666  0.0261
   50POPI   C4A  696   9.952   5.134   7.761 -0.0702  0.0575 -0.2495
   50POPI   C1B  697   9.850   4.641   8.871 -0.2886  0.0621  0.0271
   50POPI   C2B  698   9.731   4.585   8.432 -0.2516 -0.0702  0.1552
   50POPI   C3B  699  10.017   4.669   8.130  0.0205  0.1166  0.1851
   50POPI   C4B  700  10.253   4.621   7.752 -0.0399  0.1801 -0.3075
   51POPI    C1  701   9.422  11.139  10.277  0.0127  0.0203  0.0791
   51POPI    C2  702   9.384  11.460  10.512  0.0278 -0.0879  0.2312
   51POPI    C3  703   9.284  11.099  10.651 -0.0292 -0.1439  0.0468
   51POPI   PO4  704   9.410  11.364  10.020  0.1065 -0.0487 -0.1224
   51POPI   GL1  705   9.246  11.557   9.532  0.1964  0.0318 -0.0142
   51POPI   GL2  706   9.485  11.811   9.528 -0.2218 -0.1965 -0.3218
   51POPI   C1A  707   9.336  11.431   9.128  0.1968  0.0955 -0.1505
   51POPI   D2A  708   9.505  11.642   8.793  0.0519  0.1334 -0.0715
   51POPI   C3A  709   9.659  11.419   8.441  0.1417 -0.1203 -0.0216
   51POPI   C4A  710   9.893  11.221   8.137 -0.1118  0.0942  0.0999
   51POPI   C1B  711   9.757  11.802   9.189  0.2288  0.0681 -0.0474
   51POPI   C2B  712  10.211  11.646   9.034  0.1125  0.1564  0.1528
   51POPI   C3B  713  10.214  11.493   8.498  0.0750 -0.1493 -0.2152
   51POPI   C4B  714  10.332  11.368   8.076 -0.1819  0.0287  0.1180
   52POPI    C1  715   8.534   1.231  10.173 -0.1593  0.1205  0.1917
   52POPI    C2  716   8.419   1.083  10.526 -0.2748  0.2473  0.2079
   52POPI    C3  717   8.729   1.335  10.507  0.0628 -0.1607  0.1540
   52POPI   PO4  718   8.410   0.897  10.048  0.0329 -0.3020  0.3287
   52POPI   GL1  719   8.456   0.730   9.601 -0.1556 -0.0129  0.0331
   52POPI   GL2  720   8.477   0.393   9.701  0.1094  0.2580  0.2393
   52POPI   C1A  721   8.524   0.686   9.205  0.1657  0.1195 -0.1564
   52POPI   D2A  722   8.545   0.602   8.712  0.0020 -0.0730 -0.0426
   52POPI   C3A  723   8.218   0.709   8.462  0.2845 -0.0958  0.1749
   52POPI   C4A  724   7.812   0.721   8.251  0.2183 -0.0543  0.0674
   52POPI   C1B  725   8.168   0.409   9.352 -0.1269  0.1221  0.1210
   52POPI   C2B  726   8.031   0.298   8.975  0.0326 -0.1340  0.0621
   52POPI   C3B  727   8.153   0.127   8.521 -0.2047 -0.4757  0.1625
   52POPI   C4B  728   8.249  -0.135   8.219  0.1131 -0.1165  0.0356
   53POPI    C1  729   2.063  11.113  10.723  0.2405  0.2853 -0.0415
   53POPI    C2  730   1.816  10.903  10.957  0.2900  0.0743 -0.1755
   53POPI    C3  731   1.697  11.253  10.804  0.1695  0.0969 -0.0325
   53POPI   PO4  732   2.130  11.076  10.479  0.0148  0.0188  0.0721
   53POPI   GL1  733   1.973  11.120  10.028  0.4006 -0.1231  0.2907
   53POPI   GL2  734   2.224  10.857  10.008 -0.3637  0.0492  0.1229
   53POPI   C1A  735   1.937  11.053   9.607  0.0109 -0.2321 -0.1782
   53POPI   D2A  736   1.965  11.009   9.185 -0.2721  0.1406 -0.0360
   53POPI   C3A  737   1.987  11.352   8.936  0.3277 -0.5440 -0.2437
   53POPI   C4A  738   1.591  11.579   8.804  0.0502 -0.2238  0.1905
   53POPI   C1B  739   2.131  10.597   9.633 -0.1271 -0.1761 -0.4043
   53POPI   C2B  740   2.168  10.506   9.244 -0.0737 -0.1757  0.4918
   53POPI   C3B  741   2.235  10.359   8.847 -0.1168 -0.1112 -0.0311
   53POPI   C4B  742   2.239  10.091   8.390  0.0995 -0.1905 -0.1132
   54POPI    C1  743  10.536  17.626  10.096  0.0706 -0.3722  0.1293
   54POPI    C2  744  10.774  17.858  10.318 -0.0004  0.1414 -0.3122
   54POPI    C3  745  10.379  17.860  10.379  0.0060  0.0805 -0.2681
   54POPI   PO4  746  10.539  17.744   9.841  0.0556 -0.1112 -0.0293
   54POPI   GL1  747  10.754  17.732   9.494  0.0843 -0.1530 -0.2008
   54POPI   GL2  748  10.940  17.955   9.249  0.1332 -0.0836 -0.2265
   54POPI   C1A  749  10.786  17.302   9.197 -0.1129  0.1370  0.2598
   54POPI   D2A  750  10.658  17.219   8.876  0.0401 -0.0354 -0.1617
   54POPI   C3A  751  10.629  17.582   8.582 -0.1848  0.0834 -0.3230
   54POPI   C4A  752  10.547  17.589   8.172 -0.1871 -0.0165  0.2570
   54POPI   C1B  753  10.866  17.956   8.855 -0.1371 -0.1953  0.2301
   54POPI   C2B  754  10.969  17.851   8.481 -0.1152  0.2565  0.0949
   54POPI   C3B  755  11.042  17.664   8.143  0.1592  0.0699  0.0657
   54POPI   C4B  756  10.984  17.240   7.908  0.2840  0.0006 -0.3997
   55POPI    C1  757  15.671   8.264  10.407 -0.1073  0.0047 -0.1207
   55POPI    C2  758  15.347   8.161  10.618  0.0246  0.0753  0.1197
   55POPI    C3  759  15.689   7.958  10.664 -0.0162 -0.0781 -0.2247
   55POPI   PO4  760  15.494   8.376  10.159 -0.2966 -0.1419  0.0927
   55POPI   GL1  761  15.317   8.133   9.780 -0.0417 -0.2033 -0.1004
   55POPI   GL2  762  15.107   7.819   9.791 -0.1014 -0.0118  0.4454
   55POPI   C1A  763  15.460   8.046   9.417 -0.2253  0.2097 -0.0987
   55POPI   D2A  764  15.443   7.939   9.090  0.0291  0.0764  0.0583
   55POPI   C3A  765  15.282   8.025   8.658  0.1716 -0.0730 -0.2545
   55POPI   C4A  766  15.412   7.959   8.226 -0.0992  0.1611 -0.3004
   55POPI   C1B  767  14.941   7.794   9.485  0.0524  0.1696  0.1290
   55POPI   C2B  768  14.922   7.789   9.009  0.0713  0.0825 -0.1319
   55POPI   C3B  769  14.893   7.765   8.558  0.0076  0.1960 -0.1822
   55POPI   C4B  770  15.030   7.731   8.058  0.0859 -0.1182  0.4045
   56POPI    C1  771   0.750  14.012  10.699  0.1144  0.1758  0.0235
   56POPI    C2  772   0.423  13.962  10.925  0.2509 -0.2761  0.1289
   56POPI    C3  773   0.771  14.064  11.095  0.2098  0.0188  0.0400
   56POPI   PO4  774   0.662  13.812  10.460  0.0641  0.0635  0.1018
   56POPI   GL1  775   0.656  13.740  10.045  0.2244  0.1534 -0.1285
   56POPI   GL2  776   0.892  13.917   9.933 -0.3307  0.1274  0.0735
   56POPI   C1A  777   0.580  13.487   9.608  0.3545  0.3501 -0.0395
   56POPI   D2A  778   0.598  13.403   9.222  0.0057 -0.0092  0.0036
   56POPI   C3A  779   0.610  13.465   8.838 -0.1025 -0.1175 -0.3180
   56POPI   C4A  780   0.947  13.474   8.486  0.2748 -0.2971  0.2096
   56POPI   C1B  781   0.787  13.894   9.539 -0.1018  0.1309  0.1343
   56POPI   C2B  782   0.798  13.904   9.140  0.1080 -0.0928  0.2421
   56POPI   C3B  783   0.900  13.875   8.753 -0.1635  0.0836  0.1718
   56POPI   C4B  784   1.231  14.021   8.460  0.0605  0.1139  0.0649
   57POPI    C1  785   9.700   6.039  10.735  0.1956 -0.1345 -0.0041
   57POPI    C2  786   9.623   5.809  11.053  0.1560 -0.3130 -0.1412
   57POPI    C3  787   9.613   6.207  11.087  0.1938 -0.3305  0.0902
   57POPI   PO4  788   9.926   5.904  10.577 -0.3777  0.4574  0.1451
   57POPI   GL1  789   9.935   6.182  10.243  0.1554  0.1600  0.1102
   57POPI   GL2  790  10.058   6.480  10.361  0.0424 -0.0975  0.3247
   57POPI   C1A  791   9.992   6.036   9.919 -0.1465  0.2268 -0.1045
   57POPI   D2A  792  10.178   5.945   9.441  0.0610  0.1143 -0.2336
   57POPI   C3A  793   9.999   5.854   9.043 -0.2097  0.1109 -0.3710
   57POPI   C4A  794   9.993   6.165   8.730  0.2375 -0.0376  0.3998
   57POPI   C1B  795  10.305   6.416   9.982 -0.0267  0.1017  0.1400
   57POPI   C2B  796  10.509   6.276   9.550 -0.0081  0.0306  0.2456
   57POPI   C3B  797  10.763   6.330   9.198 -0.2966  0.1793  0.0047
   57POPI   C4B  798  10.966   6.078   8.883 -0.0313  0.0962  0.0338
   58POPI    C1  799  10.499   7.930  10.274 -0.1120 -0.1273 -0.2920
   58POPI    C2  800  10.137   8.041  10.145 -0.0651  0.3496 -0.0330
   58POPI    C3  801  10.184   7.909  10.520 -0.0403 -0.1349 -0.2003
   58POPI   PO4  802  10.675   8.169  10.284 -0.3537 -0.2360 -0.0468
   58POPI   GL1  803  10.676   8.290   9.894  0.1822 -0.0900  0.2433
   58POPI   GL2  804  10.509   8.651   9.814 -0.1194 -0.0223  0.0625
   58POPI   C1A  805  10.663   7.858   9.593  0.3622  0.0609  0.0816
   58POPI   D2A  806  10.512   7.778   9.148  0.2894  0.1729 -0.0327
   58POPI   C3A  807  10.341   7.642   8.755 -0.0044 -0.1063 -0.0807
   58POPI   C4A  808  10.116   7.490   8.379 -0.1782 -0.0692  0.0246
   58POPI   C1B  809  10.395   8.410   9.415  0.0303  0.1959  0.2643
   58POPI   C2B  810  10.213   8.337   9.027 -0.1410  0.0359  0.1111
   58POPI   C3B  811   9.842   8.491   8.785 -0.1441 -0.1032  0.1505
   58POPI   C4B  812   9.793   8.701   8.369  0.0853  0.0915 -0.1156
   59POPI    C1  813  15.725   6.364  10.441  0.0524 -0.0892 -0.0795
   59POPI    C2  814  15.967   6.115  10.638  0.0449 -0.2251 -0.2402
   59POPI    C3  815  15.681   5.969  10.400  0.0658 -0.0629 -0.3664
   59POPI   PO4  816  15.910   6.497  10.307  0.3664  0.2334  0.0830
   59POPI   GL1  817  15.925   6.614   9.818 -0.1146  0.2923 -0.3415
   59POPI   GL2  818  15.855   6.993   9.773 -0.4282 -0.1083 -0.1009
   59POPI   C1A  819  15.884   6.606   9.415  0.0695  0.1199 -0.1037
   59POPI   D2A  820  15.657   6.512   9.140 -0.0115 -0.2906  0.3870
   59POPI   C3A  821  15.624   6.460   8.856 -0.1064  0.1974  0.2179
   59POPI   C4A  822  15.440   6.489   8.572  0.1241  0.1390  0.2123
   59POPI   C1B  823  15.568   7.032   9.287  0.1034  0.1923 -0.2504
   59POPI   C2B  824  15.689   6.976   8.887  0.0815  0.1735  0.3084
   59POPI   C3B  825  15.759   7.332   8.598  0.1304 -0.1643 -0.0306
   59POPI   C4B  826  15.694   7.633   8.567  0.1151  0.2795 -0.1969
   60POPI    C1  827  12.531   1.080  10.658  0.1309 -0.0203  0.0704
   60POPI    C2  828  12.755   1.379  10.801 -0.0270  0.1165  0.0349
   60POPI    C3  829  12.389   1.316  10.947 -0.0358  0.0072 -0.0329
   60POPI   PO4  830  12.703   1.075  10.449  0.1086  0.0314  0.0561
   60POPI   GL1  831  12.775   1.176  10.011  0.0664  0.1234 -0.0484
   60POPI   GL2  832  12.477   0.993   9.980 -0.0647 -0.0351 -0.1653
   60POPI   C1A  833  12.657   1.200   9.448  0.1983 -0.3284 -0.0649
   60POPI   D2A  834  12.754   1.316   9.043 -0.2655 -0.2926 -0.0708
   60POPI   C3A  835  13.005   1.565   8.728 -0.1652  0.0538  0.2238
   60POPI   C4A  836  13.124   1.529   8.212  0.0881 -0.1262  0.1726
   60POPI   C1B  837  12.845   0.780   9.703  0.0589 -0.1011 -0.0398
   60POPI   C2B  838  12.918   0.790   9.255 -0.1438  0.1375 -0.2862
   60POPI   C3B  839  12.865   0.823   8.826 -0.0375  0.0164 -0.0037
   60POPI   C4B  840  12.900   1.121   8.516 -0.1119 -0.0784  0.4994
   61POPI    C1  841  12.411   0.049  10.058  0.0122  0.0626  0.0641
   61POPI    C2  842  12.562  -0.274  10.239 -0.0616  0.0197  0.0494
   61POPI    C3  843  12.235  -0.097  10.386 -0.1149 -0.0082 -0.0350
   61POPI   PO4  844  12.704   0.166  10.026 -0.2589  0.0197  0.2517
   61POPI   GL1  845  12.969   0.255   9.693  0.0177 -0.1767  0.0846
   61POPI   GL2  846  13.137   0.044   9.754 -0.1792  0.0194  0.1037
   61POPI   C1A  847  12.963   0.349   9.318 -0.0454  0.1859  0.3488
   61POPI   D2A  848  13.193   0.504   8.964  0.0015  0.4175 -0.0502
   61POPI   C3A  849  13.143   0.301   8.648  0.1360  0.0671  0.1741
   61POPI   C4A  850  12.881   0.041   8.413  0.0421  0.3028 -0.0664
   61POPI   C1B  851  13.418   0.070   9.438 -0.0674 -0.1368  0.0392
   61POPI   C2B  852  13.623   0.166   9.050 -0.2108  0.0800 -0.3399
   61POPI   C3B  853  13.815   0.180   8.639 -0.3861 -0.1177 -0.0301
   61POPI   C4B  854  14.233   0.197   8.256  0.0668 -0.0978 -0.0380
   62POPI    C1  855  10.895   4.552  10.300  0.0577 -0.0293  0.0348
   62POPI    C2  856  10.931   4.187  10.141  0.0817 -0.0328  0.0483
   62POPI    C3  857  11.239   4.351  10.336  0.0721 -0.0039  0.0393
   62POPI   PO4  858  10.808   4.717  10.151 -0.0627 -0.1618  0.1147
   62POPI   GL1  859  10.895   4.775   9.731  0.1475  0.1677  0.0034
   62POPI   GL2  860  10.998   4.647   9.432 -0.2492 -0.2351 -0.1799
   62POPI   C1A  861  10.928   5.104   9.403  0.1346  0.0808 -0.2435
   62POPI   D2A  862  10.723   5.358   9.160  0.4434  0.2111  0.0805
   62POPI   C3A  863  10.760   5.588   8.785  0.2232 -0.0157  0.0035
   62POPI   C4A  864  10.940   5.737   8.409  0.0631 -0.0631  0.3113
   62POPI   C1B  865  10.842   4.362   9.154 -0.0325  0.1399 -0.0539
   62POPI   C2B  866  10.768   4.078   8.971 -0.2163 -0.0524  0.1506
   62POPI   C3B  867  10.563   3.897   8.614  0.2293  0.1085 -0.1494
   62POPI   C4B  868  10.503   3.764   8.156  0.0646 -0.2110 -0.2356
   63POPI    C1  869   6.670  11.901  10.935 -0.0361 -0.1179 -0.0897
   63POPI    C2  870   6.944  12.184  10.864 -0.2892  0.1502 -0.0182
   63POPI    C3  871   6.957  11.973  11.204 -0.0498  0.0131 -0.1096
   63POPI   PO4  872   6.626  11.793  10.669 -0.0673 -0.2733  0.0296
   63POPI   GL1  873   6.613  11.532  10.316 -0.1771  0.0200 -0.2337
   63POPI   GL2  874   6.967  11.547  10.347 -0.2636 -0.0149  0.1603
   63POPI   C1A  875   6.492  11.705   9.883  0.2199 -0.0867  0.2372
   63POPI   D2A  876   6.339  11.913   9.582  0.0488 -0.0630 -0.2090
   63POPI   C3A  877   6.356  11.869   9.160  0.0236 -0.0153  0.0440
   63POPI   C4A  878   6.283  12.025   8.731 -0.0206 -0.0272  0.2430
   63POPI   C1B  879   7.039  11.702  10.008  0.1218 -0.2285  0.3281
   63POPI   C2B  880   7.078  11.824   9.615  0.0083 -0.1751 -0.4693
   63POPI   C3B  881   6.985  11.766   9.170  0.1150 -0.1270 -0.2293
   63POPI   C4B  882   6.917  11.740   8.828 -0.0624  0.0956  0.0883
   64POPI    C1  883  11.313   5.682  10.499 -0.1585  0.1156 -0.1376
   64POPI    C2  884  11.056   5.723  10.803  0.0052  0.0636  0.0103
   64POPI    C3  885  11.405   5.917  10.810  0.1942 -0.2714  0.0610
   64POPI   PO4  886  11.209   5.761  10.296  0.0689  0.2577  0.2529
   64POPI   GL1  887  11.243   5.708   9.873 -0.1656  0.2909 -0.2127
   64POPI   GL2  888  11.557   5.837   9.853 -0.2350  0.1007 -0.1535
   64POPI   C1A  889  11.188   5.981   9.556 -0.0599  0.1394 -0.0215
   64POPI   D2A  890  11.387   6.152   9.206  0.1297 -0.3595  0.0930
   64POPI   C3A  891  11.534   6.076   8.827 -0.0157 -0.4476  0.0858
   64POPI   C4A  892  11.333   6.012   8.420 -0.0109 -0.0639  0.1077
   64POPI   C1B  893  11.668   6.241   9.620  0.1772 -0.1255 -0.1107
   64POPI   C2B  894  11.862   6.379   9.134 -0.0508  0.0527  0.0242
   64POPI   C3B  895  11.854   6.495   8.692 -0.0495 -0.2073 -0.1731
   64POPI   C4B  896  11.597   6.508   8.273  0.2662 -0.1933  0.1013
   65POPI    C1  897  16.991   0.806  10.547 -0.0627  0.0208  0.2756
   65POPI    C2  898  17.343   0.985  10.614  0.0423 -0.0438 -0.0802
   65POPI    C3  899  17.332   0.605  10.489 -0.1648 -0.1238  0.1706
   65POPI   PO4  900  16.878   0.963  10.296 -0.1224  0.2158 -0.0136
   65POPI   GL1  901  16.852   0.904   9.862 -0.1890 -0.1631  0.1280
   65POPI   GL2  902  17.235   0.729   9.914 -0.0262 -0.2980 -0.1699
   65POPI   C1A  903  16.467   0.781   9.593 -0.2163 -0.1369 -0.0824
   65POPI   D2A  904  16.438   0.699   9.091  0.0511  0.1207 -0.3413
   65POPI   C3A  905  16.391   0.464   8.760 -0.1207 -0.1190  0.1139
   65POPI   C4A  906  16.314   0.335   8.334 -0.1043  0.1793  0.1755
   65POPI   C1B  907  17.249   0.701   9.496  0.0086  0.1685  0.0695
   65POPI   C2B  908  16.905   0.905   9.271  0.3481 -0.0384 -0.2482
   65POPI   C3B  909  16.660   1.196   9.477  0.2476  0.2241 -0.0151
   65POPI   C4B  910  16.465   1.439   9.691 -0.1985 -0.0892  0.0184
   66POPI    C1  911   8.803   8.572  10.739 -0.1242 -0.1522 -0.0647
   66POPI    C2  912   8.702   8.957  10.705 -0.1917 -0.1707 -0.0750
   66POPI    C3  913   9.074   8.857  10.811 -0.2684 -0.0961  0.2791
   66POPI   PO4  914   8.509   8.451  10.682  0.2696  0.0228  0.0009
   66POPI   GL1  915   8.338   8.255  10.347  0.2139  0.2719 -0.2279
   66POPI   GL2  916   8.088   8.398  10.259 -0.0055  0.0911  0.1940
   66POPI   C1A  917   8.334   8.117   9.950 -0.1540  0.0069 -0.1780
   66POPI   D2A  918   8.570   8.049   9.586 -0.0752 -0.1885  0.1506
   66POPI   C3A  919   8.580   8.003   9.121  0.1122 -0.0437  0.0956
   66POPI   C4A  920   8.769   8.092   8.770  0.2241 -0.3364  0.1848
   66POPI   C1B  921   7.764   8.793  10.099 -0.2483 -0.1039  0.1297
   66POPI   C2B  922   7.406   9.089   9.930  0.0413 -0.0257 -0.0170
   66POPI   C3B  923   7.282   9.515   9.724  0.0264 -0.2346  0.1249
   66POPI   C4B  924   7.283   9.681   9.312  0.0670  0.1534  0.2657
   67POPI    C1  925   9.077  15.833  10.346  0.1046 -0.1856  0.0229
   67POPI    C2  926   9.191  16.184  10.191 -0.1272 -0.0235  0.2111
   67POPI    C3  927   9.190  16.131  10.587 -0.1448 -0.2199  0.1862
   67POPI   PO4  928   8.898  15.682  10.177 -0.0499  0.1182  0.1831
   67POPI   GL1  929   8.896  15.558   9.743 -0.0336  0.3791 -0.0728
   67POPI   GL2  930   8.733  15.218   9.700  0.0371  0.1513  0.0340
   67POPI   C1A  931   8.545  15.606   9.447  0.1402  0.1207  0.1774
   67POPI   D2A  932   8.440  15.653   9.027 -0.1816  0.0659  0.1575
   67POPI   C3A  933   8.141  15.894   8.811  0.0984 -0.2155 -0.1997
   67POPI   C4A  934   8.149  16.242   8.421 -0.3423  0.2894  0.0896
   67POPI   C1B  935   8.570  15.169   9.296  0.0153 -0.2502 -0.0485
   67POPI   C2B  936   8.391  15.166   8.899 -0.0219  0.1405  0.3809
   67POPI   C3B  937   8.240  15.038   8.536  0.1761 -0.1855 -0.2273
   67POPI   C4B  938   7.994  15.224   8.161  0.1526  0.0064  0.1063
   68POPS   CNO  939   4.591   2.348  10.649  0.0017  0.0381  0.1925
   68POPS   PO4  940   4.915   2.220  10.328 -0.1894  0.3221  0.0996
   68POPS   GL1  941   4.641   2.181  10.015  0.0617 -0.0530  0.0351
   68POPS   GL2  942   4.588   2.491   9.860  0.1033  0.0257 -0.1059
   68POPS   C1A  943   4.320   1.861   9.782  0.1137  0.0770  0.1861
   68POPS   D2A  944   4.105   1.680   9.416  0.3249  0.3351 -0.0043
   68POPS   C3A  945   4.146   1.524   8.950  0.1418 -0.2757  0.1186
   68POPS   C4A  946   4.281   1.408   8.534 -0.2279 -0.1281 -0.0369
   68POPS   C1B  947   4.463   2.222   9.490  0.0329  0.3973  0.4524
   68POPS   C2B  948   4.323   2.088   9.066  0.0878  0.1643  0.2656
   68POPS   C3B  949   3.963   1.961   8.875  0.1539  0.3574 -0.3884
   68POPS   C4B  950   3.796   2.094   8.441  0.4195  0.1256 -0.2528
   69POPS   CNO  951   0.393  11.596  10.641  0.0689  0.2762  0.1189
   69POPS   PO4  952   0.750  11.783  10.377  0.1448  0.1214 -0.2536
   69POPS   GL1  953   0.927  12.070   9.954  0.1086 -0.3858  0.2017
   69POPS   GL2  954   0.668  11.999   9.741 -0.2157  0.3886 -0.0059
   69POPS   C1A  955   1.094  12.332   9.598 -0.0353 -0.0442  0.4940
   69POPS   D2A  956   1.094  12.406   9.155 -0.1598 -0.1326  0.2668
   69POPS   C3A  957   1.272  12.072   9.106  0.2824 -0.1629  0.0531
   69POPS   C4A  958   1.710  11.994   8.993  0.0426  0.0645 -0.0698
   69POPS   C1B  959   0.811  12.004   9.316  0.0786  0.3539  0.0529
   69POPS   C2B  960   0.728  12.082   8.953 -0.0394  0.0755  0.0244
   69POPS   C3B  961   1.061  12.227   8.666  0.0529  0.3520 -0.1190
   69POPS   C4B  962   1.483  12.258   8.647 -0.1908 -0.1805 -0.0715
   70POPS   CNO  963  10.887   7.395  10.690  0.1033 -0.0099 -0.0608
   70POPS   PO4  964  10.576   7.494  10.474 -0.0496  0.0843  0.1120
   70POPS   GL1  965  10.257   7.195  10.275  0.0625 -0.2815  0.3033
   70POPS   GL2  966  10.429   6.900  10.140  0.0590  0.0629  0.0462
   70POPS   C1A  967  10.253   7.143   9.754  0.0334 -0.1438 -0.0135
   70POPS   D2A  968  10.385   7.350   9.384 -0.0921  0.1875 -0.0435
   70POPS   C3A  969  10.056   7.570   9.158  0.3651 -0.0508 -0.1076
   70POPS   C4A  970   9.737   7.444   8.680  0.0924 -0.1617 -0.1742
   70POPS   C1B  971  10.699   6.753   9.878 -0.0194  0.0445 -0.2031
   70POPS   C2B  972  10.577   6.796   9.454 -0.0377 -0.2956 -0.0489
   70POPS   C3B  973  10.591   6.888   9.038 -0.0405  0.0677 -0.1443
   70POPS   C4B  974  10.791   6.527   8.727  0.1065 -0.0570  0.0699
   71POPS   CNO  975   7.602  14.004   9.718  0.0777  0.2210  0.0112
   71POPS   PO4  976   7.781  14.211  10.023 -0.1182 -0.0967 -0.1124
   71POPS   GL1  977   7.721  14.600   9.753  0.3093  0.2536 -0.1010
   71POPS   GL2  978   8.005  14.738   9.666  0.0865 -0.1808  0.0798
   71POPS   C1A  979   7.688  14.746   9.301  0.1487  0.1173 -0.3029
   71POPS   D2A  980   7.478  14.636   8.970 -0.0328 -0.3319  0.0674
   71POPS   C3A  981   7.093  14.739   9.175  0.1169  0.2435  0.2327
   71POPS   C4A  982   6.758  14.792   9.292 -0.0600  0.2420 -0.3685
   71POPS   C1B  983   8.188  14.825   9.210 -0.0404  0.0671 -0.0494
   71POPS   C2B  984   7.917  14.737   8.858  0.0441  0.0400  0.0346
   71POPS   C3B  985   7.725  14.902   8.558 -0.0863 -0.0167 -0.1316
   71POPS   C4B  986   7.505  15.216   8.180 -0.1487 -0.1719 -0.0116
   72POPS   CNO  987  10.952   0.612  10.198 -0.1921  0.2237 -0.0124
   72POPS   PO4  988  10.854   0.397   9.929 -0.0406  0.0494 -0.0455
   72POPS   GL1  989  10.961   0.596   9.621  0.0028  0.3008  0.1207
   72POPS   GL2  990  11.120   0.480   9.473  0.1556 -0.2986  0.0218
   72POPS   C1A  991  11.241   1.016   9.550  0.2465  0.0749  0.3771
   72POPS   D2A  992  11.627   1.077   9.285  0.0324  0.2295 -0.1472
   72POPS   C3A  993  11.546   1.013   8.882 -0.2860  0.0965 -0.1061
   72POPS   C4A  994  11.695   0.774   8.513 -0.2420  0.1853  0.0272
   72POPS   C1B  995  11.227   0.196   9.276 -0.1289 -0.0409  0.1884
   72POPS   C2B  996  11.241   0.069   8.894  0.1100  0.0541  0.0343
   72POPS   C3B  997  11.228   0.193   8.544  0.1409 -0.1375  0.0380
   72POPS   C4B  998  10.999   0.033   8.254 -0.0861 -0.1357 -0.0570
   73POPS   CNO  999   4.162  16.201  10.714 -0.2851  0.1588 -0.0772
   73POPS   PO4 1000   3.945  15.805  10.594 -0.0278 -0.1571 -0.0647
   73POPS   GL1 1001   4.060  16.081  10.245 -0.2222  0.2254  0.1748
   73POPS   GL2 1002   4.179  15.888  10.137  0.2618  0.4073 -0.2600
   73POPS   C1A 1003   3.951  16.333   9.883 -0.0609  0.3904 -0.1963
   73POPS   D2A 1004   4.068  16.307   9.474 -0.0809 -0.2910  0.1038
   73POPS   C3A 1005   3.945  16.211   9.067  0.3210 -0.0779  0.0666
   73POPS   C4A 1006   4.043  15.997   8.743  0.0448  0.4387  0.1887
   73POPS   C1B 1007   4.297  15.962   9.721 -0.1676  0.2122 -0.1155
   73POPS   C2B 1008   4.399  15.901   9.276 -0.0474 -0.0927 -0.6161
   73POPS   C3B 1009   4.294  15.662   8.970  0.2552  0.1418  0.0337
   73POPS   C4B 1010   4.280  15.520   8.567  0.0899  0.0043  0.1082
   74POPS   CNO 1011   1.679   7.311  10.765  0.3007 -0.2299  0.1538
   74POPS   PO4 1012   1.852   7.457  10.388  0.2754  0.0619  0.0587
   74POPS   GL1 1013   1.755   7.278  10.006  0.0314  0.2790 -0.1262
   74POPS   GL2 1014   1.800   6.969   9.816 -0.1169 -0.2403 -0.2799
   74POPS   C1A 1015   2.001   7.392   9.685 -0.0300 -0.0593  0.2150
   74POPS   D2A 1016   1.929   7.435   9.274  0.2020 -0.1571  0.1972
   74POPS   C3A 1017   1.891   7.715   8.936  0.1929  0.5303 -0.1925
   74POPS   C4A 1018   1.761   8.106   8.740  0.1418 -0.4310 -0.0041
   74POPS   C1B 1019   1.560   7.113   9.429 -0.1202 -0.1512 -0.4344
   74POPS   C2B 1020   1.462   7.345   9.132 -0.1496  0.1891 -0.2907
   74POPS   C3B 1021   1.511   7.470   8.740 -0.0508 -0.0110  0.1579
   74POPS   C4B 1022   1.480   7.449   8.347 -0.2056  0.1488 -0.0960
   75POPS   CNO 1023  16.384  15.397  10.779 -0.0934 -0.1691 -0.0933
   75POPS   PO4 1024  15.945  15.156  10.687 -0.0289  0.0925  0.0946
   75POPS   GL1 1025  15.829  15.130  10.297  0.3789 -0.2494  0.0446
   75POPS   GL2 1026  15.814  15.317  10.070  0.0428  0.2113  0.2044
   75POPS   C1A 1027  15.591  14.866   9.981  0.0454  0.2804 -0.0669
   75POPS   D2A 1028  15.607  14.735   9.569  0.0364  0.3036 -0.0266
   75POPS   C3A 1029  16.049  14.627   9.372 -0.2990 -0.3820 -0.0267
   75POPS   C4A 1030  16.339  14.788   9.125  0.3505  0.1978 -0.2328
   75POPS   C1B 1031  16.155  15.538   9.884 -0.2761  0.1336  0.1540
   75POPS   C2B 1032  16.521  15.384   9.742 -0.0466  0.0283  0.0079
   75POPS   C3B 1033  16.548  15.195   9.301  0.0849 -0.0463  0.2285
   75POPS   C4B 1034  16.622  15.045   8.872  0.0407 -0.2051 -0.0056
   76POPS   CNO 1035   3.039   8.771  11.060 -0.1341 -0.0300  0.2332
   76POPS   PO4 1036   2.775   8.706  10.654  0.2380 -0.1612  0.1682
   76POPS   GL1 1037   2.832   8.991  10.330 -0.1390  0.0628 -0.0546
   76POPS   GL2 1038   2.894   9.279  10.392  0.1697  0.0316 -0.0126
   76POPS   C1A 1039   2.771   9.040   9.905 -0.1433  0.1390  0.0077
   76POPS   D2A 1040   2.607   8.889   9.579 -0.3519  0.1198  0.3054
   76POPS   C3A 1041   2.368   8.855   9.154 -0.0335  0.2473 -0.1093
   76POPS   C4A 1042   2.191   8.923   8.784  0.0224  0.3749  0.2146
   76POPS   C1B 1043   3.075   9.427   9.998  0.0921  0.0024  0.2230
   76POPS   C2B 1044   3.110   9.635   9.615 -0.0427  0.1602  0.1246
   76POPS   C3B 1045   3.383   9.771   9.328  0.1540 -0.0535  0.0355
   76POPS   C4B 1046   3.592   9.912   8.944  0.0654  0.0403 -0.1078
   77POPS   CNO 1047   0.689   2.657  10.336  0.1951  0.3239  0.1507
   77POPS   PO4 1048   0.314   2.345  10.180  0.1347  0.3794 -0.1413
   77POPS   GL1 1049   0.196   2.117   9.874  0.0130 -0.3986 -0.2926
   77POPS   GL2 1050   0.365   1.951   9.778  0.0395  0.2711 -0.4202
   77POPS   C1A 1051  -0.055   2.195   9.508  0.3377  0.0958 -0.1805
   77POPS   D2A 1052   0.088   2.315   9.122  0.0131 -0.1185 -0.1330
   77POPS   C3A 1053  -0.035   2.152   8.659 -0.1897 -0.0153 -0.0471
   77POPS   C4A 1054  -0.366   2.143   8.334  0.0501 -0.1792 -0.1388
   77POPS   C1B 1055   0.387   1.880   9.311 -0.1578 -0.1463  0.0304
   77POPS   C2B 1056   0.351   1.912   8.917 -0.4281  0.0281 -0.0275
   77POPS   C3B 1057   0.565   1.986   8.580 -0.0012  0.0377 -0.1505
   77POPS   C4B 1058   0.632   2.210   8.300 -0.0963 -0.0754 -0.0975
   78POPS   CNO 1059   5.710  16.386  10.557 -0.1365  0.1787 -0.2890
   78POPS   PO4 1060   6.083  16.311  10.308 -0.0028 -0.0227 -0.0494
   78POPS   GL1 1061   6.301  16.518  10.008  0.0831  0.2546  0.1399
   78POPS   GL2 1062   6.179  16.860   9.932 -0.3390 -0.1097  0.1746
   78POPS   C1A 1063   6.301  16.522   9.515 -0.0747  0.1926  0.1964
   78POPS   D2A 1064   6.073  16.785   9.226  0.3292  0.0970  0.0298
   78POPS   C3A 1065   5.961  16.860   8.872 -0.1890  0.1780 -0.0516
   78POPS   C4A 1066   5.802  16.962   8.492  0.1343  0.3040  0.0918
   78POPS   C1B 1067   5.842  17.040   9.702 -0.0578  0.2046 -0.0050
   78POPS   C2B 1068   5.845  17.266   9.432  0.0651 -0.2120 -0.0640
   78POPS   C3B 1069   5.733  17.219   9.037  0.1388 -0.0403 -0.1291
   78POPS   C4B 1070   5.580  17.328   8.729  0.1247 -0.0268  0.0044
   79POPS   CNO 1071   8.743  16.542   9.978 -0.0982  0.0609 -0.0048
   79POPS   PO4 1072   9.099  16.535   9.832  0.0433  0.0743  0.0788
   79POPS   GL1 1073   8.932  16.368   9.452 -0.0495 -0.0992 -0.1631
   79POPS   GL2 1074   8.943  15.964   9.322  0.1956 -0.1343 -0.3455
   79POPS   C1A 1075   9.019  16.539   9.045 -0.0395  0.2665 -0.3195
   79POPS   D2A 1076   8.899  16.794   8.711 -0.2943  0.1310 -0.2032
   79POPS   C3A 1077   9.041  16.923   8.343 -0.0047 -0.0782  0.2791
   79POPS   C4A 1078   9.135  17.382   8.052  0.0106  0.2627  0.3038
   79POPS   C1B 1079   9.172  15.951   9.000  0.3773  0.0378 -0.0031
   79POPS   C2B 1080   9.518  16.013   8.643  0.0809 -0.0123 -0.0404
   79POPS   C3B 1081   9.756  16.300   8.328 -0.0946  0.1864  0.0318
   79POPS   C4B 1082   9.858  16.452   8.089 -0.3027  0.3595  0.0937
   80POPS   CNO 1083   4.348  13.013  10.864  0.0338  0.0480  0.0256
   80POPS   PO4 1084   4.115  13.234  10.487  0.0525  0.0784  0.1351
   80POPS   GL1 1085   4.037  13.025  10.135 -0.0619 -0.3018  0.2329
   80POPS   GL2 1086   3.677  13.049   9.941  0.1465 -0.1602  0.2844
   80POPS   C1A 1087   4.124  12.904   9.673 -0.0319  0.1481 -0.0025
   80POPS   D2A 1088   4.215  12.571   9.440  0.1850 -0.3487 -0.0540
   80POPS   C3A 1089   4.522  12.566   9.150 -0.1067  0.0067 -0.0820
   80POPS   C4A 1090   4.327  12.281   8.834  0.0455  0.0157  0.0319
   80POPS   C1B 1091   3.617  12.929   9.660  0.0603  0.1248 -0.3228
   80POPS   C2B 1092   3.462  12.798   9.145 -0.1163 -0.1408  0.0025
   80POPS   C3B 1093   3.242  12.911   8.850 -0.1655  0.2238 -0.0530
   80POPS   C4B 1094   3.085  12.529   8.584  0.1972 -0.0963 -0.1626
   81POPS   CNO 1095  15.125   9.657  10.504 -0.0476  0.0651  0.0438
   81POPS   PO4 1096  14.765   9.889  10.430 -0.0104 -0.3160  0.0860
   81POPS   GL1 1097  14.740  10.060   9.982 -0.0753 -0.0113  0.0906
   81POPS   GL2 1098  14.648  10.397   9.901 -0.2820 -0.0168 -0.0179
   81POPS   C1A 1099  15.139  10.276   9.741 -0.0773 -0.0624  0.1153
   81POPS   D2A 1100  15.091  10.474   9.356 -0.1873 -0.0078  0.0283
   81POPS   C3A 1101  14.809  10.429   8.969  0.1924  0.1220  0.1471
   81POPS   C4A 1102  14.540  10.388   8.691 -0.1324 -0.0450  0.1121
   81POPS   C1B 1103  14.488  10.533   9.485  0.0597  0.1480 -0.2866
   81POPS   C2B 1104  14.334  10.651   9.061 -0.0223  0.1832  0.1171
   81POPS   C3B 1105  14.185  10.746   8.622  0.3747  0.0565 -0.1443
   81POPS   C4B 1106  14.064  10.984   8.209  0.1262  0.3708 -0.1040
   82POPS   CNO 1107  10.232   3.514   9.972 -0.1414  0.0163 -0.1786
   82POPS   PO4 1108   9.871   3.413  10.288 -0.3804 -0.1066  0.0210
   82POPS   GL1 1109   9.956   3.040  10.004 -0.3855 -0.0453  0.0702
   82POPS   GL2 1110   9.721   3.246   9.758 -0.2224  0.2761  0.0783
   82POPS   C1A 1111   9.919   2.809   9.576 -0.1171  0.1679 -0.0518
   82POPS   D2A 1112   9.868   2.897   9.165  0.0828  0.1278  0.1619
   82POPS   C3A 1113   9.609   2.706   8.819 -0.2858 -0.1238 -0.3102
   82POPS   C4A 1114   9.646   2.675   8.391  0.0784 -0.1190  0.0408
   82POPS   C1B 1115   9.632   3.334   9.302  0.1053 -0.1153  0.1632
   82POPS   C2B 1116   9.830   3.287   8.906 -0.2069 -0.1331 -0.1116
   82POPS   C3B 1117  10.033   2.999   8.631  0.0059 -0.0907 -0.1501
   82POPS   C4B 1118   9.991   2.942   8.218 -0.1319 -0.0726  0.3374
   83POPS   CNO 1119   6.096   5.231  10.247 -0.0100  0.0208  0.1765
   83POPS   PO4 1120   5.669   5.355  10.127  0.0262 -0.1727  0.0994
   83POPS   GL1 1121   5.983   5.455   9.849  0.0667 -0.0756  0.1713
   83POPS   GL2 1122   6.096   5.240   9.667 -0.2103  0.1776 -0.0451
   83POPS   C1A 1123   5.985   5.745   9.522  0.1969 -0.3228 -0.1629
   83POPS   D2A 1124   5.927   6.063   9.357 -0.1745 -0.0351 -0.0235
   83POPS   C3A 1125   5.936   6.076   8.951  0.0658  0.1106 -0.1781
   83POPS   C4A 1126   6.155   6.368   8.729  0.2053  0.0044 -0.3377
   83POPS   C1B 1127   6.204   5.244   9.251  0.2860 -0.1980 -0.2020
   83POPS   C2B 1128   6.327   5.293   8.898  0.2770  0.1907 -0.1444
   83POPS   C3B 1129   6.324   5.151   8.443 -0.0101  0.1682  0.0205
   83POPS   C4B 1130   6.204   5.161   7.932 -0.1715 -0.1300 -0.1283
   84POPS   CNO 1131   8.119  11.940  10.468  0.1426  0.1124  0.0398
   84POPS   PO4 1132   7.900  12.186  10.790 -0.1132 -0.0504  0.1410
   84POPS   GL1 1133   7.615  12.083  10.440 -0.1167 -0.2310 -0.0741
   84POPS   GL2 1134   7.789  12.333  10.260 -0.1326  0.3424 -0.3088
   84POPS   C1A 1135   7.441  12.056  10.015 -0.0591 -0.0566 -0.2769
   84POPS   D2A 1136   7.301  12.243   9.598 -0.2757  0.0918  0.4188
   84POPS   C3A 1137   7.625  12.576   9.321  0.0866  0.0814  0.0293
   84POPS   C4A 1138   8.019  12.715   9.434  0.4088 -0.0219  0.5004
   84POPS   C1B 1139   7.642  12.548   9.840 -0.0716  0.1900  0.1075
   84POPS   C2B 1140   7.430  12.798   9.785  0.1485  0.0350  0.0085
   84POPS   C3B 1141   7.598  13.187   9.804 -0.1141  0.0471 -0.1165
   84POPS   C4B 1142   7.740  13.488   9.813  0.0723 -0.0224 -0.1036
   85POPS   CNO 1143   1.119  15.363  11.016  0.1525  0.1226 -0.0356
   85POPS   PO4 1144   0.988  15.347  10.573  0.1007 -0.0686 -0.0984
   85POPS   GL1 1145   1.061  15.489  10.078  0.3179  0.2693  0.2190
   85POPS   GL2 1146   0.885  15.221   9.886 -0.1517  0.1539  0.1271
   85POPS   C1A 1147   1.371  15.445   9.669  0.2177 -0.0412 -0.1551
   85POPS   D2A 1148   1.548  15.454   9.290 -0.0595  0.0847 -0.1183
   85POPS   C3A 1149   1.922  15.498   9.040 -0.2203 -0.0427  0.1969
   85POPS   C4A 1150   2.322  15.558   8.840 -0.1409 -0.3009  0.0796
   85POPS   C1B 1151   0.901  15.330   9.467  0.1426 -0.1938 -0.1490
   85POPS   C2B 1152   1.078  15.296   9.125  0.0759 -0.0404 -0.0079
   85POPS   C3B 1153   1.214  15.133   8.698 -0.0599  0.0435  0.0467
   85POPS   C4B 1154   1.481  15.151   8.293  0.3138 -0.2463 -0.0232
   86POPS   CNO 1155   6.279   4.796  10.041  0.0659 -0.1923 -0.2349
   86POPS   PO4 1156   5.799   4.902  10.049 -0.0972  0.2388  0.1250
   86POPS   GL1 1157   5.564   5.028   9.689 -0.0054  0.0049  0.1290
   86POPS   GL2 1158   5.268   5.257   9.733 -0.4413 -0.0254 -0.2498
   86POPS   C1A 1159   5.479   5.099   9.264 -0.3643  0.0673 -0.2143
   86POPS   D2A 1160   5.328   5.403   8.969 -0.0368 -0.0514  0.2730
   86POPS   C3A 1161   5.538   5.450   8.599 -0.0701 -0.3122  0.1571
   86POPS   C4A 1162   5.383   5.520   8.278  0.0434  0.2942 -0.1363
   86POPS   C1B 1163   5.550   5.515   9.456 -0.2455 -0.0539  0.3186
   86POPS   C2B 1164   5.810   5.568   9.136 -0.1617 -0.1543 -0.2604
   86POPS   C3B 1165   5.962   5.652   8.704  0.1616  0.2256 -0.0672
   86POPS   C4B 1166   5.997   5.453   8.341 -0.1821 -0.1004 -0.0560
   87POPS   CNO 1167   8.886   3.591   9.971 -0.0284  0.0302  0.0582
   87POPS   PO4 1168   8.498   3.239  10.066 -0.0012  0.1634 -0.0859
   87POPS   GL1 1169   8.380   3.327   9.649  0.0256  0.1550 -0.2512
   87POPS   GL2 1170   8.002   3.292   9.463  0.1622  0.0501 -0.0519
   87POPS   C1A 1171   8.411   3.486   9.231  0.1356 -0.0034 -0.1112
   87POPS   D2A 1172   8.412   3.548   8.825  0.2118  0.0560  0.1044
   87POPS   C3A 1173   8.595   3.572   8.408 -0.3703  0.0283  0.0436
   87POPS   C4A 1174   8.576   3.438   7.986 -0.0712  0.1625 -0.1657
   87POPS   C1B 1175   7.839   3.588   9.187  0.0104 -0.3088 -0.0874
   87POPS   C2B 1176   7.916   3.680   8.812  0.0034  0.0206 -0.1229
   87POPS   C3B 1177   8.082   3.510   8.344 -0.1358 -0.1191  0.2971
   87POPS   C4B 1178   8.305   3.094   8.372  0.2394  0.0796  0.2154
   88POPS   CNO 1179  14.612  10.372  10.447 -0.1330 -0.0295 -0.2067
   88POPS   PO4 1180  14.269  10.645  10.263  0.1302  0.0344 -0.2161
   88POPS   GL1 1181  14.191  10.786   9.821 -0.0559  0.0322 -0.1171
   88POPS   GL2 1182  14.286  11.017   9.733  0.1346 -0.2018  0.0393
   88POPS   C1A 1183  14.016  10.668   9.442  0.0416 -0.0725 -0.2862
   88POPS   D2A 1184  13.980  10.268   9.254  0.2371  0.0255 -0.0202
   88POPS   C3A 1185  13.945  10.277   8.911  0.1697 -0.0783 -0.1745
   88POPS   C4A 1186  13.737  10.409   8.526  0.2268  0.1291  0.3265
   88POPS   C1B 1187  14.721  10.984   9.508 -0.1182 -0.0365  0.4108
   88POPS   C2B 1188  14.958  10.903   9.118 -0.0626  0.0830 -0.1265
   88POPS   C3B 1189  15.130  10.844   8.834  0.0345  0.0005 -0.0108
   88POPS   C4B 1190  15.341  10.732   8.469 -0.2657  0.1895  0.0540
   89POPS   CNO 1191  14.649  12.192  10.319  0.1772  0.1829  0.1016
   89POPS   PO4 1192  14.744  12.174   9.905  0.0772  0.0379 -0.1291
   89POPS   GL1 1193  14.747  12.090   9.441 -0.0124 -0.1173  0.1702
   89POPS   GL2 1194  14.476  12.122   9.330 -0.0581  0.2413  0.0912
   89POPS   C1A 1195  14.859  11.884   9.066 -0.2308 -0.1129 -0.2574
   89POPS   D2A 1196  14.892  11.838   8.663 -0.0556 -0.0519  0.2006
   89POPS   C3A 1197  15.174  11.790   8.419  0.3918 -0.1810 -0.3030
   89POPS   C4A 1198  15.401  11.936   8.162  0.1888 -0.0981  0.0995
   89POPS   C1B 1199  14.378  11.781   9.068  0.2772  0.0936  0.0617
   89POPS   C2B 1200  14.411  11.645   8.690  0.0049 -0.0550 -0.3389
   89POPS   C3B 1201  14.561  11.747   8.265 -0.1552 -0.1422 -0.6585
   89POPS   C4B 1202  14.936  11.555   8.087  0.0904 -0.0432  0.1049
   90POPS   CNO 1203   6.945   2.053  10.196  0.2826  0.1591 -0.2189
   90POPS   PO4 1204   6.674   1.837   9.930 -0.0588  0.1960  0.3182
   90POPS   GL1 1205   6.516   1.959   9.596 -0.1527 -0.0291 -0.0664
   90POPS   GL2 1206   6.325   2.188   9.803 -0.0943  0.0970 -0.1138
   90POPS   C1A 1207   6.536   2.003   9.173 -0.1888  0.0395 -0.2990
   90POPS   D2A 1208   6.425   2.033   8.641  0.2190 -0.2656  0.0576
   90POPS   C3A 1209   6.066   2.034   8.417  0.3563 -0.0544 -0.1288
   90POPS   C4A 1210   6.072   2.114   8.011  0.0590 -0.3425 -0.1719
   90POPS   C1B 1211   6.346   2.396   9.426 -0.0020  0.1181 -0.1132
   90POPS   C2B 1212   6.278   2.379   8.974 -0.0997 -0.0570  0.0582
   90POPS   C3B 1213   5.895   2.391   8.750 -0.0968 -0.0501 -0.1852
   90POPS   C4B 1214   5.612   2.262   8.397  0.0925  0.1505 -0.0771
   91POPS   CNO 1215  17.774  10.866  10.751 -0.0042 -0.1165 -0.1280
   91POPS   PO4 1216  17.629  11.006  10.389  0.1099  0.0369 -0.4211
   91POPS   GL1 1217  17.432  10.810   9.851 -0.3422 -0.1779  0.0574
   91POPS   GL2 1218  17.394  10.625  10.011 -0.1663  0.1064  0.1392
   91POPS   C1A 1219  17.388  10.848   9.392  0.0651 -0.2016  0.0099
   91POPS   D2A 1220  17.338  11.011   8.977 -0.1378 -0.3159  0.0983
   91POPS   C3A 1221  17.199  11.454   8.843  0.5637 -0.1653 -0.1576
   91POPS   C4A 1222  17.119  11.763   8.551  0.0710  0.0115  0.0267
   91POPS   C1B 1223  17.248  10.372   9.709 -0.1471  0.0796 -0.0457
   91POPS   C2B 1224  17.122  10.236   9.343 -0.0875 -0.2529  0.2741
   91POPS   C3B 1225  17.321  10.346   8.982  0.0123 -0.0989  0.2704
   91POPS   C4B 1226  17.391  10.265   8.593 -0.1115  0.1639 -0.1468
   92POPS   CNO 1227  10.762   2.064  10.646  0.0662  0.0941  0.3342
   92POPS   PO4 1228  11.124   2.276  10.529  0.0996  0.3093 -0.0656
   92POPS   GL1 1229  11.010   2.306  10.019  0.1953  0.0811 -0.2225
   92POPS   GL2 1230  11.216   2.123   9.738 -0.0395  0.0332 -0.3862
   92POPS   C1A 1231  10.886   2.574   9.539  0.1324 -0.3102  0.1082
   92POPS   D2A 1232  10.925   2.582   9.056 -0.0184  0.0812 -0.1724
   92POPS   C3A 1233  11.061   2.675   8.721 -0.1550 -0.1859  0.2614
   92POPS   C4A 1234  11.168   2.682   8.225 -0.2460 -0.1185 -0.2432
   92POPS   C1B 1235  11.124   1.833   9.348  0.2930  0.0469 -0.0754
   92POPS   C2B 1236  10.874   1.833   9.130  0.0519  0.4397 -0.0941
   92POPS   C3B 1237  10.796   1.808   8.730 -0.1835 -0.2945 -0.0275
   92POPS   C4B 1238  10.732   1.715   8.298  0.1644 -0.1652 -0.0335
   93POPS   CNO 1239  12.361   8.148  10.399 -0.1864  0.0137 -0.1689
   93POPS   PO4 1240  12.479   8.177  10.038  0.0357  0.0868 -0.1242
   93POPS   GL1 1241  12.229   8.483   9.692  0.2122  0.0021 -0.0088
   93POPS   GL2 1242  11.985   8.522   9.719 -0.2170  0.1830  0.1254
   93POPS   C1A 1243  12.276   8.449   9.303 -0.0120 -0.0246  0.2087
   93POPS   D2A 1244  12.397   8.501   8.907  0.1331  0.3400  0.1113
   93POPS   C3A 1245  12.293   8.235   8.657 -0.3408  0.0670 -0.1042
   93POPS   C4A 1246  12.368   7.710   8.626  0.0398  0.1378 -0.0974
   93POPS   C1B 1247  11.782   8.294   9.281 -0.1838 -0.2780 -0.1052
   93POPS   C2B 1248  11.885   8.449   8.828 -0.2113 -0.0151  0.2345
   93POPS   C3B 1249  11.887   8.335   8.404 -0.1512  0.0512 -0.2630
   93POPS   C4B 1250  11.641   8.013   8.210  0.0580 -0.2904  0.2189
   94POPS   CNO 1251   1.561  14.245  11.083 -0.0189  0.3552  0.0670
   94POPS   PO4 1252   1.767  14.055  10.786  0.0158 -0.0209  0.0687
   94POPS   GL1 1253   1.623  14.069  10.339  0.0561 -0.1512  0.0511
   94POPS   GL2 1254   1.487  14.356  10.186 -0.0179  0.1852  0.2201
   94POPS   C1A 1255   1.944  14.234   9.988 -0.1055  0.0236  0.1133
   94POPS   D2A 1256   1.924  14.614   9.670  0.1987 -0.0216 -0.0095
   94POPS   C3A 1257   2.107  14.518   9.219 -0.1693 -0.3582  0.0875
   94POPS   C4A 1258   2.267  14.512   8.829 -0.0106  0.1576 -0.2650
   94POPS   C1B 1259   1.532  14.305   9.713  0.0492  0.1037  0.1703
   94POPS   C2B 1260   1.659  14.287   9.358 -0.0701  0.1798 -0.3523
   94POPS   C3B 1261   1.729  14.285   8.963 -0.1889 -0.0752 -0.0264
   94POPS   C4B 1262   1.784  14.316   8.552 -0.0002 -0.1251 -0.2111
   95POPS   CNO 1263   5.888  16.766  10.327  0.3195 -0.2100  0.0212
   95POPS   PO4 1264   5.729  17.147  10.437 -0.2124 -0.0104 -0.2495
   95POPS   GL1 1265   5.524  16.993  10.094 -0.0028  0.0468  0.1757
   95POPS   GL2 1266   5.387  17.269   9.835  0.1713  0.2947  0.1095
   95POPS   C1A 1267   5.449  16.755   9.712 -0.1829 -0.2079  0.0951
   95POPS   D2A 1268   5.506  16.823   9.233 -0.0842 -0.1469  0.0435
   95POPS   C3A 1269   5.457  16.774   8.824 -0.2600  0.1428 -0.1048
   95POPS   C4A 1270   5.320  16.600   8.317 -0.0743  0.1106  0.0328
   95POPS   C1B 1271   5.318  17.311   9.414  0.0861  0.0332  0.0085
   95POPS   C2B 1272   5.173  17.254   8.994  0.0802 -0.1544 -0.0401
   95POPS   C3B 1273   4.995  17.508   8.591  0.1391  0.0742  0.3660
   95POPS   C4B 1274   5.015  17.750   8.265 -0.0526 -0.0236  0.1135
   96POPS   CNO 1275   6.475   7.403  11.083  0.0947  0.3339 -0.1005
   96POPS   PO4 1276   6.560   7.421  10.636  0.2758  0.0573  0.0818
   96POPS   GL1 1277   6.343   7.641  10.271  0.1926  0.0567 -0.2116
   96POPS   GL2 1278   6.316   7.906  10.256  0.0830 -0.1476  0.1212
   96POPS   C1A 1279   6.298   7.662   9.819  0.0488 -0.0443  0.0517
   96POPS   D2A 1280   6.368   7.444   9.429 -0.1881 -0.1268  0.0752
   96POPS   C3A 1281   6.377   7.762   9.154  0.1070 -0.2419 -0.1510
   96POPS   C4A 1282   6.596   7.761   8.771  0.2772  0.0810 -0.1632
   96POPS   C1B 1283   6.302   8.217   9.800  0.1591  0.0752  0.1921
   96POPS   C2B 1284   6.340   8.240   9.316  0.1306 -0.2248 -0.1776
   96POPS   C3B 1285   6.238   8.201   8.935 -0.3428  0.5134 -0.1274
   96POPS   C4B 1286   6.228   8.195   8.508 -0.0820 -0.1645 -0.0670
   97POPS   CNO 1287  14.780   6.760  10.555 -0.2055 -0.2104  0.0656
   97POPS   PO4 1288  14.984   6.734  10.156 -0.3678 -0.3084  0.2565
   97POPS   GL1 1289  15.015   6.646   9.769  0.3598 -0.1002 -0.2684
   97POPS   GL2 1290  14.745   6.524   9.663 -0.2719  0.0648  0.0959
   97POPS   C1A 1291  15.163   6.718   9.348  0.0315 -0.5036 -0.1735
   97POPS   D2A 1292  15.142   6.512   9.009  0.1697 -0.1765  0.3270
   97POPS   C3A 1293  14.950   6.405   8.618 -0.1466 -0.2593  0.0542
   97POPS   C4A 1294  14.821   6.233   8.244 -0.2318 -0.0068 -0.4611
   97POPS   C1B 1295  14.690   6.353   9.316 -0.0291  0.1108 -0.0726
   97POPS   C2B 1296  14.617   6.236   8.944 -0.0901  0.0104  0.0023
   97POPS   C3B 1297  14.453   6.053   8.644  0.3735  0.0289  0.2284
   97POPS   C4B 1298  14.058   6.139   8.414  0.1887 -0.0879  0.1886
   98POPS   CNO 1299   6.792   5.889   9.857  0.2863 -0.0266 -0.0711
   98POPS   PO4 1300   7.133   6.029  10.131 -0.1159  0.1059 -0.1380
   98POPS   GL1 1301   7.212   6.107   9.711  0.2196  0.0620 -0.0624
   98POPS   GL2 1302   7.403   5.994   9.428 -0.0666 -0.0749 -0.2397
   98POPS   C1A 1303   6.944   6.242   9.410  0.1338 -0.0859 -0.1479
   98POPS   D2A 1304   6.628   6.436   9.199  0.0632  0.0245 -0.1330
   98POPS   C3A 1305   6.805   6.435   8.883  0.1406 -0.0429  0.1098
   98POPS   C4A 1306   6.728   6.627   8.385 -0.0121 -0.2060 -0.1208
   98POPS   C1B 1307   7.580   5.867   9.066  0.3434  0.1834 -0.0793
   98POPS   C2B 1308   7.626   5.901   8.592  0.1875  0.1573 -0.1690
   98POPS   C3B 1309   7.416   5.929   8.219  0.2927  0.2122  0.0109
   98POPS   C4B 1310   7.352   5.655   7.942  0.2196  0.0479 -0.1062
   99POPS   CNO 1311  17.999  15.097  10.491  0.2882  0.1499  0.1921
   99POPS   PO4 1312  18.303  15.322  10.700  0.0619 -0.0818  0.2560
   99POPS   GL1 1313  18.235  15.500  10.262  0.3540  0.1492 -0.1315
   99POPS   GL2 1314  18.185  15.291   9.918  0.0182  0.0049  0.0689
   99POPS   C1A 1315  18.383  15.803   9.948 -0.0222 -0.0744 -0.1476
   99POPS   D2A 1316  18.525  15.881   9.498  0.0378 -0.0284 -0.0810
   99POPS   C3A 1317  18.850  15.898   9.218 -0.0022  0.0223  0.1830
   99POPS   C4A 1318  19.097  15.848   8.785  0.2483 -0.2093 -0.3236
   99POPS   C1B 1319  18.234  15.247   9.474 -0.1487 -0.0771  0.1222
   99POPS   C2B 1320  18.190  15.349   9.035 -0.1362 -0.0576  0.1871
   99POPS   C3B 1321  18.101  15.234   8.607  0.0796  0.0795 -0.0397
   99POPS   C4B 1322  17.847  14.915   8.513  0.1966  0.1582  0.2267
  100POPS   CNO 1323   5.697  11.950  10.726  0.0071  0.1819 -0.3093
  100POPS   PO4 1324   5.487  11.571  10.617  0.1191 -0.1430 -0.0929
  100POPS   GL1 1325   5.621  11.634  10.291 -0.0710  0.2386 -0.0025
  100POPS   GL2 1326   5.898  11.638  10.295 -0.3464 -0.0026  0.0328
  100POPS   C1A 1327   5.743  11.237  10.032  0.2887 -0.2077  0.1674
  100POPS   D2A 1328   5.807  11.074   9.637 -0.2625  0.0424 -0.4030
  100POPS   C3A 1329   6.145  10.774   9.823  0.2764 -0.1243 -0.1661
  100POPS   C4A 1330   6.414  10.597   9.933 -0.1125  0.0949  0.0706
  100POPS   C1B 1331   6.042  11.584   9.773  0.2638  0.1437  0.0457
  100POPS   C2B 1332   6.053  11.505   9.348 -0.1662 -0.0694  0.3532
  100POPS   C3B 1333   6.226  11.429   8.979 -0.0326 -0.1031  0.1450
  100POPS   C4B 1334   6.459  11.558   8.710 -0.0119  0.0088  0.0762
  101POPS   CNO 1335  16.681   3.548  10.438 -0.0688  0.1144  0.1702
  101POPS   PO4 1336  16.578   3.467  10.074 -0.0383 -0.2988  0.1340
  101POPS   GL1 1337  16.594   3.348   9.626 -0.0573 -0.1719  0.1430
  101POPS   GL2 1338  16.558   3.042   9.553 -0.1208  0.0039  0.0350
  101POPS   C1A 1339  16.719   3.521   9.241 -0.3671 -0.1914 -0.1483
  101POPS   D2A 1340  17.047   3.585   8.960 -0.4338  0.0342  0.0397
  101POPS   C3A 1341  16.974   3.388   8.492  0.1926 -0.0802  0.0617
  101POPS   C4A 1342  16.766   3.418   7.983  0.0268  0.0045  0.0796
  101POPS   C1B 1343  16.331   3.213   9.178  0.3222  0.0148 -0.3039
  101POPS   C2B 1344  16.262   3.146   8.741 -0.0902 -0.2374 -0.0314
  101POPS   C3B 1345  16.189   3.050   8.349  0.0578 -0.2541 -0.5948
  101POPS   C4B 1346  16.052   2.712   8.083 -0.4975 -0.3016  0.2204
  102POPS   CNO 1347   1.235   7.888  10.977  0.1055 -0.0800 -0.4329
  102POPS   PO4 1348   1.478   8.136  10.687 -0.0089 -0.2889  0.0903
  102POPS   GL1 1349   1.566   8.027  10.293  0.1311  0.1913  0.4555
  102POPS   GL2 1350   1.826   7.943  10.269  0.4549 -0.0302 -0.0131
  102POPS   C1A 1351   1.691   8.248   9.850  0.0971 -0.1678  0.0883
  102POPS   D2A 1352   1.443   8.449   9.463 -0.0497 -0.0523  0.0498
  102POPS   C3A 1353   1.412   8.859   9.271  0.0054  0.2495  0.3175
  102POPS   C4A 1354   1.412   8.941   8.890 -0.0178 -0.0836  0.0186
  102POPS   C1B 1355   2.046   7.836   9.949  0.0923  0.0797  0.1575
  102POPS   C2B 1356   2.026   7.869   9.531 -0.4653 -0.2247  0.2780
  102POPS   C3B 1357   2.011   8.152   9.216  0.2139  0.0859 -0.0245
  102POPS   C4B 1358   2.226   8.445   8.910  0.3202 -0.0272 -0.1484
  103POPS   CNO 1359  10.315  12.015  10.303 -0.1864  0.0357  0.1305
  103POPS   PO4 1360   9.971  11.884  10.166 -0.1712  0.0752  0.0091
  103POPS   GL1 1361   9.937  11.874   9.725  0.2460  0.0809  0.1163
  103POPS   GL2 1362   9.764  12.221   9.651 -0.1048 -0.2160 -0.2441
  103POPS   C1A 1363  10.123  12.018   9.406 -0.0323  0.2833  0.0329
  103POPS   D2A 1364  10.198  12.188   8.946  0.0944 -0.1200  0.2390
  103POPS   C3A 1365   9.928  12.306   8.487 -0.1821 -0.2575  0.0970
  103POPS   C4A 1366   9.761  12.270   8.017  0.3000  0.0341 -0.1931
  103POPS   C1B 1367   9.734  12.318   9.253 -0.1737  0.0093  0.0074
  103POPS   C2B 1368   9.679  12.167   8.910  0.1219 -0.4188 -0.0950
  103POPS   C3B 1369   9.543  12.021   8.496  0.0510 -0.1126 -0.1442
  103POPS   C4B 1370   9.310  12.220   8.219  0.2126  0.1555 -0.1271
  104POPS   CNO 1371  13.380   2.174   9.699  0.4249  0.2065 -0.1696
  104POPS   PO4 1372  13.399   2.561   9.708 -0.4175 -0.1160 -0.0108
  104POPS   GL1 1373  13.686   2.522   9.347 -0.2982  0.2368  0.1164
  104POPS   GL2 1374  13.851   2.192   9.441 -0.0141  0.2412  0.2085
  104POPS   C1A 1375  13.776   2.523   8.877 -0.0121 -0.3085  0.1452
  104POPS   D2A 1376  14.032   2.487   8.489  0.1055 -0.0159  0.4450
  104POPS   C3A 1377  13.923   2.598   8.149 -0.3829  0.3565 -0.0045
  104POPS   C4A 1378  13.747   2.416   7.864  0.3191  0.0469 -0.0625
  104POPS   C1B 1379  13.925   1.701   9.121  0.3076 -0.2213 -0.2235
  104POPS   C2B 1380  14.039   1.587   8.734 -0.2664  0.0514  0.1222
  104POPS   C3B 1381  14.044   1.662   8.371 -0.1959  0.0937 -0.1642
  104POPS   C4B 1382  14.335   1.927   8.192 -0.0123 -0.0055  0.1711
  105POPS   CNO 1383   9.801  10.035  10.028 -0.1745  0.0398 -0.0832
  105POPS   PO4 1384   9.681  10.432  10.064 -0.0335 -0.1990 -0.1770
  105POPS   GL1 1385   9.440  10.483   9.779 -0.0225 -0.1375  0.0193
  105POPS   GL2 1386   9.445  10.841   9.857 -0.0960 -0.0129  0.1568
  105POPS   C1A 1387   9.305  10.546   9.404 -0.1426  0.0714  0.2123
  105POPS   D2A 1388   9.059  10.514   9.050 -0.1298 -0.2322 -0.1059
  105POPS   C3A 1389   8.964  10.655   8.679 -0.1201 -0.0301  0.0728
  105POPS   C4A 1390   8.838  10.934   8.271 -0.1263  0.3543  0.0476
  105POPS   C1B 1391   9.422  11.016   9.397  0.6341  0.0887  0.0951
  105POPS   C2B 1392   9.392  10.937   8.935  0.0334  0.0752  0.1294
  105POPS   C3B 1393   9.344  11.135   8.652  0.0245 -0.2273  0.0606
  105POPS   C4B 1394   9.010  11.352   8.694  0.2673 -0.0400  0.0046
  106POPS   CNO 1395  10.176  15.643   9.715 -0.1575 -0.0103  0.0194
  106POPS   PO4 1396  10.576  15.773   9.866 -0.0719  0.0033 -0.1102
  106POPS   GL1 1397  10.670  15.922   9.490  0.2519  0.0621 -0.3664
  106POPS   GL2 1398  10.973  15.812   9.550 -0.2729  0.2395 -0.0774
  106POPS   C1A 1399  10.553  15.786   9.054  0.1235  0.1383  0.2043
  106POPS   D2A 1400  10.555  15.839   8.558  0.1030  0.4603 -0.1054
  106POPS   C3A 1401  10.302  15.481   8.247 -0.0803  0.1829  0.3493
  106POPS   C4A 1402  10.348  15.252   7.926  0.1764 -0.1653  0.0025
  106POPS   C1B 1403  11.033  15.921   9.137 -0.0938 -0.0495  0.1486
  106POPS   C2B 1404  10.976  15.662   8.754  0.3168 -0.2927  0.1452
  106POPS   C3B 1405  11.306  15.454   8.323  0.0352  0.1304  0.1969
  106POPS   C4B 1406  11.758  15.422   8.219  0.0480  0.0733 -0.0671
  107POPS   CNO 1407  12.467   3.304   9.915 -0.2765 -0.1725 -0.2671
  107POPS   PO4 1408  12.086   3.134   9.734 -0.2220  0.1374  0.0742
  107POPS   GL1 1409  11.939   3.043   9.353  0.0689  0.0804  0.0449
  107POPS   GL2 1410  11.640   3.063   9.470 -0.1219  0.2372  0.2321
  107POPS   C1A 1411  11.900   2.891   8.893 -0.2124  0.3488  0.1375
  107POPS   D2A 1412  11.971   2.592   8.618  0.0772 -0.3556 -0.1080
  107POPS   C3A 1413  12.232   2.668   8.270  0.0006  0.0085  0.0400
  107POPS   C4A 1414  12.242   2.494   7.862 -0.2839 -0.0621  0.1259
  107POPS   C1B 1415  11.513   3.262   9.140  0.2063  0.1364  0.0028
  107POPS   C2B 1416  11.254   3.130   8.744  0.0121 -0.2110 -0.0252
  107POPS   C3B 1417  11.288   3.187   8.218  0.1019 -0.0268 -0.1484
  107POPS   C4B 1418  11.466   2.991   7.839 -0.2654  0.1258 -0.1526
  108POPS   CNO 1419   1.910  12.210  10.646  0.2583 -0.0495 -0.4034
  108POPS   PO4 1420   1.800  12.597  10.560 -0.2089 -0.0570  0.1157
  108POPS   GL1 1421   1.714  12.920  10.210  0.0405  0.0517  0.0441
  108POPS   GL2 1422   1.598  13.340  10.086 -0.1761 -0.0418 -0.0326
  108POPS   C1A 1423   1.901  12.885   9.930  0.1200 -0.1478 -0.0351
  108POPS   D2A 1424   1.853  12.951   9.548 -0.1622  0.2676 -0.1152
  108POPS   C3A 1425   1.921  12.685   9.269 -0.0073  0.1164  0.4507
  108POPS   C4A 1426   1.700  12.525   8.982 -0.0787  0.0955  0.0423
  108POPS   C1B 1427   1.534  13.381   9.663 -0.3011 -0.2069 -0.0001
  108POPS   C2B 1428   1.639  13.385   9.314  0.3866  0.1113 -0.1566
  108POPS   C3B 1429   1.806  13.084   8.985  0.1561 -0.0217 -0.5348
  108POPS   C4B 1430   1.762  12.820   8.553  0.1305 -0.1197  0.3655
  109POPS   CNO 1431   6.470   3.396  10.326  0.0980  0.2954 -0.0009
  109POPS   PO4 1432   6.437   3.370   9.959 -0.0483  0.2334 -0.0946
  109POPS   GL1 1433   6.357   3.478   9.539  0.1092  0.3095 -0.0055
  109POPS   GL2 1434   6.444   3.814   9.507  0.0977  0.4152 -0.0247
  109POPS   C1A 1435   6.280   3.579   9.114 -0.2576  0.1196  0.0617
  109POPS   D2A 1436   6.170   3.616   8.644  0.1965  0.3566 -0.2775
  109POPS   C3A 1437   6.426   3.812   8.323 -0.3858 -0.1289 -0.2865
  109POPS   C4A 1438   6.374   3.587   8.009  0.1103  0.0448  0.1250
  109POPS   C1B 1439   6.498   4.083   9.236  0.1168 -0.0730 -0.1957
  109POPS   C2B 1440   6.364   4.065   8.786 -0.0477  0.2250 -0.0956
  109POPS   C3B 1441   6.229   4.325   8.439  0.0115  0.0915  0.0829
  109POPS   C4B 1442   6.083   4.157   8.162  0.0298  0.0825  0.0147
  110POPS   CNO 1443   9.698   7.044  10.816 -0.1235  0.1099 -0.1681
  110POPS   PO4 1444   9.904   6.920  10.450  0.0459 -0.1511  0.1360
  110POPS   GL1 1445   9.901   6.889  10.002  0.2462  0.0037  0.0792
  110POPS   GL2 1446   9.851   6.560   9.912  0.0711 -0.0717 -0.2195
  110POPS   C1A 1447  10.107   6.714   9.580 -0.0589  0.4218 -0.3631
  110POPS   D2A 1448  10.129   6.837   9.166 -0.0424 -0.2230 -0.1327
  110POPS   C3A 1449  10.175   7.175   8.873  0.5911  0.1180 -0.1889
  110POPS   C4A 1450  10.040   6.964   8.435 -0.2331  0.1186  0.2446
  110POPS   C1B 1451   9.826   6.365   9.525  0.0945  0.2678 -0.1104
  110POPS   C2B 1452  10.042   6.355   9.208 -0.0055  0.4538 -0.1908
  110POPS   C3B 1453  10.303   6.581   8.820 -0.0079  0.1368 -0.1617
  110POPS   C4B 1454  10.321   6.495   8.429 -0.0351  0.0116  0.3810
  111POPS   CNO 1455  11.606  10.272  10.348 -0.2695 -0.1437 -0.0696
  111POPS   PO4 1456  11.496  10.574  10.045  0.0491  0.2035  0.2308
  111POPS   GL1 1457  11.582  10.285   9.705  0.0907 -0.0883 -0.1118
  111POPS   GL2 1458  11.976  10.163   9.726  0.0505  0.0203  0.1149
  111POPS   C1A 1459  11.393  10.074   9.428  0.0229 -0.1246  0.0530
  111POPS   D2A 1460  11.435   9.689   9.098  0.1164  0.0986  0.0109
  111POPS   C3A 1461  11.392   9.747   8.753 -0.0959  0.1867  0.0859
  111POPS   C4A 1462  11.283   9.679   8.340 -0.3389 -0.0991  0.0545
  111POPS   C1B 1463  12.039  10.443   9.445 -0.2442 -0.0001  0.1742
  111POPS   C2B 1464  11.899  10.553   9.080  0.0348 -0.0717  0.1414
  111POPS   C3B 1465  11.918  10.519   8.551 -0.2262  0.2390 -0.1575
  111POPS   C4B 1466  11.983  10.349   8.213 -0.1036 -0.1666 -0.0144
  112POPS   CNO 1467  17.250  15.314  10.974 -0.1476  0.2079 -0.2363
  112POPS   PO4 1468  16.817  15.048  10.853  0.1660  0.1135 -0.1617
  112POPS   GL1 1469  16.939  14.962  10.395  0.1663 -0.1808 -0.0006
  112POPS   GL2 1470  16.758  15.134  10.188  0.2346  0.1362  0.0698
  112POPS   C1A 1471  16.847  14.639  10.079 -0.1868 -0.3427 -0.0642
  112POPS   D2A 1472  16.799  14.278   9.868  0.0391  0.0928 -0.1380
  112POPS   C3A 1473  16.517  14.227   9.518  0.2339 -0.0931 -0.1030
  112POPS   C4A 1474  16.268  14.228   9.197 -0.2676  0.0652 -0.0277
  112POPS   C1B 1475  16.930  15.123   9.839 -0.1271 -0.2860  0.1640
  112POPS   C2B 1476  17.035  15.284   9.499 -0.2816  0.0365  0.0178
  112POPS   C3B 1477  17.081  15.318   9.118  0.2776 -0.0164  0.2469
  112POPS   C4B 1478  17.100  15.223   8.672 -0.0569  0.0051 -0.2576
  113POPS   CNO 1479  16.970  12.582  11.164 -0.2611  0.2781 -0.1176
  113POPS   PO4 1480  16.755  12.601  10.751 -0.2155 -0.0175 -0.0534
  113POPS   GL1 1481  16.779  12.432  10.301 -0.1174 -0.2942  0.1576
  113POPS   GL2 1482  16.589  12.222  10.224 -0.1260 -0.0761 -0.2147
  113POPS   C1A 1483  17.014  12.571   9.960  0.0873  0.0146 -0.0213
  113POPS   D2A 1484  17.257  12.876   9.790 -0.1880 -0.1707 -0.0788
  113POPS   C3A 1485  17.269  13.009   9.328  0.4652 -0.2326  0.3017
  113POPS   C4A 1486  17.311  12.803   8.947 -0.3293  0.0754  0.1307
  113POPS   C1B 1487  16.548  12.448   9.888 -0.1400  0.1608  0.2125
  113POPS   C2B 1488  16.224  12.688   9.713  0.2619  0.1260  0.2306
  113POPS   C3B 1489  16.091  12.785   9.282  0.1287  0.2173  0.0751
  113POPS   C4B 1490  16.165  12.738   8.885 -0.0061  0.1607 -0.1029
  114POPS   CNO 1491   5.065   3.227  10.205  0.2290 -0.0833 -0.1207
  114POPS   PO4 1492   4.689   3.212  10.387 -0.1211 -0.2217  0.2030
  114POPS   GL1 1493   4.641   3.283   9.914  0.1606  0.1460  0.2750
  114POPS   GL2 1494   4.490   3.561   9.833 -0.0895  0.3218  0.0671
  114POPS   C1A 1495   4.849   3.088   9.611 -0.1389  0.2484 -0.1096
  114POPS   D2A 1496   4.806   2.667   9.431  0.2214 -0.0180  0.1059
  114POPS   C3A 1497   4.958   2.646   9.017 -0.0842 -0.1124  0.1456
  114POPS   C4A 1498   5.051   2.605   8.611  0.0975  0.0087 -0.3740
  114POPS   C1B 1499   4.404   3.371   9.317 -0.2810 -0.0040 -0.1366
  114POPS   C2B 1500   4.720   3.091   9.144 -0.0375 -0.1363  0.1113
  114POPS   C3B 1501   4.778   3.055   8.761 -0.0744  0.1628  0.0906
  114POPS   C4B 1502   4.875   3.000   8.308 -0.1296  0.0055  0.0231
  115POPS   CNO 1503  10.162   9.423  10.527  0.1917 -0.1149 -0.0792
  115POPS   PO4 1504  10.011   9.569  10.098 -0.0383 -0.1720 -0.2982
  115POPS   GL1 1505   9.773   9.221   9.817 -0.0249 -0.0680 -0.2122
  115POPS   GL2 1506   9.778   8.945   9.910 -0.0105  0.1895 -0.2931
  115POPS   C1A 1507   9.659   9.235   9.380 -0.0663 -0.1116 -0.2508
  115POPS   D2A 1508   9.662   9.393   8.971  0.0983  0.0911 -0.1253
  115POPS   C3A 1509   9.977   9.602   8.834 -0.0922 -0.1765  0.1203
  115POPS   C4A 1510  10.222   9.975   8.559 -0.3041  0.0266 -0.2045
  115POPS   C1B 1511  10.084   8.863   9.618  0.2101  0.4462 -0.0707
  115POPS   C2B 1512   9.902   8.821   9.205  0.1311 -0.3384 -0.1977
  115POPS   C3B 1513   9.878   8.992   8.790  0.1262  0.3809 -0.0299
  115POPS   C4B 1514  10.107   9.198   8.579 -0.3018  0.0066  0.3626
  116POPS   CNO 1515   0.942   5.976  11.042 -0.0605  0.0666  0.2307
  116POPS   PO4 1516   0.622   6.193  10.682  0.0410 -0.2877 -0.0022
  116POPS   GL1 1517   0.483   6.262  10.262  0.0795  0.0212  0.1362
  116POPS   GL2 1518   0.245   6.530  10.064 -0.2231  0.3297 -0.2447
  116POPS   C1A 1519   0.658   6.211   9.812 -0.3513 -0.0578 -0.2481
  116POPS   D2A 1520   0.583   6.071   9.363 -0.0263 -0.1051  0.0611
  116POPS   C3A 1521   0.272   6.306   9.047 -0.1168  0.3327  0.0841
  116POPS   C4A 1522  -0.100   6.539   8.895  0.0085  0.0670  0.1184
  116POPS   C1B 1523   0.376   6.599   9.628  0.0606 -0.0404 -0.3423
  116POPS   C2B 1524   0.200   6.741   9.249 -0.1593  0.1168  0.1036
  116POPS   C3B 1525   0.506   7.090   9.118  0.0301 -0.0272 -0.2059
  116POPS   C4B 1526   0.631   7.445   8.926 -0.1800 -0.1256 -0.1823
  117POPS   CNO 1527  16.333   6.076  10.315 -0.0567  0.0256  0.0606
  117POPS   PO4 1528  16.157   5.693  10.119 -0.0879 -0.2078 -0.0325
  117POPS   GL1 1529  16.120   5.699   9.765  0.0615 -0.0013 -0.1350
  117POPS   GL2 1530  15.823   5.602   9.773  0.0340  0.0541 -0.1679
  117POPS   C1A 1531  16.184   5.677   9.361 -0.1263 -0.2043  0.2029
  117POPS   D2A 1532  16.298   5.424   8.944  0.0987  0.4238 -0.2255
  117POPS   C3A 1533  16.354   5.600   8.586  0.0328 -0.1020  0.1968
  117POPS   C4A 1534  16.566   5.559   8.106  0.4307 -0.0700  0.1905
  117POPS   C1B 1535  15.663   5.607   9.346 -0.1982 -0.1518 -0.2303
  117POPS   C2B 1536  15.833   5.562   9.000 -0.2643  0.1014  0.0806
  117POPS   C3B 1537  15.796   5.481   8.625  0.3038 -0.0817  0.1974
  117POPS   C4B 1538  15.753   5.228   8.196  0.0479 -0.0273 -0.0779
  118POPS   CNO 1539   8.413  11.521  10.356  0.1031  0.1513 -0.0165
  118POPS   PO4 1540   8.890  11.595  10.430  0.1606  0.0277 -0.3066
  118POPS   GL1 1541   8.947  11.641   9.936  0.2701  0.2500  0.0173
  118POPS   GL2 1542   8.999  11.959   9.870 -0.0927  0.3223 -0.1542
  118POPS   C1A 1543   8.785  11.526   9.673  0.1492 -0.1309 -0.0944
  118POPS   D2A 1544   8.836  11.522   9.223  0.0008  0.2382 -0.2273
  118POPS   C3A 1545   8.548  11.502   8.770  0.2809 -0.2324  0.0588
  118POPS   C4A 1546   8.336  11.703   8.375  0.0662  0.0475 -0.2388
  118POPS   C1B 1547   8.807  12.037   9.484  0.2685  0.3760  0.0545
  118POPS   C2B 1548   8.612  11.960   9.098  0.0462 -0.1933 -0.1706
  118POPS   C3B 1549   8.451  12.047   8.709 -0.2646  0.0440  0.0037
  118POPS   C4B 1550   8.344  12.387   8.464  0.2891  0.1928 -0.2908
  119POPS   CNO 1551  11.896   2.039  10.452  0.1029  0.0983  0.5896
  119POPS   PO4 1552  11.991   1.642  10.100  0.1283 -0.0518 -0.2565
  119POPS   GL1 1553  11.858   1.715   9.705 -0.2717  0.1648 -0.0467
  119POPS   GL2 1554  11.583   1.674   9.546  0.2282 -0.0198  0.1353
  119POPS   C1A 1555  11.964   1.808   9.135 -0.0778 -0.3232 -0.3888
  119POPS   D2A 1556  11.872   2.145   8.848 -0.2759  0.0702  0.1193
  119POPS   C3A 1557  11.945   2.168   8.406  0.5320 -0.2950 -0.2617
  119POPS   C4A 1558  11.776   2.526   8.099  0.1209  0.0968 -0.2945
  119POPS   C1B 1559  11.497   1.539   9.120 -0.0618  0.1067 -0.0121
  119POPS   C2B 1560  11.672   1.632   8.641  0.0241 -0.2098  0.0579
  119POPS   C3B 1561  11.531   1.318   8.416 -0.0672 -0.2159 -0.0042
  119POPS   C4B 1562  11.353   0.987   8.079  0.2211  0.0954  0.0150
  120POPS   CNO 1563  10.235   8.481  10.392  0.1753  0.1398  0.0224
  120POPS   PO4 1564   9.770   8.344  10.442  0.1668  0.0312  0.2741
  120POPS   GL1 1565   9.666   8.276  10.057 -0.0977  0.0260 -0.0294
  120POPS   GL2 1566   9.941   8.447   9.948  0.2909  0.1189 -0.2339
  120POPS   C1A 1567   9.397   8.265   9.674  0.0091 -0.0824  0.0595
  120POPS   D2A 1568   9.051   8.433   9.514  0.4437  0.4008 -0.5379
  120POPS   C3A 1569   8.960   8.474   9.050 -0.1770 -0.2352 -0.1854
  120POPS   C4A 1570   8.948   8.577   8.629  0.0925  0.0199 -0.1892
  120POPS   C1B 1571   9.863   8.447   9.538 -0.1401  0.2033  0.0018
  120POPS   C2B 1572   9.635   8.228   9.261  0.0099  0.1725 -0.1976
  120POPS   C3B 1573   9.685   7.955   8.857 -0.0930 -0.0515 -0.0079
  120POPS   C4B 1574   9.889   8.027   8.547  0.1943  0.1587  0.2567
  121POPS   CNO 1575   9.536   6.541  10.359 -0.0047 -0.3841 -0.0685
  121POPS   PO4 1576   9.278   6.837  10.534  0.3018 -0.1182  0.1070
  121POPS   GL1 1577   9.061   6.661  10.172 -0.1677 -0.1051  0.1426
  121POPS   GL2 1578   9.397   6.889   9.970 -0.1683  0.0323  0.0313
  121POPS   C1A 1579   8.959   6.597   9.743 -0.1230  0.4548 -0.0707
  121POPS   D2A 1580   9.093   6.580   9.343 -0.3207  0.2029  0.1105
  121POPS   C3A 1581   9.035   6.347   9.098 -0.3053  0.0800 -0.0339
  121POPS   C4A 1582   9.012   6.320   8.634 -0.4524 -0.1030 -0.1847
  121POPS   C1B 1583   9.506   6.735   9.646 -0.0116 -0.2581  0.3254
  121POPS   C2B 1584   9.607   6.686   9.193 -0.2231 -0.1341 -0.1555
  121POPS   C3B 1585   9.847   6.640   8.846 -0.1195  0.0527  0.2089
  121POPS   C4B 1586   9.822   6.503   8.385  0.0371 -0.0462  0.0650
  122POPS   CNO 1587  16.240  18.134  10.605  0.0102 -0.2886 -0.0900
  122POPS   PO4 1588  16.649  17.900  10.756  0.1465 -0.0561 -0.2403
  122POPS   GL1 1589  16.536  17.906  10.319  0.0724  0.4333  0.1031
  122POPS   GL2 1590  16.606  18.178  10.268  0.3593 -0.0038  0.1758
  122POPS   C1A 1591  16.636  17.675   9.891  0.1166 -0.1008 -0.3809
  122POPS   D2A 1592  16.637  17.538   9.531  0.1964 -0.0158  0.2348
  122POPS   C3A 1593  16.296  17.434   9.365 -0.1103  0.3871  0.0180
  122POPS   C4A 1594  15.996  17.396   9.119 -0.2088  0.2641 -0.0061
  122POPS   C1B 1595  16.486  18.405   9.938  0.3429  0.1649  0.1561
  122POPS   C2B 1596  16.295  18.575   9.617 -0.0316  0.0738 -0.3252
  122POPS   C3B 1597  16.249  18.516   9.161  0.1556  0.3532  0.0495
  122POPS   C4B 1598  15.934  18.539   8.928 -0.0905  0.1699  0.0180
  123POPS   CNO 1599  16.250  14.312  10.742  0.3050 -0.0395 -0.0087
  123POPS   PO4 1600  16.606  14.074  10.618  0.2679  0.1088 -0.0924
  123POPS   GL1 1601  16.460  14.237  10.233  0.0606  0.1188 -0.0464
  123POPS   GL2 1602  16.285  14.005  10.014 -0.1343  0.2793 -0.0627
  123POPS   C1A 1603  16.345  14.512   9.864  0.8042  0.0069  0.2028
  123POPS   D2A 1604  16.618  14.696   9.638 -0.0237  0.1227  0.0985
  123POPS   C3A 1605  16.854  14.531   9.242  0.0817 -0.2280 -0.0641
  123POPS   C4A 1606  16.716  14.362   8.791  0.2103  0.0196 -0.0002
  123POPS   C1B 1607  16.562  13.820   9.861  0.0953 -0.4043  0.2551
  123POPS   C2B 1608  16.371  13.746   9.444 -0.0829  0.1754 -0.1333
  123POPS   C3B 1609  16.342  13.745   9.026  0.1548  0.2935 -0.0003
  123POPS   C4B 1610  16.492  13.944   8.629 -0.0772 -0.0019 -0.1140
  124POPS   CNO 1611   3.561   2.420  10.932  0.0995  0.2086  0.2744
  124POPS   PO4 1612   3.542   2.671  10.609 -0.0328 -0.0469  0.2472
  124POPS   GL1 1613   3.252   2.628  10.359  0.1803  0.1569  0.2462
  124POPS   GL2 1614   3.368   2.776  10.009 -0.5100  0.1518  0.2283
  124POPS   C1A 1615   2.959   2.537   9.973  0.2022 -0.2883  0.2592
  124POPS   D2A 1616   3.010   2.382   9.522  0.0549  0.0684 -0.0946
  124POPS   C3A 1617   2.836   2.350   9.166  0.1162  0.0628  0.1647
  124POPS   C4A 1618   2.662   2.165   8.813  0.0768 -0.0169  0.0435
  124POPS   C1B 1619   3.614   2.883   9.644  0.1263  0.1717  0.1550
  124POPS   C2B 1620   3.651   2.867   9.227 -0.1214  0.0854 -0.0605
  124POPS   C3B 1621   3.511   2.835   8.825  0.1629 -0.2038 -0.3921
  124POPS   C4B 1622   3.465   2.513   8.534 -0.0183 -0.1353 -0.0535
  125POPS   CNO 1623  10.052  14.231  10.377  0.0177 -0.1240  0.0334
  125POPS   PO4 1624  10.456  14.282  10.249  0.0393  0.3031 -0.1137
  125POPS   GL1 1625  10.550  14.056   9.939  0.2648 -0.2389 -0.0617
  125POPS   GL2 1626  10.840  13.904  10.034  0.2272  0.1271 -0.0812
  125POPS   C1A 1627  10.749  13.984   9.512 -0.2357 -0.0386 -0.0126
  125POPS   D2A 1628  10.764  13.910   9.131 -0.2442  0.3136  0.0826
  125POPS   C3A 1629  11.101  13.828   8.865 -0.1273 -0.0122 -0.0520
  125POPS   C4A 1630  11.281  13.611   8.484  0.1193  0.0529 -0.3633
  125POPS   C1B 1631  10.875  13.566   9.752 -0.0745 -0.0980 -0.0026
  125POPS   C2B 1632  10.833  13.416   9.338  0.2578 -0.2138 -0.0403
  125POPS   C3B 1633  11.151  13.362   8.924  0.1959  0.0242 -0.1760
  125POPS   C4B 1634  10.782  13.436   8.731  0.1004 -0.1265 -0.3401
  126POPS   CNO 1635   6.629  14.969  10.398 -0.1445 -0.2411  0.1458
  126POPS   PO4 1636   6.358  15.147  10.157 -0.1543 -0.0516 -0.0983
  126POPS   GL1 1637   6.181  15.288   9.821  0.0398 -0.2924  0.4026
  126POPS   GL2 1638   6.432  15.471   9.779 -0.1339 -0.0762 -0.2050
  126POPS   C1A 1639   5.913  15.345   9.516 -0.0914  0.0524  0.0839
  126POPS   D2A 1640   5.653  15.363   9.186  0.1137 -0.1077  0.4813
  126POPS   C3A 1641   5.869  15.308   8.806 -0.0818  0.3370  0.1447
  126POPS   C4A 1642   5.665  15.009   8.501  0.1638 -0.2645  0.2036
  126POPS   C1B 1643   6.369  15.231   9.281  0.0493  0.1792 -0.1796
  126POPS   C2B 1644   6.401  14.996   8.903 -0.0674  0.0492 -0.0205
  126POPS   C3B 1645   6.841  14.869   8.736 -0.0697  0.3056  0.0039
  126POPS   C4B 1646   7.221  14.839   8.510  0.1557  0.1402  0.0640
  127POPS   CNO 1647   0.735   3.853  10.574 -0.1614  0.0649  0.3729
  127POPS   PO4 1648   0.886   3.515  10.321 -0.1175 -0.2034  0.4029
  127POPS   GL1 1649   0.903   3.452   9.938  0.1123  0.1589  0.0655
  127POPS   GL2 1650   0.733   3.512   9.675 -0.0766  0.0323 -0.4210
  127POPS   C1A 1651   1.130   3.183   9.587 -0.1676 -0.0572  0.0209
  127POPS   D2A 1652   1.273   3.148   9.119  0.0567 -0.1812 -0.0288
  127POPS   C3A 1653   1.236   3.456   8.949 -0.2703  0.0917 -0.1986
  127POPS   C4A 1654   1.402   3.667   8.575 -0.0041 -0.2459  0.0853
  127POPS   C1B 1655   0.769   3.916   9.478 -0.0986 -0.0808 -0.0231
  127POPS   C2B 1656   0.699   4.015   9.089  0.2367  0.2323  0.1250
  127POPS   C3B 1657   0.981   3.894   8.758  0.0331  0.0599 -0.1040
  127POPS   C4B 1658   1.202   4.164   8.476  0.2793 -0.0851 -0.1828
  128POPS   CNO 1659  17.023   9.117  10.489 -0.1008 -0.1927 -0.1437
  128POPS   PO4 1660  17.399   9.065  10.688 -0.0923  0.3232 -0.1342
  128POPS   GL1 1661  17.534   9.230  10.303 -0.0222 -0.0210 -0.0991
  128POPS   GL2 1662  17.359   9.488  10.223  0.2433  0.0292 -0.1317
  128POPS   C1A 1663  17.890   9.184   9.998  0.2811 -0.0540 -0.4258
  128POPS   D2A 1664  18.053   8.974   9.675  0.5091  0.0454 -0.3019
  128POPS   C3A 1665  18.240   8.586   9.832  0.3847  0.0443  0.1040
  128POPS   C4A 1666  18.110   8.204   9.958  0.0343 -0.2134 -0.1022
  128POPS   C1B 1667  17.284   9.589   9.808  0.2199 -0.2390  0.0941
  128POPS   C2B 1668  17.259   9.425   9.366 -0.0476 -0.0404 -0.1000
  128POPS   C3B 1669  17.315   9.305   9.023  0.0351  0.0913 -0.1668
  128POPS   C4B 1670  17.610   9.018   8.766  0.2081 -0.3022 -0.0867
  129POPS   CNO 1671   0.866  11.075  10.229  0.0230 -0.1771 -0.3992
  129POPS   PO4 1672   0.814  10.648  10.260  0.1365  0.2107 -0.0630
  129POPS   GL1 1673   0.621  10.738   9.866 -0.0428 -0.0728  0.2233
  129POPS   GL2 1674   0.315  10.897   9.927 -0.3925  0.1927  0.0253
  129POPS   C1A 1675   0.578  10.927   9.387 -0.2884 -0.3072  0.2784
  129POPS   D2A 1676   0.255  11.009   9.019 -0.0550 -0.0528 -0.2083
  129POPS   C3A 1677   0.020  10.831   8.688 -0.1847 -0.0518 -0.2165
  129POPS   C4A 1678  -0.034  10.784   8.336 -0.0285 -0.0689  0.5061
  129POPS   C1B 1679   0.150  11.027   9.589  0.0653 -0.1530 -0.0719
  129POPS   C2B 1680   0.049  11.328   9.305  0.1428  0.0391 -0.1199
  129POPS   C3B 1681  -0.065  11.645   9.025 -0.0269  0.0310  0.0539
  129POPS   C4B 1682  -0.287  11.637   8.699  0.0999  0.0792  0.0925
  130POPS   CNO 1683   7.318   0.968  10.766 -0.2626 -0.1715 -0.0879
  130POPS   PO4 1684   7.621   0.806  10.408 -0.2591  0.1027 -0.1464
  130POPS   GL1 1685   7.677   0.944   9.942  0.2435 -0.0040  0.2208
  130POPS   GL2 1686   7.402   0.950   9.771  0.0468  0.1498  0.4833
  130POPS   C1A 1687   7.867   0.894   9.566  0.0507  0.2148 -0.1947
  130POPS   D2A 1688   7.997   0.823   9.093  0.0501 -0.0408  0.2321
  130POPS   C3A 1689   7.704   0.816   8.775 -0.0506 -0.0120  0.1902
  130POPS   C4A 1690   7.581   0.306   8.787 -0.0437 -0.0648 -0.0341
  130POPS   C1B 1691   7.374   0.906   9.302 -0.0003  0.0791  0.2272
  130POPS   C2B 1692   7.272   0.996   8.864 -0.1334 -0.1029  0.1075
  130POPS   C3B 1693   7.271   0.766   8.521  0.0078 -0.1020 -0.3089
  130POPS   C4B 1694   7.276   0.440   8.282 -0.0684  0.2903 -0.2139
  131POPS   CNO 1695  15.941  16.598  10.835 -0.1777 -0.3891 -0.0515
  131POPS   PO4 1696  15.810  16.516  10.398  0.1128  0.0303  0.0762
  131POPS   GL1 1697  15.895  16.560  10.057 -0.1404  0.2495 -0.0187
  131POPS   GL2 1698  16.210  16.734   9.979  0.0015 -0.2055 -0.3094
  131POPS   C1A 1699  15.922  16.705   9.618 -0.1560  0.0010 -0.4701
  131POPS   D2A 1700  15.719  16.796   9.269  0.0833 -0.3013  0.0612
  131POPS   C3A 1701  15.849  16.901   8.886  0.1842  0.1196 -0.2524
  131POPS   C4A 1702  15.950  17.293   8.601 -0.1909 -0.3696 -0.0696
  131POPS   C1B 1703  16.368  16.497   9.600 -0.3075 -0.1428  0.3219
  131POPS   C2B 1704  16.462  16.236   9.252 -0.2247  0.1877 -0.0735
  131POPS   C3B 1705  16.329  16.251   8.831  0.3136  0.0999  0.0801
  131POPS   C4B 1706  16.104  16.194   8.508 -0.2412 -0.2106 -0.1374
  132POPS   CNO 1707  15.783   2.346  10.475 -0.4208  0.0956  0.0017
  132POPS   PO4 1708  15.945   2.178  10.003  0.2040  0.1255  0.0469
  132POPS   GL1 1709  15.713   1.999   9.708 -0.0096 -0.2821 -0.1603
  132POPS   GL2 1710  15.815   1.658   9.836 -0.0047 -0.0322 -0.0434
  132POPS   C1A 1711  15.443   2.188   9.317 -0.0767  0.0814  0.4389
  132POPS   D2A 1712  15.158   2.446   8.995  0.2844 -0.1666  0.2642
  132POPS   C3A 1713  15.011   2.213   8.578  0.3437  0.1365  0.1009
  132POPS   C4A 1714  14.961   2.268   8.121  0.1756  0.1397 -0.2043
  132POPS   C1B 1715  15.937   1.326   9.588 -0.2693  0.0481 -0.2777
  132POPS   C2B 1716  16.183   1.131   9.345  0.1918 -0.0051  0.2747
  132POPS   C3B 1717  16.104   1.090   8.885 -0.4088  0.5287  0.1371
  132POPS   C4B 1718  16.062   1.373   8.493 -0.1227  0.0764 -0.0715
  133POPS   CNO 1719   2.261  16.771  10.620  0.3920  0.4236  0.2281
  133POPS   PO4 1720   2.384  16.502  10.368  0.2709 -0.2897 -0.1436
  133POPS   GL1 1721   2.546  16.807  10.029 -0.0130  0.0558  0.2069
  133POPS   GL2 1722   2.538  17.053  10.110 -0.1189  0.0641  0.0020
  133POPS   C1A 1723   2.464  16.834   9.570 -0.1443 -0.0217  0.1708
  133POPS   D2A 1724   2.524  17.027   9.250 -0.0761  0.0382  0.0777
  133POPS   C3A 1725   2.201  16.817   8.968 -0.2456 -0.0845  0.0865
  133POPS   C4A 1726   1.965  17.020   8.709  0.1039 -0.1134  0.1159
  133POPS   C1B 1727   2.889  17.143   9.790  0.0725 -0.1203 -0.0458
  133POPS   C2B 1728   3.048  17.225   9.367 -0.0056  0.0937  0.0718
  133POPS   C3B 1729   3.054  17.265   8.930 -0.0836 -0.2297 -0.1437
  133POPS   C4B 1730   2.998  17.206   8.527  0.2989 -0.0941 -0.0303
  134POPS   CNO 1731  10.873  16.834   9.839 -0.1596 -0.0058 -0.1891
  134POPS   PO4 1732  10.457  16.776   9.834  0.1120 -0.1447 -0.0754
  134POPS   GL1 1733  10.239  16.869   9.503 -0.2763  0.3167 -0.1002
  134POPS   GL2 1734   9.896  16.844   9.437  0.2372  0.0027  0.0742
  134POPS   C1A 1735  10.396  16.844   9.020  0.0878 -0.0915  0.1854
  134POPS   D2A 1736  10.485  16.829   8.580  0.0659 -0.1709 -0.0804
  134POPS   C3A 1737  10.428  17.117   8.287  0.0215 -0.2557  0.0004
  134POPS   C4A 1738  10.300  17.212   7.993 -0.2514 -0.1303 -0.0803
  134POPS   C1B 1739   9.566  16.958   9.053 -0.0232  0.3040  0.0169
  134POPS   C2B 1740   9.507  17.003   8.645  0.0989  0.2896  0.0638
  134POPS   C3B 1741   9.489  16.716   8.336 -0.0628 -0.2865  0.2098
  134POPS   C4B 1742   9.337  16.467   8.053 -0.1882 -0.2390 -0.0723
  135POPS   CNO 1743  17.686   6.466  10.336 -0.1904  0.3535 -0.1202
  135POPS   PO4 1744  17.329   6.361  10.212 -0.1999 -0.1026  0.0445
  135POPS   GL1 1745  17.052   6.594   9.933  0.2394  0.1702  0.1414
  135POPS   GL2 1746  17.186   6.877   9.880 -0.0119  0.0271 -0.2806
  135POPS   C1A 1747  16.979   6.489   9.519 -0.1873  0.0612  0.5734
  135POPS   D2A 1748  16.862   6.379   9.134  0.0832 -0.2135 -0.0427
  135POPS   C3A 1749  16.759   6.459   8.722  0.0690 -0.2190  0.1661
  135POPS   C4A 1750  16.487   6.539   8.521 -0.3583  0.1697 -0.1890
  135POPS   C1B 1751  16.903   7.007   9.557  0.0854  0.0726 -0.1764
  135POPS   C2B 1752  16.705   6.902   9.201  0.0774  0.0046  0.0559
  135POPS   C3B 1753  16.614   6.982   8.733  0.3499  0.1117  0.5660
  135POPS   C4B 1754  16.272   7.058   8.446  0.6839 -0.1344 -0.0873
  136POPS   CNO 1755   4.165  10.342  10.544  0.0173 -0.1043 -0.1022
  136POPS   PO4 1756   3.958  10.646  10.717  0.1338 -0.0614  0.0071
  136POPS   GL1 1757   4.041  10.745  10.277  0.1782  0.1580 -0.0056
  136POPS   GL2 1758   4.358  11.005  10.211  0.1532 -0.1173  0.0667
  136POPS   C1A 1759   4.244  10.582   9.949  0.0098  0.0663 -0.1235
  136POPS   D2A 1760   4.631  10.359   9.753 -0.3286 -0.1474 -0.2243
  136POPS   C3A 1761   4.709  10.172   9.472  0.0752 -0.3830 -0.0147
  136POPS   C4A 1762   4.669  10.416   9.118 -0.0442  0.3331  0.2134
  136POPS   C1B 1763   4.102  11.036   9.856  0.1294  0.0613 -0.2145
  136POPS   C2B 1764   4.059  11.014   9.434 -0.0297 -0.1163 -0.1364
  136POPS   C3B 1765   3.725  10.800   9.077  0.1730 -0.1920 -0.0310
  136POPS   C4B 1766   3.492  10.458   8.817 -0.1564  0.0299 -0.0140
  137POPS   CNO 1767   2.733   5.663  10.370  0.0310  0.0915  0.0713
  137POPS   PO4 1768   2.889   6.009  10.255  0.0764  0.1071  0.1043
  137POPS   GL1 1769   3.139   5.922   9.926  0.2752 -0.1127  0.3568
  137POPS   GL2 1770   3.411   6.025   9.926  0.1918 -0.3784 -0.1136
  137POPS   C1A 1771   3.050   5.887   9.584  0.1440 -0.2657 -0.3485
  137POPS   D2A 1772   2.732   5.650   9.276  0.1513 -0.4127 -0.1506
  137POPS   C3A 1773   2.806   5.759   8.824  0.0207 -0.3831  0.2427
  137POPS   C4A 1774   2.983   5.803   8.401  0.3506  0.2160  0.1754
  137POPS   C1B 1775   3.581   6.042   9.557 -0.4687 -0.2593  0.0874
  137POPS   C2B 1776   3.709   5.945   9.231 -0.1881 -0.0599  0.1561
  137POPS   C3B 1777   3.824   6.152   8.802 -0.0532 -0.1886  0.0308
  137POPS   C4B 1778   3.824   6.244   8.309 -0.0942 -0.0305 -0.2886
  138YOPS   CNO 1779   8.779  10.131  10.141  0.1415 -0.0479  0.0255
  138YOPS   PO4 1780   8.573   9.747  10.344 -0.3590 -0.1190  0.0672
  138YOPS   GL1 1781   8.633   9.733   9.930 -0.0676 -0.2497 -0.1211
  138YOPS   GL2 1782   8.998   9.717   9.898 -0.1917 -0.0650 -0.0882
  138YOPS   C1A 1783   8.738   9.863   9.501 -0.0727 -0.0945  0.0716
  138YOPS   D2A 1784   8.997  10.006   9.191  0.1342 -0.2012 -0.2133
  138YOPS   C3A 1785   9.286   9.980   8.911 -0.2946  0.1804  0.2484
  138YOPS   C4A 1786   9.260  10.132   8.449 -0.2471 -0.3617  0.1593
  138YOPS   C1B 1787   9.172  10.062   9.700 -0.1198  0.0795 -0.0379
  138YOPS   C2B 1788   9.463  10.084   9.497  0.4120 -0.1443  0.0859
  138YOPS   D3B 1789   9.707   9.893   9.215  0.3119  0.4361  0.2207
  138YOPS   C4B 1790   9.737  10.032   8.673 -0.0610  0.2589 -0.0067
  139YOPS   CNO 1791   5.162  12.795  11.080 -0.0836 -0.0323  0.0071
  139YOPS   PO4 1792   5.077  12.964  10.682  0.2067 -0.1472  0.1546
  139YOPS   GL1 1793   4.707  13.132  10.347 -0.0183 -0.0609  0.1801
  139YOPS   GL2 1794   4.644  13.461  10.346 -0.1537 -0.1153  0.1200
  139YOPS   C1A 1795   4.508  13.084   9.950 -0.2309 -0.0471  0.2609
  139YOPS   D2A 1796   4.583  12.996   9.470  0.0773  0.0733  0.4544
  139YOPS   C3A 1797   4.576  13.073   9.073 -0.0785  0.4015 -0.3802
  139YOPS   C4A 1798   4.792  12.787   8.823  0.2480 -0.0555 -0.0928
  139YOPS   C1B 1799   4.948  13.384  10.012  0.1920  0.0073 -0.0702
  139YOPS   C2B 1800   5.044  13.134   9.711 -0.2648  0.0991 -0.1258
  139YOPS   D3B 1801   5.034  12.950   9.235  0.0192  0.2657  0.3639
  139YOPS   C4B 1802   5.193  13.255   9.015 -0.2855 -0.1573 -0.0049
  140YOPS   CNO 1803   3.187  16.468  10.838 -0.0543 -0.1660 -0.0987
  140YOPS   PO4 1804   3.242  16.441  10.392  0.0111 -0.1253  0.3277
  140YOPS   GL1 1805   3.516  16.495   9.990  0.2636  0.1525  0.1408
  140YOPS   GL2 1806   3.758  16.709  10.158  0.1179  0.0721  0.0384
  140YOPS   C1A 1807   3.574  16.391   9.557  0.0866  0.1647 -0.0620
  140YOPS   D2A 1808   3.500  16.414   9.190  0.1176  0.1859 -0.3087
  140YOPS   C3A 1809   3.581  16.202   8.707 -0.1293  0.0182 -0.2755
  140YOPS   C4A 1810   3.381  16.076   8.319  0.1349  0.2146  0.1569
  140YOPS   C1B 1811   3.950  16.758   9.701  0.3584  0.0783  0.1133
  140YOPS   C2B 1812   3.880  16.697   9.274 -0.1656 -0.0698 -0.2251
  140YOPS   D3B 1813   3.721  16.751   8.927 -0.3368 -0.2219 -0.2450
  140YOPS   C4B 1814   3.322  16.855   8.843 -0.2726  0.0470  0.0240
  141YOPS   CNO 1815  17.918   5.400   9.974 -0.1791  0.1117  0.1817
  141YOPS   PO4 1816  17.755   5.017  10.129 -0.1022  0.1565 -0.1269
  141YOPS   GL1 1817  18.134   4.964   9.915  0.1551  0.1557 -0.0186
  141YOPS   GL2 1818  18.195   4.698   9.821 -0.0225 -0.0720 -0.6732
  141YOPS   C1A 1819  18.248   5.241   9.520 -0.0739  0.1203  0.0468
  141YOPS   D2A 1820  18.423   5.334   9.107  0.1143  0.1696 -0.1558
  141YOPS   C3A 1821  18.398   5.370   8.638 -0.1171  0.0595  0.1790
  141YOPS   C4A 1822  18.785   5.354   8.304 -0.1453 -0.3145 -0.2554
  141YOPS   C1B 1823  18.407   4.664   9.521 -0.0984 -0.1134 -0.0787
  141YOPS   C2B 1824  18.580   4.859   9.265  0.1248  0.0784  0.0473
  141YOPS   D3B 1825  18.695   4.886   8.838  0.1844  0.2995 -0.1734
  141YOPS   C4B 1826  18.852   5.207   8.776 -0.0962 -0.0825 -0.1548
  142YOPS   CNO 1827  17.498   3.110  10.116 -0.0272  0.1604 -0.1723
  142YOPS   PO4 1828  17.246   2.794  10.099 -0.0770 -0.0796  0.1380
  142YOPS   GL1 1829  17.110   2.845   9.643 -0.0332  0.1646 -0.0996
  142YOPS   GL2 1830  17.114   3.243   9.696  0.0086 -0.2301  0.2591
  142YOPS   C1A 1831  16.926   2.875   9.275  0.2361  0.1087  0.2249
  142YOPS   D2A 1832  16.746   3.156   8.913  0.2133 -0.3038  0.1361
  142YOPS   C3A 1833  16.611   3.515   8.764 -0.0982  0.1423  0.0731
  142YOPS   C4A 1834  16.498   3.511   8.425 -0.2088  0.1913  0.3950
  142YOPS   C1B 1835  17.189   3.261   9.379  0.1350 -0.1250  0.0933
  142YOPS   C2B 1836  17.232   3.125   8.934 -0.1159  0.3409 -0.3339
  142YOPS   D3B 1837  17.126   2.974   8.677 -0.0402 -0.0752  0.2989
  142YOPS   C4B 1838  16.665   2.969   8.484  0.2291 -0.3900  0.0364
  143YOPS   CNO 1839  11.125   3.517  10.403 -0.2634  0.1168  0.0883
  143YOPS   PO4 1840  11.172   3.208  10.068 -0.2019  0.0305  0.2285
  143YOPS   GL1 1841  11.156   3.126   9.723  0.3726  0.1229  0.0783
  143YOPS   GL2 1842  11.139   3.381   9.528  0.0338  0.1693 -0.0683
  143YOPS   C1A 1843  11.218   2.928   9.362  0.1605 -0.2197  0.0141
  143YOPS   D2A 1844  11.489   2.634   9.215 -0.0446 -0.0085  0.2803
  143YOPS   C3A 1845  11.499   2.491   8.838 -0.0096  0.0723  0.1070
  143YOPS   C4A 1846  11.524   2.759   8.570 -0.0501 -0.2746  0.0251
  143YOPS   C1B 1847  10.990   3.637   9.189  0.0395 -0.4121 -0.1681
  143YOPS   C2B 1848  10.929   3.539   8.822  0.0570 -0.0914 -0.1077
  143YOPS   D3B 1849  10.814   3.437   8.384  0.0213  0.0125 -0.0096
  143YOPS   C4B 1850  10.774   3.037   8.334  0.2102  0.0119 -0.2164
  144YOPS   CNO 1851   9.181  14.422  10.475  0.2161  0.5615 -0.2175
  144YOPS   PO4 1852   9.588  14.304  10.169  0.0287 -0.3487  0.1039
  144YOPS   GL1 1853   9.566  14.266   9.776  0.2639  0.0410  0.3931
  144YOPS   GL2 1854   9.330  14.029   9.641  0.0100 -0.1142  0.2963
  144YOPS   C1A 1855   9.716  14.446   9.346 -0.2555  0.1532  0.0271
  144YOPS   D2A 1856   9.758  14.469   8.930 -0.2232 -0.0380 -0.1940
  144YOPS   C3A 1857   9.738  14.509   8.497 -0.1145 -0.1199 -0.0914
  144YOPS   C4A 1858   9.869  14.826   8.245  0.1430  0.3470 -0.1065
  144YOPS   C1B 1859   9.419  14.106   9.147 -0.1503 -0.0367 -0.0540
  144YOPS   C2B 1860   9.464  14.068   8.722  0.3980  0.1352  0.0432
  144YOPS   D3B 1861   9.440  14.169   8.227  0.2065 -0.0909  0.0417
  144YOPS   C4B 1862   9.788  14.353   8.070 -0.1045 -0.1369 -0.1741
  145YOPS   CNO 1863   3.613  14.371  11.153 -0.1274  0.1562  0.0759
  145YOPS   PO4 1864   3.797  14.095  10.790  0.2181  0.0646 -0.0815
  145YOPS   GL1 1865   3.769  14.114  10.311 -0.0939  0.0119  0.0587
  145YOPS   GL2 1866   3.574  14.050  10.159  0.0784 -0.0823  0.1158
  145YOPS   C1A 1867   3.909  14.289   9.949 -0.0208 -0.3532 -0.0687
  145YOPS   D2A 1868   4.195  14.350   9.742 -0.1086  0.1867  0.1428
  145YOPS   C3A 1869   4.128  14.386   9.408  0.1846 -0.1766  0.0171
  145YOPS   C4A 1870   3.765  14.289   9.366 -0.2776  0.0310 -0.2552
  145YOPS   C1B 1871   3.558  13.900   9.731  0.1837 -0.0421  0.0693
  145YOPS   C2B 1872   3.657  13.740   9.442  0.2895  0.1389 -0.0692
  145YOPS   D3B 1873   3.720  13.549   9.005 -0.2455  0.0894 -0.0707
  145YOPS   C4B 1874   3.685  13.166   8.931 -0.2505 -0.0784 -0.2163
  146YOPS   CNO 1875  14.979   7.630  10.337  0.3829 -0.0835  0.0155
  146YOPS   PO4 1876  14.641   7.748  10.257 -0.2809 -0.0474  0.1666
  146YOPS   GL1 1877  14.692   7.550   9.879 -0.3074 -0.3916  0.4060
  146YOPS   GL2 1878  15.007   7.317   9.939 -0.0664 -0.1680  0.1158
  146YOPS   C1A 1879  14.468   7.525   9.587  0.2215  0.3320 -0.4574
  146YOPS   D2A 1880  14.567   7.498   9.186  0.1777  0.3109  0.0213
  146YOPS   C3A 1881  14.739   7.387   8.807 -0.2264  0.1054  0.1152
  146YOPS   C4A 1882  14.545   7.134   8.523  0.0331 -0.0779  0.0118
  146YOPS   C1B 1883  15.060   7.242   9.517  0.1476  0.1210  0.1643
  146YOPS   C2B 1884  15.141   7.182   9.121  0.0127 -0.1859 -0.2045
  146YOPS   D3B 1885  15.133   6.987   8.782 -0.2157  0.0721 -0.0696
  146YOPS   C4B 1886  15.470   6.987   8.396 -0.0090 -0.1373 -0.2347
  147YOPS   CNO 1887   1.095   5.117  10.684  0.2537  0.2219  0.1367
  147YOPS   PO4 1888   1.121   4.851  10.391 -0.0151  0.0941 -0.1579
  147YOPS   GL1 1889   1.380   4.943  10.081 -0.1344 -0.0534  0.0028
  147YOPS   GL2 1890   1.326   5.198   9.946 -0.1409 -0.0083  0.2447
  147YOPS   C1A 1891   1.433   4.734   9.679  0.2720  0.1085 -0.0565
  147YOPS   D2A 1892   1.482   4.913   9.297 -0.0987  0.1075  0.2617
  147YOPS   C3A 1893   1.553   5.283   8.989  0.0330  0.0683  0.2230
  147YOPS   C4A 1894   1.431   5.200   8.530 -0.1658 -0.2331 -0.0438
  147YOPS   C1B 1895   1.350   5.425   9.412 -0.1342 -0.2361 -0.2119
  147YOPS   C2B 1896   1.105   5.465   9.078  0.1008  0.0471  0.3331
  147YOPS   D3B 1897   0.935   5.482   8.608  0.0463 -0.1317 -0.2350
  147YOPS   C4B 1898   0.884   5.791   8.466 -0.1215  0.2421 -0.1070
  148YOPS   CNO 1899   5.428  10.387  10.421 -0.0465 -0.3693 -0.1768
  148YOPS   PO4 1900   5.056  10.410  10.802 -0.2424  0.1007 -0.0915
  148YOPS   GL1 1901   4.984  10.265  10.289 -0.1577 -0.2220 -0.2130
  148YOPS   GL2 1902   4.920   9.869  10.284  0.0733  0.1439  0.0742
  148YOPS   C1A 1903   5.061  10.487   9.947  0.1937  0.2081  0.1231
  148YOPS   D2A 1904   5.131  10.525   9.512 -0.1449  0.1943  0.2502
  148YOPS   C3A 1905   5.119  10.295   9.133 -0.0033  0.0629  0.1057
  148YOPS   C4A 1906   5.276   9.794   8.968  0.0881 -0.0774 -0.0961
  148YOPS   C1B 1907   4.775   9.909   9.892 -0.0720  0.2105  0.2418
  148YOPS   C2B 1908   4.541   9.689   9.577 -0.1468 -0.2438 -0.0741
  148YOPS   D3B 1909   4.458   9.389   9.293 -0.2015  0.0877  0.0842
  148YOPS   C4B 1910   4.300   9.518   8.866 -0.1153 -0.1037  0.1091
  149YOPS   CNO 1911   4.337   0.841  10.317 -0.1712 -0.0545 -0.0214
  149YOPS   PO4 1912   4.697   0.592  10.288 -0.0489 -0.2052 -0.0066
  149YOPS   GL1 1913   4.603   0.574   9.839 -0.0693  0.2179 -0.0628
  149YOPS   GL2 1914   4.766   0.320   9.813  0.4766  0.3810 -0.0430
  149YOPS   C1A 1915   4.441   0.690   9.410 -0.0834  0.2230  0.2098
  149YOPS   D2A 1916   4.495   0.625   8.981  0.0600 -0.0426  0.2891
  149YOPS   C3A 1917   4.629   0.474   8.539 -0.1856  0.0094  0.0842
  149YOPS   C4A 1918   4.434   0.259   8.281  0.0237 -0.2409  0.1126
  149YOPS   C1B 1919   4.757   0.368   9.339  0.0877  0.2203  0.0215
  149YOPS   C2B 1920   4.938   0.237   8.945  0.1150 -0.0557 -0.1960
  149YOPS   D3B 1921   5.157   0.224   8.585  0.1022 -0.0080 -0.2340
  149YOPS   C4B 1922   5.192   0.424   8.224 -0.0226  0.0078  0.0657
  150YOPS   CNO 1923  14.001   5.392  10.204 -0.0763  0.0328  0.0040
  150YOPS   PO4 1924  14.054   5.576   9.829 -0.1777  0.3655 -0.1529
  150YOPS   GL1 1925  13.984   5.477   9.393 -0.0321  0.0750 -0.0712
  150YOPS   GL2 1926  13.826   5.139   9.465 -0.1259  0.5637  0.3917
  150YOPS   C1A 1927  14.276   5.466   9.069 -0.0300  0.3413  0.2447
  150YOPS   D2A 1928  14.507   5.530   8.605  0.1057 -0.0944 -0.0298
  150YOPS   C3A 1929  14.350   5.532   8.269 -0.0168  0.0159  0.0115
  150YOPS   C4A 1930  14.133   5.834   8.020 -0.3271 -0.1360 -0.0218
  150YOPS   C1B 1931  13.470   5.218   9.449 -0.1739  0.1363  0.0134
  150YOPS   C2B 1932  13.355   5.610   9.369  0.2452  0.1643  0.1539
  150YOPS   D3B 1933  13.253   5.983   9.286 -0.5490 -0.1018  0.0322
  150YOPS   C4B 1934  12.854   6.189   9.196 -0.2503  0.1232  0.0617
  151YOPS   CNO 1935   9.786   5.048   9.823  0.0760 -0.4458 -0.0811
  151YOPS   PO4 1936   9.377   5.186   9.903 -0.1398 -0.3632  0.1395
  151YOPS   GL1 1937   9.295   5.544   9.730  0.1561 -0.1553 -0.1208
  151YOPS   GL2 1938   9.068   5.763   9.774  0.1878  0.0488 -0.0988
  151YOPS   C1A 1939   9.232   5.722   9.291  0.1012 -0.0162 -0.3179
  151YOPS   D2A 1940   9.071   5.841   8.908 -0.0791 -0.0226 -0.2805
  151YOPS   C3A 1941   8.898   5.836   8.473 -0.1870  0.2944 -0.0492
  151YOPS   C4A 1942   8.877   5.919   8.008 -0.3153  0.0862  0.0225
  151YOPS   C1B 1943   8.771   6.142   9.652 -0.2215 -0.1355 -0.1424
  151YOPS   C2B 1944   8.564   6.547   9.442 -0.0531  0.0155 -0.1578
  151YOPS   D3B 1945   8.632   6.927   9.422  0.1673 -0.0366  0.1201
  151YOPS   C4B 1946   8.270   7.223   9.599 -0.0551  0.1454 -0.2880
  152YOPS   CNO 1947   1.558   3.650   9.932  0.0442 -0.3025  0.1602
  152YOPS   PO4 1948   1.899   3.687  10.329  0.3133  0.0894 -0.1341
  152YOPS   GL1 1949   2.015   3.490  10.010 -0.0777  0.0206  0.1434
  152YOPS   GL2 1950   2.341   3.642   9.876 -0.1220 -0.1200 -0.1378
  152YOPS   C1A 1951   2.092   3.352   9.541  0.1361 -0.3533  0.4441
  152YOPS   D2A 1952   2.209   3.471   9.110  0.1421  0.0238 -0.0935
  152YOPS   C3A 1953   2.098   3.250   8.647  0.1709  0.0072  0.0960
  152YOPS   C4A 1954   2.231   2.994   8.249  0.1776 -0.1046 -0.0827
  152YOPS   C1B 1955   2.098   3.899   9.545  0.0905 -0.1923 -0.0822
  152YOPS   C2B 1956   2.001   4.080   9.124 -0.2622 -0.2868 -0.0142
  152YOPS   D3B 1957   1.977   4.270   8.717  0.0576  0.1135 -0.0604
  152YOPS   C4B 1958   1.809   3.938   8.470  0.1042 -0.0409 -0.0264
  153YOPS   CNO 1959  17.677   0.485  10.153 -0.0824  0.0927 -0.2911
  153YOPS   PO4 1960  17.789   0.229  10.597  0.0409  0.1705 -0.0266
  153YOPS   GL1 1961  17.979   0.015  10.159  0.2064  0.0022  0.0677
  153YOPS   GL2 1962  18.241   0.145  10.004  0.1459  0.0455  0.4505
  153YOPS   C1A 1963  17.916  -0.164   9.800  0.0618  0.2849  0.0972
  153YOPS   D2A 1964  17.798  -0.135   9.384 -0.1501  0.0197 -0.1172
  153YOPS   C3A 1965  17.753  -0.056   8.936  0.0515  0.0366 -0.2269
  153YOPS   C4A 1966  17.997  -0.276   8.607 -0.0173  0.1919  0.1539
  153YOPS   C1B 1967  18.241   0.071   9.531 -0.2157 -0.1001  0.1141
  153YOPS   C2B 1968  18.244   0.088   9.039 -0.0101 -0.2109 -0.0676
  153YOPS   D3B 1969  18.171   0.502   8.807 -0.2072  0.0828  0.1630
  153YOPS   C4B 1970  18.521   0.843   8.832  0.0462  0.0108  0.0968
  154YOPS   CNO 1971  13.633  17.266  10.387 -0.2544  0.3285 -0.0484
  154YOPS   PO4 1972  13.340  17.409  10.172  0.2423 -0.1341  0.1317
  154YOPS   GL1 1973  13.576  17.395   9.896 -0.1290  0.0415  0.3717
  154YOPS   GL2 1974  13.303  17.283   9.682 -0.1855  0.0172 -0.0015
  154YOPS   C1A 1975  13.956  17.528   9.768  0.0762 -0.0308 -0.3971
  154YOPS   D2A 1976  14.234  17.358   9.569  0.0757 -0.1337 -0.3525
  154YOPS   C3A 1977  14.531  17.215   9.352 -0.3250  0.3987  0.0760
  154YOPS   C4A 1978  14.225  16.863   9.179  0.1038 -0.0207  0.0665
  154YOPS   C1B 1979  13.339  17.354   9.293 -0.0975 -0.3579  0.0111
  154YOPS   C2B 1980  13.241  17.568   8.821  0.0303 -0.0976 -0.0464
  154YOPS   D3B 1981  13.030  17.495   8.422  0.0376 -0.0422  0.1421
  154YOPS   C4B 1982  12.641  17.283   8.441 -0.1262 -0.2750  0.1283
  155YOPS   CNO 1983   4.289   6.558  10.333  0.2255  0.2774  0.0251
  155YOPS   PO4 1984   4.460   6.324  10.031 -0.0782 -0.0666 -0.1279
  155YOPS   GL1 1985   4.427   6.619   9.828  0.0485  0.2228 -0.0981
  155YOPS   GL2 1986   4.037   6.732   9.858  0.0526  0.1098  0.0080
  155YOPS   C1A 1987   4.560   6.648   9.381  0.1345 -0.1433  0.0473
  155YOPS   D2A 1988   4.615   6.754   8.896 -0.3241  0.1055  0.0918
  155YOPS   C3A 1989   4.570   6.514   8.531 -0.0907  0.0703 -0.2549
  155YOPS   C4A 1990   4.743   6.579   8.142 -0.2363 -0.0020 -0.2807
  155YOPS   C1B 1991   4.119   6.873   9.471  0.0847  0.0202  0.0427
  155YOPS   C2B 1992   4.192   6.958   9.085  0.0052  0.0234  0.2083
  155YOPS   D3B 1993   4.139   7.038   8.648  0.0170 -0.2178 -0.3659
  155YOPS   C4B 1994   4.434   7.241   8.396  0.0002 -0.0065 -0.0122
  156YOPS   CNO 1995  12.457   9.427  10.062 -0.2601  0.0385  0.0565
  156YOPS   PO4 1996  12.173   9.612  10.048 -0.4038  0.2414  0.0511
  156YOPS   GL1 1997  12.087   9.658   9.586  0.1052 -0.0598 -0.2825
  156YOPS   GL2 1998  11.814   9.759   9.453 -0.3958 -0.1984 -0.1681
  156YOPS   C1A 1999  12.234   9.713   9.189  0.2744  0.2054  0.0115
  156YOPS   D2A 2000  12.352   9.872   8.745 -0.3299 -0.1133  0.1172
  156YOPS   C3A 2001  12.339   9.998   8.342 -0.1125 -0.2442  0.1814
  156YOPS   C4A 2002  12.367   9.620   8.048  0.0737 -0.2941 -0.2497
  156YOPS   C1B 2003  11.876  10.011   9.205  0.1100 -0.4919 -0.1053
  156YOPS   C2B 2004  11.794  10.102   8.809 -0.0494 -0.0991  0.0958
  156YOPS   D3B 2005  11.516  10.140   8.420  0.1660  0.1477 -0.1560
  156YOPS   C4B 2006  11.468  10.552   8.456  0.2892  0.0283 -0.1044
  157YOPS   CNO 2007   4.984   9.207  10.121  0.3491  0.1905  0.0364
  157YOPS   PO4 2008   5.222   9.069  10.465 -0.1230 -0.0097  0.0044
  157YOPS   GL1 2009   5.560   9.143  10.157  0.1781  0.0106 -0.2213
  157YOPS   GL2 2010   5.879   9.115  10.199  0.0186 -0.0937  0.1467
  157YOPS   C1A 2011   5.614   9.287   9.778  0.2034 -0.1260 -0.1059
  157YOPS   D2A 2012   5.450   9.303   9.311  0.0283 -0.0981  0.1150
  157YOPS   C3A 2013   5.372   9.278   8.835 -0.1456 -0.1226 -0.0785
  157YOPS   C4A 2014   5.567   8.971   8.762 -0.0423 -0.0777  0.0037
  157YOPS   C1B 2015   6.108   9.061   9.832  0.0113 -0.1839 -0.0636
  157YOPS   C2B 2016   6.323   9.022   9.459  0.1579 -0.0025  0.2164
  157YOPS   D3B 2017   6.614   9.105   9.223  0.3522  0.1325  0.0590
  157YOPS   C4B 2018   6.525   9.399   8.859  0.0078 -0.1580  0.1010
  158YOPS   CNO 2019   3.781  12.203  11.306  0.1354 -0.2943  0.0078
  158YOPS   PO4 2020   3.647  12.105  10.901 -0.1187 -0.2318  0.1623
  158YOPS   GL1 2021   3.653  12.061  10.519  0.2182  0.1244  0.1791
  158YOPS   GL2 2022   3.988  12.013  10.347 -0.1122  0.0580  0.0276
  158YOPS   C1A 2023   3.604  12.196  10.133 -0.0304 -0.0927 -0.0900
  158YOPS   D2A 2024   3.542  12.079   9.771  0.0343 -0.1183  0.1398
  158YOPS   C3A 2025   3.645  12.006   9.388  0.1606 -0.0847  0.0726
  158YOPS   C4A 2026   3.457  12.301   9.020  0.2167  0.0413 -0.1615
  158YOPS   C1B 2027   4.078  12.035   9.925 -0.0864 -0.3196 -0.0981
  158YOPS   C2B 2028   4.185  12.014   9.471  0.0220  0.0550  0.1672
  158YOPS   D3B 2029   4.139  11.840   8.985 -0.1660  0.3815  0.2215
  158YOPS   C4B 2030   3.773  11.848   8.812 -0.3159  0.0247  0.0984
  159YOPS   CNO 2031   1.119  14.055  10.325  0.2364 -0.0744 -0.2570
  159YOPS   PO4 2032   0.995  14.413  10.473  0.2733  0.0565 -0.4381
  159YOPS   GL1 2033   0.915  14.492  10.048 -0.0702 -0.0371 -0.1080
  159YOPS   GL2 2034   0.736  14.702   9.902  0.0924  0.1075 -0.1348
  159YOPS   C1A 2035   1.027  14.303   9.701  0.2308  0.1007 -0.3440
  159YOPS   D2A 2036   1.144  14.306   9.306  0.1474  0.1027 -0.2218
  159YOPS   C3A 2037   1.214  14.394   8.844  0.2547 -0.1135  0.0652
  159YOPS   C4A 2038   0.866  14.323   8.572 -0.0836  0.0393  0.2196
  159YOPS   C1B 2039   0.833  14.773   9.446  0.0078 -0.0955  0.2850
  159YOPS   C2B 2040   0.874  14.788   8.984  0.0649 -0.0773 -0.0786
  159YOPS   D3B 2041   0.757  14.801   8.536 -0.2015  0.2504 -0.0522
  159YOPS   C4B 2042   0.767  15.220   8.374 -0.0694  0.1880 -0.0863
  160YOPS   CNO 2043   6.264   0.999  10.357 -0.1234 -0.2380  0.2025
  160YOPS   PO4 2044   6.060   0.620  10.337 -0.1850 -0.0991 -0.0136
  160YOPS   GL1 2045   6.006   0.741   9.938 -0.0831  0.1941 -0.1091
  160YOPS   GL2 2046   5.645   0.964   9.891  0.0291  0.0046  0.4015
  160YOPS   C1A 2047   5.910   0.583   9.481 -0.3461  0.2045 -0.0765
  160YOPS   D2A 2048   5.881   0.759   9.112 -0.0008  0.2909  0.0782
  160YOPS   C3A 2049   5.627   0.841   8.739 -0.1565  0.1263  0.1148
  160YOPS   C4A 2050   5.708   0.762   8.329  0.2022  0.1064  0.3686
  160YOPS   C1B 2051   5.691   1.063   9.451  0.0475  0.2141 -0.3577
  160YOPS   C2B 2052   5.408   1.146   9.144 -0.1095 -0.2260 -0.1430
  160YOPS   D3B 2053   5.111   1.168   8.732 -0.1073 -0.0150  0.1899
  160YOPS   C4B 2054   4.621   1.063   8.735  0.0974  0.1050  0.0160
  161YOPS   CNO 2055   7.812   9.948  10.970  0.1123 -0.0580  0.0576
  161YOPS   PO4 2056   7.995  10.254  10.840 -0.0396  0.0058 -0.1461
  161YOPS   GL1 2057   8.054  10.215  10.417 -0.1570 -0.2809 -0.1157
  161YOPS   GL2 2058   8.283  10.323  10.190 -0.0922  0.2646  0.0845
  161YOPS   C1A 2059   7.871  10.179   9.940  0.1878 -0.0616  0.2460
  161YOPS   D2A 2060   7.574   9.993   9.652  0.1328 -0.2585 -0.2577
  161YOPS   C3A 2061   7.068   9.967   9.690  0.1561 -0.0485 -0.1248
  161YOPS   C4A 2062   6.910   9.784  10.052  0.1333 -0.1084  0.1799
  161YOPS   C1B 2063   8.426  10.127   9.778 -0.0190  0.0106 -0.1282
  161YOPS   C2B 2064   8.094  10.124   9.503 -0.0176  0.0109  0.2127
  161YOPS   D3B 2065   8.115  10.178   9.045 -0.2708 -0.1151  0.0241
  161YOPS   C4B 2066   7.843  10.240   8.820 -0.4987 -0.1522 -0.0994
  162YOPS   CNO 2067   7.182  10.610  10.692  0.0182  0.1571 -0.3689
  162YOPS   PO4 2068   7.709  10.596  10.659 -0.2510 -0.3562 -0.2375
  162YOPS   GL1 2069   7.546  10.597  10.276 -0.0808 -0.0052  0.0950
  162YOPS   GL2 2070   7.586  10.955  10.234  0.0596  0.1241  0.2261
  162YOPS   C1A 2071   7.344  10.366   9.892  0.0962 -0.3418  0.1605
  162YOPS   D2A 2072   7.262  10.347   9.496 -0.0764  0.1438  0.0516
  162YOPS   C3A 2073   7.477  10.155   9.141  0.0173  0.3215  0.0247
  162YOPS   C4A 2074   7.270  10.132   8.737 -0.0758  0.1722  0.1272
  162YOPS   C1B 2075   7.417  10.841   9.832 -0.2493  0.2379 -0.0936
  162YOPS   C2B 2076   7.242  10.801   9.384  0.0981 -0.0932 -0.2944
  162YOPS   D3B 2077   6.888  10.681   9.084 -0.0596 -0.3984  0.0425
  162YOPS   C4B 2078   6.944  10.535   8.631  0.0558 -0.0353  0.3930
  163YOPS   CNO 2079   7.639   5.818  10.176 -0.1659 -0.2530 -0.1543
  163YOPS   PO4 2080   7.938   6.045  10.451  0.4044  0.0312  0.0402
  163YOPS   GL1 2081   8.073   6.046  10.084 -0.0281  0.3826  0.3135
  163YOPS   GL2 2082   8.128   5.752   9.845 -0.0256 -0.0757  0.0010
  163YOPS   C1A 2083   8.291   6.264   9.834 -0.2279 -0.2522 -0.3029
  163YOPS   D2A 2084   8.504   6.648   9.925 -0.0837 -0.1827  0.0233
  163YOPS   C3A 2085   8.600   7.081   9.946  0.1121 -0.1373 -0.0571
  163YOPS   C4A 2086   9.005   7.105   9.884 -0.1055  0.1190  0.2202
  163YOPS   C1B 2087   8.353   5.846   9.511  0.4082  0.1237 -0.0397
  163YOPS   C2B 2088   8.645   5.941   9.158 -0.2136 -0.0699  0.2301
  163YOPS   D3B 2089   8.536   5.978   8.712 -0.2902  0.1037 -0.1189
  163YOPS   C4B 2090   8.129   6.133   8.645 -0.0553 -0.1584 -0.1235
  164YOPS   CNO 2091  15.227   4.786  10.508  0.0601  0.0138 -0.0762
  164YOPS   PO4 2092  15.635   4.855  10.290 -0.4304  0.1213  0.0700
  164YOPS   GL1 2093  15.717   4.752   9.827  0.0688  0.0524  0.0690
  164YOPS   GL2 2094  16.017   4.661   9.726 -0.0876  0.1176  0.0808
  164YOPS   C1A 2095  15.537   4.696   9.454  0.1273 -0.0658  0.0142
  164YOPS   D2A 2096  15.666   4.644   8.946 -0.1233  0.0300 -0.3364
  164YOPS   C3A 2097  15.841   4.587   8.584  0.1349  0.0783 -0.1596
  164YOPS   C4A 2098  15.925   4.319   8.231 -0.2139  0.0062 -0.2522
  164YOPS   C1B 2099  16.071   4.684   9.307  0.1217 -0.0847  0.2330
  164YOPS   C2B 2100  16.089   4.967   8.854  0.3742 -0.1823 -0.1949
  164YOPS   D3B 2101  16.280   5.010   8.506 -0.2230 -0.1536 -0.3232
  164YOPS   C4B 2102  16.253   4.638   8.279 -0.1921  0.0292  0.3841
  165YOPS   CNO 2103   3.191   5.335  10.703  0.0356 -0.2696  0.1030
  165YOPS   PO4 2104   3.021   5.226  10.279 -0.2668 -0.1683 -0.0458
  165YOPS   GL1 2105   3.032   5.385   9.849  0.3530 -0.1927  0.2298
  165YOPS   GL2 2106   2.705   5.253   9.835 -0.0318 -0.1279  0.1699
  165YOPS   C1A 2107   3.024   5.260   9.403 -0.2576 -0.2979  0.2667
  165YOPS   D2A 2108   2.894   5.286   8.953 -0.0618 -0.1411  0.0250
  165YOPS   C3A 2109   2.941   5.284   8.488 -0.2614  0.1314  0.0981
  165YOPS   C4A 2110   3.035   5.058   8.148 -0.0665  0.0372  0.0241
  165YOPS   C1B 2111   2.728   4.892   9.556 -0.2678  0.0006  0.5122
  165YOPS   C2B 2112   2.636   4.883   9.158 -0.0947  0.2021  0.1974
  165YOPS   D3B 2113   2.510   5.037   8.716 -0.1691  0.0158  0.0310
  165YOPS   C4B 2114   2.569   4.737   8.433  0.0256  0.0065  0.0883
  166YOPS   CNO 2115  16.515   1.682  10.554  0.0856  0.1448  0.2013
  166YOPS   PO4 2116  16.677   1.888  10.156 -0.0910  0.2035  0.0246
  166YOPS   GL1 2117  16.619   1.911   9.737 -0.0037  0.4041  0.2978
  166YOPS   GL2 2118  16.249   1.862   9.813  0.2020  0.1312  0.0567
  166YOPS   C1A 2119  16.615   1.952   9.365 -0.0357  0.1942  0.1888
  166YOPS   D2A 2120  16.468   2.095   8.997  0.1786  0.1012 -0.0945
  166YOPS   C3A 2121  16.433   2.225   8.673 -0.2924  0.3109  0.0666
  166YOPS   C4A 2122  16.287   2.611   8.545 -0.0051 -0.1169  0.1440
  166YOPS   C1B 2123  16.212   1.653   9.337 -0.0906 -0.1134 -0.1317
  166YOPS   C2B 2124  16.366   1.586   8.903  0.1380  0.0220 -0.1504
  166YOPS   D3B 2125  16.513   1.746   8.565  0.1599  0.1274 -0.0369
  166YOPS   C4B 2126  16.593   1.400   8.385  0.0092  0.2026  0.3595
  167YOPS   CNO 2127   0.093   3.063  10.710 -0.3877  0.3175  0.1667
  167YOPS   PO4 2128   0.124   2.824  10.294  0.2891 -0.0862 -0.0082
  167YOPS   GL1 2129   0.298   2.863   9.923 -0.1491  0.2381 -0.0671
  167YOPS   GL2 2130   0.317   2.587   9.711  0.1072 -0.3329  0.1650
  167YOPS   C1A 2131   0.638   3.043   9.655  0.0122 -0.4233 -0.1705
  167YOPS   D2A 2132   0.753   3.059   9.282  0.1187  0.0274  0.0390
  167YOPS   C3A 2133   0.800   2.994   8.920 -0.1211 -0.0846  0.2809
  167YOPS   C4A 2134   0.414   2.967   8.611  0.3128  0.1511  0.0260
  167YOPS   C1B 2135   0.541   2.547   9.291  0.0780  0.1461  0.0396
  167YOPS   C2B 2136   0.639   2.494   8.851  0.1378  0.0932 -0.3533
  167YOPS   D3B 2137   0.364   2.514   8.556  0.4681  0.0737 -0.1558
  167YOPS   C4B 2138   0.320   2.696   8.219 -0.1368  0.3539  0.1141
  168POPE   NH3 2139   6.836   6.659  10.373 -0.0255 -0.1429 -0.2745
  168POPE   PO4 2140   7.048   7.024  10.399 -0.0952  0.0068 -0.0626
  168POPE   GL1 2141   7.147   7.143   9.954 -0.0639 -0.0074 -0.2542
  168POPE   GL2 2142   7.400   7.109   9.853 -0.0903 -0.3885 -0.0543
  168POPE   C1A 2143   6.890   7.309   9.554 -0.0532 -0.3399 -0.2542
  168POPE   D2A 2144   6.862   7.529   9.149  0.0267 -0.0239 -0.0907
  168POPE   C3A 2145   7.093   7.784   8.837  0.1124  0.2479  0.0787
  168POPE   C4A 2146   7.436   7.604   8.650  0.1596 -0.0628 -0.1739
  168POPE   C1B 2147   7.396   7.047   9.451 -0.1270 -0.0776  0.0911
  168POPE   C2B 2148   7.493   6.888   9.083 -0.0944 -0.3322 -0.0094
  168POPE   C3B 2149   7.727   6.844   8.819  0.0162 -0.3062 -0.5519
  168POPE   C4B 2150   8.100   6.687   8.645  0.1586  0.2483 -0.1961
  169POPE   NH3 2151  10.189  17.257   9.905  0.2464  0.0406  0.0135
  169POPE   PO4 2152   9.805  17.397   9.961 -0.0248 -0.0552  0.1608
  169POPE   GL1 2153   9.859  17.368   9.531  0.3239 -0.1583 -0.0487
  169POPE   GL2 2154   9.518  17.328   9.352 -0.0478 -0.0578  0.2220
  169POPE   C1A 2155   9.917  17.712   9.265 -0.2021 -0.0779  0.1456
  169POPE   D2A 2156   9.835  18.035   8.967  0.2584  0.0396 -0.1813
  169POPE   C3A 2157   9.982  18.276   8.567 -0.3926  0.2538  0.3875
  169POPE   C4A 2158  10.101  18.443   8.238 -0.1159 -0.0023  0.2997
  169POPE   C1B 2159   9.620  17.438   8.933  0.0508 -0.1141 -0.2291
  169POPE   C2B 2160   9.807  17.686   8.677  0.3382  0.2852  0.2201
  169POPE   C3B 2161  10.134  17.717   8.454 -0.3456 -0.2514  0.0501
  169POPE   C4B 2162  10.096  17.674   8.041 -0.1985 -0.1525  0.1698
  170POPE   NH3 2163  16.773   3.025  10.036 -0.0302  0.0224  0.0970
  170POPE   PO4 2164  16.393   2.796  10.004 -0.1126  0.0216 -0.1278
  170POPE   GL1 2165  16.340   2.429   9.823 -0.1070 -0.1136  0.0801
  170POPE   GL2 2166  16.624   2.454   9.571  0.3004  0.0640  0.0723
  170POPE   C1A 2167  16.192   2.151   9.416 -0.0746  0.0124 -0.0005
  170POPE   D2A 2168  15.902   2.038   9.122 -0.1473 -0.3576 -0.2505
  170POPE   C3A 2169  16.016   1.978   8.767 -0.5050  0.4956  0.1916
  170POPE   C4A 2170  15.755   1.758   8.499 -0.1648 -0.4357  0.2210
  170POPE   C1B 2171  16.897   2.350   9.417 -0.1546 -0.0719  0.2217
  170POPE   C2B 2172  17.106   2.121   9.109  0.1973 -0.1779  0.0798
  170POPE   C3B 2173  16.869   2.001   8.769 -0.0710 -0.2784  0.0908
  170POPE   C4B 2174  16.847   2.120   8.365 -0.0974 -0.0817  0.2693
  171POPE   NH3 2175   7.994   0.575  10.094  0.2018  0.1422  0.3000
  171POPE   PO4 2176   8.276   0.099  10.076  0.0416  0.0501 -0.0852
  171POPE   GL1 2177   7.963   0.175   9.749  0.0562 -0.0979 -0.0298
  171POPE   GL2 2178   7.658   0.410   9.702 -0.1925 -0.1768  0.0053
  171POPE   C1A 2179   7.884  -0.076   9.239  0.3122 -0.3790  0.0629
  171POPE   D2A 2180   7.805  -0.148   8.709  0.1377  0.0734 -0.2032
  171POPE   C3A 2181   7.766   0.127   8.241 -0.4562  0.0632 -0.1429
  171POPE   C4A 2182   7.656   0.365   7.856 -0.1502  0.1149 -0.0963
  171POPE   C1B 2183   7.598   0.447   9.311 -0.1449 -0.2221 -0.0606
  171POPE   C2B 2184   7.270   0.477   9.124  0.3169 -0.1391 -0.0278
  171POPE   C3B 2185   7.040   0.405   8.737 -0.0124  0.0942 -0.1579
  171POPE   C4B 2186   6.608   0.286   8.477  0.0574  0.0930  0.3682
  172POPE   NH3 2187  15.451  16.266  10.210 -0.3374  0.3539 -0.2796
  172POPE   PO4 2188  15.020  16.100  10.428  0.0855  0.1341 -0.0808
  172POPE   GL1 2189  15.235  15.849  10.093 -0.0702  0.3917  0.2511
  172POPE   GL2 2190  15.591  15.757  10.063  0.3264  0.0386  0.1044
  172POPE   C1A 2191  15.330  15.910   9.666  0.2738  0.1879  0.0950
  172POPE   D2A 2192  15.466  15.918   9.302  0.0558  0.1104  0.2290
  172POPE   C3A 2193  15.278  15.860   8.951  0.0770  0.0251  0.0650
  172POPE   C4A 2194  15.318  15.896   8.475  0.0807  0.0136  0.1410
  172POPE   C1B 2195  15.761  15.645   9.600  0.1114 -0.0519 -0.5134
  172POPE   C2B 2196  15.688  15.446   9.264  0.1109 -0.0702 -0.0023
  172POPE   C3B 2197  15.614  15.465   8.973 -0.0465 -0.0175 -0.0687
  172POPE   C4B 2198  15.411  15.313   8.587 -0.3587 -0.1955 -0.1101
  173POPE   NH3 2199  15.960   2.658  10.058  0.2292  0.0168  0.2271
  173POPE   PO4 2200  15.495   2.790  10.306 -0.1711 -0.1093  0.1165
  173POPE   GL1 2201  15.510   2.953   9.943  0.1726 -0.0403 -0.0048
  173POPE   GL2 2202  15.667   3.259   9.728 -0.3793 -0.1846 -0.0042
  173POPE   C1A 2203  15.453   2.815   9.549 -0.0306  0.0826  0.3285
  173POPE   D2A 2204  15.547   2.652   9.173 -0.0575  0.0451  0.0444
  173POPE   C3A 2205  15.344   2.800   8.739 -0.3822  0.0873  0.2280
  173POPE   C4A 2206  15.348   2.581   8.409 -0.0324  0.0571 -0.0994
  173POPE   C1B 2207  15.860   3.112   9.308 -0.3349 -0.0040  0.2317
  173POPE   C2B 2208  15.848   2.964   8.874  0.0453  0.3709  0.0846
  173POPE   C3B 2209  15.727   2.917   8.467  0.0290 -0.0697 -0.1149
  173POPE   C4B 2210  15.572   2.832   7.966  0.0252 -0.1861  0.0105
  174POPE   NH3 2211   7.844   5.342   9.872  0.3736 -0.5539 -0.1556
  174POPE   PO4 2212   7.733   4.942  10.034 -0.0359 -0.3882  0.0287
  174POPE   GL1 2213   8.128   4.907   9.711  0.1030 -0.0715 -0.1213
  174POPE   GL2 2214   8.371   4.702   9.770 -0.2935  0.2596  0.1366
  174POPE   C1A 2215   8.147   4.860   9.335  0.0098 -0.1714 -0.0723
  174POPE   D2A 2216   8.163   4.959   8.917  0.1179 -0.1029 -0.1702
  174POPE   C3A 2217   8.395   4.913   8.618 -0.0761 -0.4167  0.2533
  174POPE   C4A 2218   8.489   4.873   8.244 -0.0349 -0.1995  0.2995
  174POPE   C1B 2219   8.479   4.500   9.388  0.0175  0.1454  0.1383
  174POPE   C2B 2220   8.562   4.503   8.916  0.0444 -0.2733 -0.1573
  174POPE   C3B 2221   8.593   4.423   8.429  0.2662  0.1606 -0.3455
  174POPE   C4B 2222   8.393   4.466   7.971 -0.4388 -0.1037 -0.0781
  175POPE   NH3 2223   1.814  10.678  10.508  0.0275 -0.3696  0.0782
  175POPE   PO4 2224   2.250  10.584  10.437 -0.0205 -0.0535  0.1815
  175POPE   GL1 2225   2.328  10.327  10.127 -0.3050  0.2413 -0.1134
  175POPE   GL2 2226   2.574  10.147  10.075  0.2087  0.1045  0.3759
  175POPE   C1A 2227   2.356  10.128   9.606 -0.2418  0.0815 -0.1811
  175POPE   D2A 2228   2.406  10.054   9.284  0.0749  0.2857  0.0207
  175POPE   C3A 2229   2.481   9.882   8.885  0.0873  0.0156 -0.0349
  175POPE   C4A 2230   2.850   9.637   8.674  0.3116  0.0528 -0.0514
  175POPE   C1B 2231   2.894  10.250   9.703  0.3204 -0.1385  0.1604
  175POPE   C2B 2232   2.868  10.030   9.365 -0.1913 -0.4255 -0.0442
  175POPE   C3B 2233   2.968   9.883   9.103  0.3401  0.0227 -0.1299
  175POPE   C4B 2234   3.047   9.459   9.099  0.1996 -0.2240 -0.0297
  176POPE   NH3 2235  17.775  11.436  10.756  0.0241 -0.1860  0.0306
  176POPE   PO4 2236  18.113  11.778  10.647  0.5162  0.2430  0.0704
  176POPE   GL1 2237  18.299  11.917  10.342  0.2842 -0.0576 -0.1947
  176POPE   GL2 2238  18.353  11.647  10.173  0.2367  0.0263  0.0701
  176POPE   C1A 2239  18.297  12.277  10.021  0.2164  0.0856  0.0317
  176POPE   D2A 2240  18.280  12.446   9.585 -0.1510 -0.0960 -0.1145
  176POPE   C3A 2241  18.213  12.476   9.153 -0.1145  0.0546 -0.1962
  176POPE   C4A 2242  18.247  12.561   8.712  0.1648 -0.0691 -0.1314
  176POPE   C1B 2243  18.384  11.894   9.731 -0.3316 -0.3593  0.1556
  176POPE   C2B 2244  18.608  12.097   9.319 -0.0816  0.0014  0.3146
  176POPE   C3B 2245  18.484  12.097   8.881  0.1443 -0.1319 -0.0886
  176POPE   C4B 2246  18.388  11.848   8.499  0.1631 -0.3448 -0.1657
  177POPE   NH3 2247  12.911   2.823   9.780 -0.0426  0.3259  0.0319
  177POPE   PO4 2248  13.030   3.179   9.978  0.0475 -0.1647  0.1328
  177POPE   GL1 2249  12.925   3.310   9.582  0.2762 -0.2691 -0.2316
  177POPE   GL2 2250  12.748   3.678   9.513  0.0310 -0.2734  0.0021
  177POPE   C1A 2251  13.072   3.360   9.292  0.1602  0.1826  0.2072
  177POPE   D2A 2252  12.962   3.450   8.862 -0.2382 -0.1574 -0.1359
  177POPE   C3A 2253  12.648   3.488   8.496 -0.1034 -0.1493 -0.0286
  177POPE   C4A 2254  12.532   3.778   8.116  0.1412 -0.0501 -0.0282
  177POPE   C1B 2255  12.831   3.861   9.067  0.2385 -0.2195 -0.1346
  177POPE   C2B 2256  12.722   4.009   8.662 -0.0516 -0.1950 -0.0629
  177POPE   C3B 2257  12.897   4.058   8.318 -0.0009 -0.0470 -0.1636
  177POPE   C4B 2258  13.055   4.394   8.034 -0.1007  0.2987  0.0419
  178POPE   NH3 2259  11.675   7.121  10.130 -0.2389  0.0560  0.1531
  178POPE   PO4 2260  11.515   6.760  10.330  0.0121  0.1630 -0.1260
  178POPE   GL1 2261  11.164   6.471  10.108  0.1282 -0.1795 -0.0313
  178POPE   GL2 2262  11.282   6.392   9.905 -0.2493  0.2047  0.2049
  178POPE   C1A 2263  10.801   6.208   9.989 -0.2763 -0.1739 -0.3062
  178POPE   D2A 2264  10.442   5.924  10.046  0.2320 -0.0771 -0.1710
  178POPE   C3A 2265  10.281   5.488   9.918  0.0432  0.2049  0.0919
  178POPE   C4A 2266  10.445   5.136   9.619 -0.0644 -0.0166 -0.3467
  178POPE   C1B 2267  11.097   6.480   9.593  0.1934 -0.3036 -0.1228
  178POPE   C2B 2268  11.064   6.691   9.200 -0.2033 -0.0859 -0.1229
  178POPE   C3B 2269  11.151   7.081   8.899  0.2810  0.0289 -0.2349
  178POPE   C4B 2270  11.092   7.376   8.516 -0.0209  0.3146 -0.2342
  179POPE   NH3 2271   6.013  14.750  10.373  0.0247 -0.0674 -0.0491
  179POPE   PO4 2272   5.850  14.345  10.349  0.1700  0.1327 -0.1399
  179POPE   GL1 2273   5.807  14.429   9.942 -0.1680 -0.1129  0.2838
  179POPE   GL2 2274   5.863  14.713   9.851 -0.1606 -0.0025  0.0651
  179POPE   C1A 2275   5.744  14.400   9.452  0.3191  0.2961 -0.1102
  179POPE   D2A 2276   5.841  14.316   9.038 -0.0457 -0.2130 -0.0773
  179POPE   C3A 2277   5.739  14.288   8.704  0.1762  0.1651  0.0897
  179POPE   C4A 2278   5.571  14.477   8.282  0.0520 -0.1110  0.2550
  179POPE   C1B 2279   6.055  14.875   9.492  0.1473  0.0116 -0.0197
  179POPE   C2B 2280   6.004  14.924   9.171  0.2834  0.3656 -0.0047
  179POPE   C3B 2281   5.956  14.745   8.823  0.0225  0.1228 -0.2137
  179POPE   C4B 2282   6.193  14.897   8.447 -0.1611 -0.0905 -0.1204
  180POPE   NH3 2283  16.401  10.533  10.278  0.4295  0.0378  0.1983
  180POPE   PO4 2284  16.501  11.093  10.313  0.2235  0.2622  0.1382
  180POPE   GL1 2285  16.616  11.406   9.930  0.0377  0.0054  0.5134
  180POPE   GL2 2286  16.938  11.427   9.911 -0.0177  0.0461 -0.1707
  180POPE   C1A 2287  16.670  11.695   9.548  0.1696 -0.0321 -0.0589
  180POPE   D2A 2288  16.899  11.613   9.208  0.2311  0.1734  0.0365
  180POPE   C3A 2289  17.162  11.865   9.090 -0.3354 -0.1600  0.0236
  180POPE   C4A 2290  17.454  12.114   9.128  0.2885 -0.0251 -0.2752
  180POPE   C1B 2291  16.978  11.168   9.650 -0.1980 -0.1287  0.0029
  180POPE   C2B 2292  16.740  11.093   9.237  0.0340  0.1549 -0.0283
  180POPE   C3B 2293  16.728  10.982   8.795  0.0020 -0.0805  0.0789
  180POPE   C4B 2294  16.621  10.761   8.561  0.3005  0.0925  0.0968
  181POPE   NH3 2295  17.891  13.868  10.545  0.0720 -0.1665 -0.2001
  181POPE   PO4 2296  17.970  14.188  10.315  0.0177  0.1360  0.0017
  181POPE   GL1 2297  17.764  14.211   9.965  0.0305  0.0250  0.1362
  181POPE   GL2 2298  17.426  14.379   9.901  0.0531  0.0471  0.0514
  181POPE   C1A 2299  17.828  14.125   9.542  0.2114 -0.3065  0.1006
  181POPE   D2A 2300  17.858  13.912   9.174  0.0365 -0.1557  0.1125
  181POPE   C3A 2301  18.134  13.978   8.761  0.0478 -0.0197  0.1227
  181POPE   C4A 2302  18.386  14.064   8.349 -0.0835 -0.2115  0.0107
  181POPE   C1B 2303  17.358  14.256   9.439  0.1841  0.1517  0.0185
  181POPE   C2B 2304  17.174  14.218   9.025  0.1399 -0.2336 -0.1276
  181POPE   C3B 2305  17.171  14.289   8.627 -0.2201  0.2120 -0.0557
  181POPE   C4B 2306  17.212  14.342   8.222  0.2221 -0.3314 -0.0359
  182POPE   NH3 2307   7.912  15.843  10.244 -0.0418 -0.1417 -0.2565
  182POPE   PO4 2308   8.068  15.405  10.126  0.2422  0.0967  0.3197
  182POPE   GL1 2309   7.723  15.468   9.843 -0.0949  0.0406  0.1229
  182POPE   GL2 2310   7.639  15.114   9.701 -0.0438 -0.0067 -0.1010
  182POPE   C1A 2311   7.543  15.646   9.483  0.1568 -0.0842  0.2135
  182POPE   D2A 2312   7.454  15.592   9.005  0.2261  0.1849  0.2991
  182POPE   C3A 2313   7.641  15.844   8.819  0.0821 -0.2195  0.1854
  182POPE   C4A 2314   7.953  15.919   9.270 -0.0222 -0.0620  0.0525
  182POPE   C1B 2315   7.391  15.177   9.306  0.0216 -0.1297  0.0817
  182POPE   C2B 2316   7.223  15.178   8.881 -0.0646  0.0113 -0.0986
  182POPE   C3B 2317   7.177  15.376   8.527 -0.1183 -0.0020 -0.1849
  182POPE   C4B 2318   7.008  15.406   8.125 -0.3411  0.1909  0.0514
  183POPE   NH3 2319  13.893  12.824  10.202 -0.2085 -0.2541 -0.1101
  183POPE   PO4 2320  13.754  13.305  10.337 -0.0116 -0.1837  0.2565
  183POPE   GL1 2321  13.645  13.173   9.909  0.1996 -0.3260 -0.0742
  183POPE   GL2 2322  13.625  13.529   9.820  0.5287 -0.2110 -0.1347
  183POPE   C1A 2323  13.526  13.068   9.522 -0.1176 -0.1400 -0.1801
  183POPE   D2A 2324  13.481  13.084   9.073  0.1420  0.1811 -0.1197
  183POPE   C3A 2325  13.483  13.374   8.645 -0.1080  0.0691 -0.0058
  183POPE   C4A 2326  13.520  13.752   8.352 -0.3098  0.0796 -0.2579
  183POPE   C1B 2327  13.701  13.892   9.605  0.0706  0.0096  0.0296
  183POPE   C2B 2328  13.655  13.940   9.218 -0.1947  0.0231 -0.1013
  183POPE   C3B 2329  13.743  13.818   8.821 -0.0317  0.0210  0.1491
  183POPE   C4B 2330  14.234  13.757   8.660 -0.1737 -0.0610  0.2641
  184POPE   NH3 2331   0.601   7.213  10.690  0.0885 -0.0351 -0.0204
  184POPE   PO4 2332   0.897   6.942  10.546  0.1704  0.0089 -0.0263
  184POPE   GL1 2333   0.999   6.850  10.171 -0.1763  0.0759 -0.0655
  184POPE   GL2 2334   0.878   6.618  10.090 -0.0872  0.1326 -0.0143
  184POPE   C1A 2335   1.370   6.797   9.751 -0.1615  0.0013  0.2713
  184POPE   D2A 2336   1.510   6.630   9.325 -0.2889 -0.0074 -0.2859
  184POPE   C3A 2337   1.439   6.810   9.050  0.2310 -0.1257 -0.0477
  184POPE   C4A 2338   1.423   7.000   8.684 -0.0042  0.0059  0.1529
  184POPE   C1B 2339   0.771   6.950   9.718  0.0946 -0.1368  0.3415
  184POPE   C2B 2340   1.086   7.002   9.371 -0.1790  0.1158  0.0353
  184POPE   C3B 2341   0.929   7.027   8.859 -0.1232  0.0940 -0.0591
  184POPE   C4B 2342   0.845   7.322   8.502  0.0345  0.2835 -0.0584
  185POPE   NH3 2343  14.326  11.217  10.217  0.1625  0.4751  0.0935
  185POPE   PO4 2344  14.712  11.410  10.179 -0.1791  0.0616  0.4726
  185POPE   GL1 2345  14.558  11.457   9.814 -0.0113 -0.1729  0.0303
  185POPE   GL2 2346  14.656  11.629   9.678 -0.0381 -0.0087  0.1990
  185POPE   C1A 2347  14.254  11.525   9.482 -0.0361  0.0621  0.2963
  185POPE   D2A 2348  14.292  11.126   9.207 -0.0978  0.2492 -0.0418
  185POPE   C3A 2349  14.502  11.178   8.855  0.1733 -0.3607  0.0138
  185POPE   C4A 2350  14.696  10.862   8.602  0.1374  0.0936 -0.0430
  185POPE   C1B 2351  14.718  11.433   9.276  0.0153  0.4839  0.0341
  185POPE   C2B 2352  15.005  11.380   8.934 -0.1679  0.0800  0.1726
  185POPE   C3B 2353  14.842  11.349   8.550 -0.3278  0.3187 -0.1671
  185POPE   C4B 2354  14.522  11.231   8.292  0.1005 -0.0469  0.0214
  186POPE   NH3 2355   6.754   4.621   9.939 -0.0713  0.0216 -0.1518
  186POPE   PO4 2356   6.733   5.030   9.962 -0.0651  0.1128 -0.1350
  186POPE   GL1 2357   6.932   5.169   9.567 -0.0687 -0.2197  0.0289
  186POPE   GL2 2358   6.904   4.855   9.470 -0.3020 -0.1875 -0.2752
  186POPE   C1A 2359   6.854   5.275   9.183  0.0685  0.0653 -0.5081
  186POPE   D2A 2360   6.892   5.282   8.833  0.2610 -0.1681 -0.2485
  186POPE   C3A 2361   6.674   5.532   8.538 -0.2158  0.2778 -0.4158
  186POPE   C4A 2362   6.357   5.810   8.277  0.3187 -0.3402  0.2046
  186POPE   C1B 2363   7.075   4.840   9.151  0.2262  0.0074  0.0028
  186POPE   C2B 2364   7.310   5.008   8.708  0.2613  0.1024 -0.0630
  186POPE   C3B 2365   7.338   5.073   8.226  0.0834  0.0799  0.2102
  186POPE   C4B 2366   7.130   4.871   7.957 -0.2244 -0.0896 -0.0535
  187POPE   NH3 2367   0.472  12.551  10.468  0.1263  0.0284  0.2045
  187POPE   PO4 2368   0.419  12.889  10.283  0.2510 -0.0636  0.0678
  187POPE   GL1 2369   0.275  12.741   9.852 -0.1842 -0.0288 -0.3947
  187POPE   GL2 2370   0.099  12.944   9.894  0.1414 -0.0991 -0.0355
  187POPE   C1A 2371   0.291  12.950   9.386 -0.1348 -0.3695  0.1014
  187POPE   D2A 2372   0.279  12.985   9.058  0.0906 -0.1535  0.2258
  187POPE   C3A 2373   0.418  12.924   8.678 -0.0293 -0.0004 -0.0444
  187POPE   C4A 2374   0.286  12.751   8.349 -0.1813  0.1003 -0.0607
  187POPE   C1B 2375  -0.116  12.926   9.615  0.0268  0.0743  0.2955
  187POPE   C2B 2376  -0.200  12.973   9.124  0.2030 -0.2008  0.0894
  187POPE   C3B 2377  -0.419  12.979   8.764  0.0923 -0.0704 -0.3038
  187POPE   C4B 2378  -0.466  13.297   8.355 -0.3085  0.0212  0.2693
  188POPE   NH3 2379   3.432  15.804  10.626 -0.2349 -0.0467 -0.1488
  188POPE   PO4 2380   3.226  15.319  10.668  0.0880 -0.1265 -0.0651
  188POPE   GL1 2381   2.961  15.378  10.331  0.1054 -0.0816 -0.0014
  188POPE   GL2 2382   2.723  15.104  10.363  0.1066 -0.3898  0.2254
  188POPE   C1A 2383   2.859  15.311   9.905  0.0027  0.1534 -0.1047
  188POPE   D2A 2384   3.006  14.937   9.640 -0.0567  0.2176 -0.0534
  188POPE   C3A 2385   3.236  14.928   9.335  0.0921 -0.0151  0.0365
  188POPE   C4A 2386   3.429  14.574   8.901 -0.0771 -0.0786  0.3599
  188POPE   C1B 2387   2.724  14.804  10.007  0.3371 -0.0975 -0.2054
  188POPE   C2B 2388   2.423  14.484   9.910 -0.0311  0.1001  0.2507
  188POPE   C3B 2389   2.268  14.220   9.605 -0.1778  0.0843 -0.1179
  188POPE   C4B 2390   2.506  14.228   9.213  0.2075  0.1502  0.1085
  189POPE   NH3 2391   3.956   7.846  10.604  0.0794  0.1100  0.5169
  189POPE   PO4 2392   4.157   8.060  10.362 -0.2799 -0.3043  0.2516
  189POPE   GL1 2393   4.373   8.060  10.017 -0.1018  0.1882  0.1459
  189POPE   GL2 2394   4.156   8.290   9.840 -0.1060 -0.4762  0.1324
  189POPE   C1A 2395   4.611   8.182   9.646 -0.1619  0.3061 -0.2199
  189POPE   D2A 2396   4.813   8.286   9.199  0.1278  0.0190 -0.0771
  189POPE   C3A 2397   4.972   8.104   8.905 -0.0810  0.0159  0.1103
  189POPE   C4A 2398   5.182   7.979   8.514  0.1155 -0.1767  0.0769
  189POPE   C1B 2399   4.194   8.530   9.486 -0.1551  0.2649  0.2608
  189POPE   C2B 2400   4.221   8.546   9.088 -0.1298  0.3071  0.0284
  189POPE   C3B 2401   4.524   8.560   8.822  0.0431  0.0228  0.2404
  189POPE   C4B 2402   4.872   8.494   8.580  0.0102 -0.1844 -0.0842
  190POPE   NH3 2403  12.891   7.645   9.968  0.3103  0.0087 -0.0837
  190POPE   PO4 2404  12.617   7.316   9.899  0.1407 -0.0545 -0.4199
  190POPE   GL1 2405  12.626   7.254   9.424  0.0666  0.1788 -0.2217
  190POPE   GL2 2406  12.453   7.581   9.404 -0.0693 -0.0378  0.1793
  190POPE   C1A 2407  12.351   7.137   9.089  0.0139 -0.0826  0.2044
  190POPE   D2A 2408  12.455   7.238   8.684 -0.0456  0.1591 -0.0883
  190POPE   C3A 2409  12.159   7.217   8.373  0.1090 -0.0607  0.2352
  190POPE   C4A 2410  11.870   6.984   8.171 -0.0201 -0.0618 -0.2905
  190POPE   C1B 2411  12.629   7.577   9.018 -0.1643  0.3176  0.0875
  190POPE   C2B 2412  12.871   7.570   8.679 -0.1357 -0.0874  0.1321
  190POPE   C3B 2413  13.179   7.253   8.388 -0.1578  0.0441 -0.0787
  190POPE   C4B 2414  13.563   7.171   8.153 -0.1871  0.0406 -0.2005
  191POPE   NH3 2415   8.686  17.654   9.745 -0.0457  0.0706 -0.1426
  191POPE   PO4 2416   8.229  17.649   9.881  0.0447 -0.1943  0.1041
  191POPE   GL1 2417   8.285  17.558   9.504  0.2156  0.0759  0.2005
  191POPE   GL2 2418   8.088  17.374   9.355  0.1247 -0.0655  0.3445
  191POPE   C1A 2419   8.217  17.761   9.086 -0.2687 -0.0269 -0.1597
  191POPE   D2A 2420   8.287  17.874   8.633 -0.1872  0.3114 -0.0914
  191POPE   C3A 2421   8.419  17.631   8.262  0.1621 -0.1619  0.1496
  191POPE   C4A 2422   8.065  17.341   7.983  0.3769 -0.0052 -0.2350
  191POPE   C1B 2423   8.082  17.320   8.852  0.2236  0.1395  0.0312
  191POPE   C2B 2424   7.990  17.507   8.492  0.2855  0.0206  0.2659
  191POPE   C3B 2425   7.865  17.843   8.210 -0.0234  0.0444  0.0755
  191POPE   C4B 2426   7.775  17.840   7.697 -0.0283 -0.3084 -0.1060
  192POPE   NH3 2427   8.883   0.880  10.352 -0.0615 -0.0898 -0.0816
  192POPE   PO4 2428   9.260   1.181  10.429  0.0093 -0.0329  0.1145
  192POPE   GL1 2429   9.143   1.049   9.935  0.0944  0.5053 -0.1749
  192POPE   GL2 2430   8.873   1.140   9.850 -0.0409  0.0846 -0.1215
  192POPE   C1A 2431   9.318   1.205   9.506  0.1158  0.1368 -0.2646
  192POPE   D2A 2432   9.392   1.238   9.085 -0.1022 -0.0109 -0.1055
  192POPE   C3A 2433   9.809   1.258   8.928  0.2604 -0.0235  0.1972
  192POPE   C4A 2434  10.119   1.110   8.690  0.4982  0.0188  0.0410
  192POPE   C1B 2435   8.961   0.899   9.466 -0.0245 -0.3140 -0.1616
  192POPE   C2B 2436   8.913   0.972   8.980 -0.3366  0.1729 -0.2962
  192POPE   C3B 2437   9.091   1.018   8.590  0.0596  0.1478 -0.0612
  192POPE   C4B 2438   9.511   0.866   8.305 -0.1316  0.1608 -0.0297
  193POPE   NH3 2439   5.147  15.024  10.309 -0.2276  0.1497 -0.1702
  193POPE   PO4 2440   5.491  14.763  10.211 -0.3191 -0.0407  0.2521
  193POPE   GL1 2441   5.263  14.648   9.932 -0.0446  0.0075  0.1782
  193POPE   GL2 2442   5.271  14.284  10.027  0.2798 -0.0784 -0.3287
  193POPE   C1A 2443   5.333  14.426   9.607 -0.1271  0.0705 -0.0505
  193POPE   D2A 2444   5.150  14.411   9.301 -0.2615  0.1408  0.0950
  193POPE   C3A 2445   5.318  14.236   9.044  0.2145  0.1201  0.0644
  193POPE   C4A 2446   5.286  14.209   8.523 -0.1113  0.0092  0.0327
  193POPE   C1B 2447   5.047  13.938   9.831 -0.3279 -0.0742 -0.1681
  193POPE   C2B 2448   5.090  13.945   9.488  0.1574  0.2660  0.3417
  193POPE   C3B 2449   5.042  13.858   9.145 -0.0506  0.1137  0.0649
  193POPE   C4B 2450   4.913  14.025   8.825 -0.1592  0.0639 -0.0222
  194POPE   NH3 2451   0.608  10.271  10.454 -0.1511 -0.1888  0.2587
  194POPE   PO4 2452   0.234  10.198  10.477  0.0320  0.1674 -0.2170
  194POPE   GL1 2453  -0.095  10.440  10.265  0.0508  0.0655  0.0394
  194POPE   GL2 2454  -0.444  10.449  10.353  0.3791  0.0745 -0.0023
  194POPE   C1A 2455  -0.049  10.563   9.765 -0.3299  0.3624 -0.1431
  194POPE   D2A 2456  -0.112  10.713   9.239  0.0205  0.1294 -0.0789
  194POPE   C3A 2457  -0.037  10.400   8.945 -0.1500 -0.1134  0.0825
  194POPE   C4A 2458  -0.374  10.405   8.509  0.0331 -0.5784  0.2522
  194POPE   C1B 2459  -0.512  10.316   9.924 -0.0182 -0.0505  0.0024
  194POPE   C2B 2460  -0.527  10.485   9.417 -0.0374  0.5375 -0.2698
  194POPE   C3B 2461  -0.558  10.610   8.989  0.4565  0.0719 -0.0599
  194POPE   C4B 2462  -0.461  10.855   8.765 -0.1208  0.0662  0.1254
  195POPE   NH3 2463  10.577  13.795  10.476  0.4019 -0.1385 -0.0584
  195POPE   PO4 2464  11.019  13.558  10.452  0.2383 -0.2585  0.1879
  195POPE   GL1 2465  11.305  13.589  10.049  0.0441  0.1433 -0.3871
  195POPE   GL2 2466  11.638  13.420   9.974 -0.4650  0.1070 -0.1141
  195POPE   C1A 2467  11.271  13.723   9.500 -0.2942  0.0081 -0.1917
  195POPE   D2A 2468  11.508  13.663   9.205  0.0572  0.0667  0.0399
  195POPE   C3A 2469  11.692  13.782   8.798  0.1098 -0.1397 -0.1868
  195POPE   C4A 2470  11.658  13.821   8.319 -0.1864  0.1894 -0.0189
  195POPE   C1B 2471  11.903  13.486   9.514 -0.1366  0.2302 -0.2194
  195POPE   C2B 2472  12.059  13.411   9.165  0.3859  0.1178  0.0696
  195POPE   C3B 2473  11.995  13.470   8.618  0.1524  0.0756  0.1098
  195POPE   C4B 2474  12.087  13.507   8.245 -0.2441  0.1115  0.0603
  196POPE   NH3 2475   3.212   8.285  10.765 -0.0077  0.0198 -0.4648
  196POPE   PO4 2476   2.847   8.188  10.568  0.0921  0.0030 -0.1036
  196POPE   GL1 2477   2.880   7.869  10.244  0.0205 -0.2449  0.3115
  196POPE   GL2 2478   2.644   7.657  10.049 -0.0326  0.3320 -0.2643
  196POPE   C1A 2479   2.913   7.906   9.687  0.0850 -0.1249  0.0334
  196POPE   D2A 2480   2.893   7.758   9.268 -0.4734  0.0287  0.0925
  196POPE   C3A 2481   2.870   8.123   8.935 -0.0123 -0.0594  0.1845
  196POPE   C4A 2482   2.821   8.386   8.451  0.0051  0.0891 -0.0215
  196POPE   C1B 2483   2.503   7.659   9.699 -0.2317  0.1322 -0.1835
  196POPE   C2B 2484   2.413   7.821   9.252 -0.0563 -0.1691 -0.0127
  196POPE   C3B 2485   2.407   7.972   8.910 -0.4003  0.0035  0.0367
  196POPE   C4B 2486   2.311   8.077   8.512  0.0760 -0.1357  0.0039
  197POPE   NH3 2487  14.741  15.196  10.614 -0.0761  0.0492  0.2073
  197POPE   PO4 2488  15.125  15.134  10.683  0.0594  0.3681 -0.0515
  197POPE   GL1 2489  15.262  15.111  10.244  0.0877  0.1395 -0.0117
  197POPE   GL2 2490  15.055  14.889   9.963 -0.0415 -0.0869  0.0048
  197POPE   C1A 2491  15.317  15.311   9.806  0.1803 -0.2310 -0.0375
  197POPE   D2A 2492  15.280  15.086   9.431 -0.1589  0.6195 -0.4354
  197POPE   C3A 2493  15.672  14.979   9.088 -0.0576  0.1551  0.0293
  197POPE   C4A 2494  15.849  14.582   8.880 -0.1918  0.1010  0.0153
  197POPE   C1B 2495  14.955  14.724   9.542  0.1852 -0.1505  0.1725
  197POPE   C2B 2496  15.011  14.776   9.101 -0.2570 -0.0992  0.0303
  197POPE   C3B 2497  15.344  14.627   8.829 -0.1897 -0.2092 -0.2245
  197POPE   C4B 2498  15.560  14.723   8.489  0.2897  0.0608 -0.0172
  198YOPE   NH3 2499  10.568  13.118  10.449  0.1675 -0.0040 -0.0938
  198YOPE   PO4 2500  10.353  13.024  10.116 -0.1507  0.0480  0.0831
  198YOPE   GL1 2501  10.400  13.018   9.736  0.2632 -0.0807 -0.1370
  198YOPE   GL2 2502  10.636  13.007   9.551 -0.0363  0.0784 -0.0261
  198YOPE   C1A 2503  10.378  13.184   9.220 -0.0958  0.0843  0.4000
  198YOPE   D2A 2504  10.383  13.008   8.741 -0.0751  0.1585  0.0913
  198YOPE   C3A 2505  10.321  12.582   8.511  0.0091 -0.2461  0.1596
  198YOPE   C4A 2506  10.252  12.389   8.059  0.1485  0.1146  0.2048
  198YOPE   C1B 2507  10.879  12.929   9.139  0.2097  0.0624  0.0449
  198YOPE   C2B 2508  11.274  12.870   8.930  0.1987  0.0395  0.4309
  198YOPE   D3B 2509  11.332  12.940   8.495 -0.0549  0.0221 -0.1277
  198YOPE   C4B 2510  11.126  12.866   8.058 -0.1474 -0.0621  0.0788
  199YOPE   NH3 2511  15.607   3.436  10.199  0.1030 -0.0533 -0.0998
  199YOPE   PO4 2512  15.866   3.874  10.394 -0.1969  0.2244  0.1388
  199YOPE   GL1 2513  15.974   3.701   9.946 -0.0627  0.1776  0.0145
  199YOPE   GL2 2514  15.651   3.773   9.743 -0.0085  0.1414 -0.0760
  199YOPE   C1A 2515  16.086   3.540   9.515 -0.2738  0.0342 -0.1027
  199YOPE   D2A 2516  16.295   3.829   9.177 -0.1783  0.0547 -0.4321
  199YOPE   C3A 2517  16.267   3.910   8.754 -0.3288 -0.0182  0.2319
  199YOPE   C4A 2518  15.943   4.040   8.636 -0.0023  0.0206  0.0524
  199YOPE   C1B 2519  15.739   3.796   9.312  0.2296  0.2754  0.3021
  199YOPE   C2B 2520  15.889   3.533   8.941  0.2373  0.1260 -0.0446
  199YOPE   D3B 2521  15.832   3.459   8.457  0.3569  0.3217  0.0811
  199YOPE   C4B 2522  15.797   3.292   8.017 -0.0054 -0.4120  0.0864
  200YOPE   NH3 2523  11.359   0.334  10.038 -0.2281  0.0091 -0.0331
  200YOPE   PO4 2524  11.487  -0.096  10.020 -0.0848  0.0630  0.0434
  200YOPE   GL1 2525  11.575  -0.347   9.673  0.0446  0.2798 -0.2190
  200YOPE   GL2 2526  11.483  -0.242   9.437  0.0664 -0.0250  0.0773
  200YOPE   C1A 2527  11.930  -0.391   9.255 -0.1484 -0.1059 -0.2657
  200YOPE   D2A 2528  12.143  -0.761   9.143 -0.0940 -0.1495  0.2242
  200YOPE   C3A 2529  12.194  -0.855   8.751  0.1543 -0.1611  0.2454
  200YOPE   C4A 2530  12.178  -0.846   8.257  0.2093  0.0211  0.0238
  200YOPE   C1B 2531  11.391  -0.372   9.067  0.2318 -0.3223 -0.2196
  200YOPE   C2B 2532  11.490  -0.319   8.623 -0.0305 -0.1217 -0.0258
  200YOPE   D3B 2533  11.489  -0.304   8.199  0.2989  0.0900  0.1746
  200YOPE   C4B 2534  11.267   0.097   7.841  0.0307 -0.2289 -0.0776
  201YOPE   NH3 2535  14.481   4.331   9.761 -0.0802 -0.1456 -0.0907
  201YOPE   PO4 2536  14.487   4.764   9.863 -0.1574  0.0018 -0.0762
  201YOPE   GL1 2537  14.150   4.689   9.506  0.2534 -0.0695  0.2067
  201YOPE   GL2 2538  14.064   4.412   9.481  0.1017  0.2006  0.0411
  201YOPE   C1A 2539  14.189   4.899   9.100  0.0379  0.0357 -0.0089
  201YOPE   D2A 2540  14.271   5.081   8.641 -0.0278  0.0880 -0.0857
  201YOPE   C3A 2541  14.004   5.170   8.295 -0.1455  0.1138 -0.0695
  201YOPE   C4A 2542  13.980   5.347   7.946  0.0754  0.1465  0.0518
  201YOPE   C1B 2543  14.008   4.395   9.052  0.0111  0.0305  0.1387
  201YOPE   C2B 2544  14.103   4.627   8.668 -0.2353  0.0925  0.3414
  201YOPE   D3B 2545  14.294   4.658   8.167  0.6076 -0.0431 -0.1140
  201YOPE   C4B 2546  14.411   5.048   7.906  0.0462 -0.0814 -0.0241
  202YOPE   NH3 2547  11.876  14.413  10.256 -0.0620  0.0199  0.1345
  202YOPE   PO4 2548  11.460  14.508  10.134  0.4099  0.0970 -0.1319
  202YOPE   GL1 2549  11.249  14.649   9.786  0.2106  0.0193 -0.0297
  202YOPE   GL2 2550  11.337  14.862   9.686  0.2974  0.0594  0.2187
  202YOPE   C1A 2551  10.816  14.541   9.558  0.0984  0.1552 -0.0681
  202YOPE   D2A 2552  10.844  14.399   9.216 -0.0235  0.0278  0.0340
  202YOPE   C3A 2553  10.820  14.289   8.819 -0.3678  0.0276  0.0373
  202YOPE   C4A 2554  10.692  14.317   8.377 -0.0735 -0.1229 -0.1745
  202YOPE   C1B 2555  11.091  14.874   9.238  0.1327 -0.1459  0.0429
  202YOPE   C2B 2556  11.058  14.728   8.912  0.1051  0.0810  0.0958
  202YOPE   D3B 2557  11.271  14.712   8.454 -0.0424  0.1108 -0.1150
  202YOPE   C4B 2558  11.446  14.657   8.040 -0.1594  0.4482  0.1057
  203YOPE   NH3 2559  13.932  14.822  10.560  0.3923  0.1410 -0.1893
  203YOPE   PO4 2560  13.661  14.536  10.279 -0.1496 -0.0615  0.0635
  203YOPE   GL1 2561  13.745  14.370   9.842 -0.4089  0.1860 -0.0637
  203YOPE   GL2 2562  13.965  14.591   9.674  0.0898 -0.1284  0.0725
  203YOPE   C1A 2563  13.598  14.425   9.373 -0.2082  0.0681  0.0007
  203YOPE   D2A 2564  13.534  14.561   8.954 -0.3471 -0.0683 -0.1176
  203YOPE   C3A 2565  13.804  14.290   8.640  0.5961 -0.0789  0.1322
  203YOPE   C4A 2566  13.958  14.088   8.399 -0.1164  0.0645  0.3635
  203YOPE   C1B 2567  14.075  14.673   9.391 -0.1715 -0.2588 -0.0478
  203YOPE   C2B 2568  14.012  14.719   8.974 -0.0334  0.1462  0.0961
  203YOPE   D3B 2569  13.949  14.786   8.563  0.0834 -0.1159 -0.0858
  203YOPE   C4B 2570  14.289  15.172   8.401  0.0644  0.0078 -0.0082
  204YOPE   NH3 2571  16.751  15.991  10.508 -0.2328 -0.1405  0.3748
  204YOPE   PO4 2572  16.403  15.840  10.470  0.1017  0.1098  0.1629
  204YOPE   GL1 2573  16.494  15.923  10.063 -0.0138  0.2265  0.1677
  204YOPE   GL2 2574  16.741  16.195   9.993 -0.1709  0.0115  0.1605
  204YOPE   C1A 2575  16.468  15.882   9.648 -0.3129  0.0394 -0.0178
  204YOPE   D2A 2576  16.300  15.700   9.356  0.0168 -0.1553  0.1666
  204YOPE   C3A 2577  15.999  15.785   9.072  0.0097 -0.0109 -0.1510
  204YOPE   C4A 2578  15.748  15.922   8.798  0.4849  0.0907 -0.0462
  204YOPE   C1B 2579  16.878  16.156   9.608  0.0029  0.0642  0.0343
  204YOPE   C2B 2580  16.965  16.209   9.182  0.0345  0.0942 -0.2043
  204YOPE   D3B 2581  17.150  16.436   8.868  0.0023  0.0724 -0.0203
  204YOPE   C4B 2582  17.412  16.612   8.566  0.4069  0.0125  0.0603
  205YOPE   NH3 2583   4.967  13.484  10.769  0.0087 -0.0937  0.0788
  205YOPE   PO4 2584   5.184  13.809  10.706 -0.1548 -0.0402 -0.1053
  205YOPE   GL1 2585   5.276  13.876  10.304  0.2690  0.2818 -0.1088
  205YOPE   GL2 2586   5.558  13.920  10.218  0.4298 -0.2081  0.2660
  205YOPE   C1A 2587   5.389  13.555   9.917  0.0069 -0.1072 -0.0879
  205YOPE   D2A 2588   5.310  13.447   9.491 -0.2508  0.2982 -0.2123
  205YOPE   C3A 2589   5.492  13.027   9.364  0.0747 -0.2636  0.3090
  205YOPE   C4A 2590   5.474  12.706   9.061  0.0786 -0.2301  0.2074
  205YOPE   C1B 2591   5.585  14.028   9.738 -0.0356 -0.1346 -0.0858
  205YOPE   C2B 2592   5.564  13.905   9.232 -0.1756  0.2726  0.0004
  205YOPE   D3B 2593   5.516  13.810   8.822 -0.0238  0.1395  0.0247
  205YOPE   C4B 2594   5.749  13.926   8.432  0.4952  0.3119  0.0425
  206YOPE   NH3 2595   1.060   1.436  10.747  0.2299  0.0115  0.1113
  206YOPE   PO4 2596   0.923   1.148  10.525 -0.0369  0.2121  0.1911
  206YOPE   GL1 2597   0.889   0.843  10.299 -0.2019  0.1217 -0.3238
  206YOPE   GL2 2598   0.761   0.545  10.343  0.0333  0.1608 -0.1318
  206YOPE   C1A 2599   0.843   0.723   9.847  0.3741 -0.0209 -0.0726
  206YOPE   D2A 2600   0.833   0.892   9.412  0.0446 -0.1985 -0.1228
  206YOPE   C3A 2601   0.643   0.768   9.124 -0.0711 -0.0627 -0.1151
  206YOPE   C4A 2602   0.976   0.541   8.854 -0.1213 -0.0933 -0.0551
  206YOPE   C1B 2603   1.204   0.446  10.102  0.0101  0.2499  0.0367
  206YOPE   C2B 2604   1.322   0.625   9.754  0.2111 -0.1206 -0.1597
  206YOPE   D3B 2605   1.217   0.581   9.336 -0.0649 -0.0107 -0.0818
  206YOPE   C4B 2606   1.452   0.595   8.927 -0.1114 -0.1658  0.4624
  207YOPE   NH3 2607   9.359   0.721  10.636  0.0424 -0.1122 -0.6252
  207YOPE   PO4 2608   9.216   0.552  10.220 -0.4145  0.1290  0.0935
  207YOPE   GL1 2609   9.384   0.568   9.808  0.1433 -0.2941 -0.1082
  207YOPE   GL2 2610   9.723   0.413   9.646  0.2111  0.0868 -0.4446
  207YOPE   C1A 2611   9.414   0.648   9.357  0.1370 -0.0784  0.0796
  207YOPE   D2A 2612   9.500   0.818   8.809  0.3131 -0.0877 -0.1919
  207YOPE   C3A 2613   9.889   0.636   8.520 -0.0860  0.0354 -0.0346
  207YOPE   C4A 2614  10.270   0.440   8.631  0.3612 -0.1723 -0.1718
  207YOPE   C1B 2615  10.029   0.595   9.498  0.1512  0.1601  0.2058
  207YOPE   C2B 2616  10.357   0.679   9.320 -0.5250 -0.0021 -0.2517
  207YOPE   D3B 2617  10.515   0.853   8.937 -0.2995  0.0150  0.3145
  207YOPE   C4B 2618  10.442   0.824   8.431 -0.0011  0.1461  0.1033
  208YOPE   NH3 2619   7.816  16.574   9.789 -0.1342 -0.1543  0.1876
  208YOPE   PO4 2620   7.592  16.840   9.928  0.2380 -0.1215 -0.1442
  208YOPE   GL1 2621   7.493  16.892   9.504  0.0108 -0.1610 -0.0578
  208YOPE   GL2 2622   7.752  17.037   9.440  0.0780  0.1489  0.0342
  208YOPE   C1A 2623   7.213  17.024   9.259  0.1561 -0.1499  0.0636
  208YOPE   D2A 2624   6.918  17.058   8.904  0.1840  0.2177  0.1503
  208YOPE   C3A 2625   7.036  17.143   8.520  0.0749 -0.1490  0.0560
  208YOPE   C4A 2626   6.943  17.278   8.066 -0.3811  0.1082  0.0133
  208YOPE   C1B 2627   7.621  17.265   9.081  0.0738  0.0622  0.0283
  208YOPE   C2B 2628   7.610  17.182   8.629  0.0821  0.1258 -0.0635
  208YOPE   D3B 2629   7.471  17.192   8.249 -0.0271  0.1858 -0.1734
  208YOPE   C4B 2630   7.577  17.300   7.896  0.2585  0.0713 -0.1583
  209YOPE   NH3 2631  13.301  13.067  10.348  0.3456  0.2130  0.0617
  209YOPE   PO4 2632  13.400  12.716  10.128 -0.2693 -0.0498  0.0399
  209YOPE   GL1 2633  13.592  12.599   9.735  0.0498 -0.0414  0.2474
  209YOPE   GL2 2634  13.263  12.591   9.600 -0.2826 -0.1350 -0.3739
  209YOPE   C1A 2635  13.626  12.605   9.278 -0.2240 -0.2141 -0.1748
  209YOPE   D2A 2636  13.736  12.640   8.857  0.2002  0.0780 -0.1690
  209YOPE   C3A 2637  13.539  12.401   8.500  0.0527 -0.1542 -0.3511
  209YOPE   C4A 2638  13.306  12.303   8.162  0.0407 -0.0328 -0.1756
  209YOPE   C1B 2639  13.062  12.647   9.210  0.0900  0.1064 -0.2066
  209YOPE   C2B 2640  13.224  12.808   8.775  0.2413 -0.0359  0.0122
  209YOPE   D3B 2641  13.467  12.889   8.514 -0.0633  0.1124  0.0322
  209YOPE   C4B 2642  13.702  12.898   8.113 -0.1348  0.0176 -0.2669
  210YOPE   NH3 2643  14.887   5.702   9.982 -0.1513 -0.1230  0.0827
  210YOPE   PO4 2644  15.283   5.694  10.141  0.0386  0.3488  0.0666
  210YOPE   GL1 2645  15.274   5.533   9.731  0.0518 -0.0545 -0.1388
  210YOPE   GL2 2646  15.001   5.677   9.458 -0.1458 -0.0980  0.2655
  210YOPE   C1A 2647  15.212   5.134   9.433 -0.1270 -0.0303 -0.0743
  210YOPE   D2A 2648  15.053   4.681   9.172 -0.0310 -0.0248  0.1755
  210YOPE   C3A 2649  15.131   4.564   8.818  0.0595 -0.1740 -0.2379
  210YOPE   C4A 2650  15.137   4.578   8.394  0.2171 -0.1006  0.2201
  210YOPE   C1B 2651  15.177   5.517   9.076 -0.2154  0.4803 -0.2326
  210YOPE   C2B 2652  15.254   5.431   8.676 -0.0229 -0.1296 -0.0978
  210YOPE   D3B 2653  15.279   5.242   8.202  0.1766  0.1026 -0.0876
  210YOPE   C4B 2654  15.235   5.123   7.806 -0.1486 -0.0128  0.2147
  211YOPE   NH3 2655  11.312   4.509   9.805 -0.3350  0.1862 -0.2767
  211YOPE   PO4 2656  11.392   4.081   9.747  0.1651 -0.2867 -0.0361
  211YOPE   GL1 2657  11.304   4.238   9.295 -0.3085  0.1381  0.1142
  211YOPE   GL2 2658  11.507   4.453   9.230  0.1134  0.1873 -0.1271
  211YOPE   C1A 2659  11.232   4.166   8.859  0.0028 -0.0145 -0.3722
  211YOPE   D2A 2660  11.018   4.009   8.503  0.1056 -0.0957  0.2792
  211YOPE   C3A 2661  10.740   4.202   8.231  0.0692  0.0516  0.0770
  211YOPE   C4A 2662  10.662   4.401   7.952 -0.3450 -0.1043  0.0245
  211YOPE   C1B 2663  11.170   4.649   8.951 -0.3818 -0.3717  0.0060
  211YOPE   C2B 2664  10.941   4.538   8.667  0.0165  0.0277 -0.1084
  211YOPE   D3B 2665  10.767   4.734   8.383  0.0466 -0.2504 -0.1658
  211YOPE   C4B 2666  10.491   4.772   8.225 -0.0058 -0.1182  0.3137
  212YOPE   NH3 2667   8.013   8.480  10.721  0.0442 -0.2131  0.0219
  212YOPE   PO4 2668   7.596   8.357  10.546 -0.3096 -0.0272  0.0031
  212YOPE   GL1 2669   7.568   8.235  10.194  0.0190  0.1694 -0.1897
  212YOPE   GL2 2670   7.328   8.196   9.958 -0.1856 -0.1051  0.1616
  212YOPE   C1A 2671   7.756   8.309   9.850 -0.1651  0.0280  0.1419
  212YOPE   D2A 2672   8.108   8.288   9.531  0.0537 -0.0022  0.1537
  212YOPE   C3A 2673   8.132   8.268   9.133  0.0893 -0.2515  0.0841
  212YOPE   C4A 2674   8.267   8.194   8.700  0.1701 -0.3081  0.1312
  212YOPE   C1B 2675   7.261   8.193   9.562  0.0078  0.0963 -0.2609
  212YOPE   C2B 2676   7.621   8.288   9.225  0.0794  0.1027  0.1554
  212YOPE   D3B 2677   7.761   8.339   8.803 -0.0156 -0.1249 -0.0914
  212YOPE   C4B 2678   7.975   8.444   8.446  0.2240  0.0389 -0.1289
  213YOPE   NH3 2679  11.010   7.830  10.428 -0.2051  0.0574 -0.0237
  213YOPE   PO4 2680  11.260   7.447  10.206 -0.0654 -0.0958  0.0121
  213YOPE   GL1 2681  11.192   7.455   9.790  0.2882  0.1324  0.2805
  213YOPE   GL2 2682  11.495   7.238   9.573  0.0768  0.2780  0.0079
  213YOPE   C1A 2683  11.091   7.664   9.412  0.0164 -0.0559 -0.2916
  213YOPE   D2A 2684  11.052   7.660   8.960 -0.1636 -0.0920  0.0774
  213YOPE   C3A 2685  10.801   7.895   8.743 -0.0207 -0.2245 -0.2150
  213YOPE   C4A 2686  10.696   7.648   8.399 -0.2581 -0.0956  0.0756
  213YOPE   C1B 2687  11.530   7.430   9.133 -0.0001  0.0604  0.0610
  213YOPE   C2B 2688  11.499   7.636   8.723  0.1314 -0.0226  0.0019
  213YOPE   D3B 2689  11.181   7.872   8.415  0.1173  0.0059 -0.2658
  213YOPE   C4B 2690  10.977   8.202   8.274 -0.0747 -0.1411  0.0745
  214YOPE   NH3 2691   4.135  13.762  10.528  0.0122  0.2416 -0.0873
  214YOPE   PO4 2692   3.671  13.687  10.515 -0.1534  0.3645 -0.0027
  214YOPE   GL1 2693   3.845  13.547  10.156 -0.3437  0.1613  0.0320
  214YOPE   GL2 2694   4.023  13.799  10.032  0.0701 -0.0939  0.1741
  214YOPE   C1A 2695   4.020  13.436   9.771 -0.1135  0.0559  0.1999
  214YOPE   D2A 2696   4.274  13.548   9.291  0.0585  0.1099  0.0019
  214YOPE   C3A 2697   4.164  13.244   9.020  0.0192 -0.0309  0.1437
  214YOPE   C4A 2698   4.066  12.920   9.097  0.0343 -0.2226 -0.3064
  214YOPE   C1B 2699   4.163  13.900   9.627 -0.1194  0.2326 -0.1169
  214YOPE   C2B 2700   4.103  13.974   9.146  0.0561 -0.0096  0.0974
  214YOPE   D3B 2701   4.307  13.693   8.820 -0.1843 -0.0198  0.0624
  214YOPE   C4B 2702   4.391  13.376   8.548 -0.1021  0.2061 -0.0614
  215YOPE   NH3 2703   1.436  17.702  10.443 -0.1542 -0.0511 -0.0136
  215YOPE   PO4 2704   1.846  17.670  10.567  0.1597  0.0804  0.2005
  215YOPE   GL1 2705   1.813  17.555  10.133 -0.1344  0.0206 -0.0769
  215YOPE   GL2 2706   1.480  17.444   9.967 -0.2204  0.0196  0.0528
  215YOPE   C1A 2707   1.923  17.563   9.739 -0.1452  0.0128  0.3259
  215YOPE   D2A 2708   1.956  17.771   9.409 -0.1479  0.0244  0.1038
  215YOPE   C3A 2709   1.985  18.162   9.451 -0.3048 -0.0812  0.0035
  215YOPE   C4A 2710   2.238  18.409   9.664 -0.1649  0.3471  0.0505
  215YOPE   C1B 2711   1.547  17.309   9.502 -0.1182 -0.0350  0.0022
  215YOPE   C2B 2712   1.689  17.057   9.097 -0.1598 -0.3762  0.1530
  215YOPE   D3B 2713   1.515  16.806   8.801  0.2972 -0.1150  0.0727
  215YOPE   C4B 2714   1.398  16.536   8.468 -0.1877 -0.2583 -0.1244
  216YOPE   NH3 2715  12.267   7.745   9.850 -0.1268 -0.0658 -0.1203
  216YOPE   PO4 2716  11.958   8.010   9.850 -0.0971  0.0220  0.0043
  216YOPE   GL1 2717  12.069   7.915   9.433 -0.0446  0.0585 -0.1468
  216YOPE   GL2 2718  12.419   8.047   9.518  0.0837 -0.1626 -0.2369
  216YOPE   C1A 2719  12.165   7.950   9.017  0.1250  0.0039 -0.1717
  216YOPE   D2A 2720  11.901   7.912   8.665  0.1911 -0.1346  0.1406
  216YOPE   C3A 2721  12.139   7.925   8.239  0.1291 -0.0507  0.2020
  216YOPE   C4A 2722  12.170   8.032   7.754  0.0255  0.0590 -0.1531
  216YOPE   C1B 2723  12.720   8.149   9.136  0.3194  0.1108  0.0484
  216YOPE   C2B 2724  12.810   8.203   8.694 -0.0559  0.0770 -0.0215
  216YOPE   D3B 2725  12.711   8.525   8.468  0.1569  0.1653 -0.4083
  216YOPE   C4B 2726  12.690   8.949   8.393  0.1053  0.0446  0.2141
  217YOPE   NH3 2727  13.578   6.270  10.087 -0.0039  0.1310 -0.0863
  217YOPE   PO4 2728  13.886   6.568  10.048 -0.1535 -0.0298  0.0622
  217YOPE   GL1 2729  14.267   6.509   9.681 -0.0661  0.0136 -0.0032
  217YOPE   GL2 2730  14.063   6.846   9.629 -0.1161  0.1695 -0.1096
  217YOPE   C1A 2731  14.230   6.433   9.219  0.0610 -0.2096 -0.1343
  217YOPE   D2A 2732  13.982   6.404   8.789  0.2112  0.0379  0.0734
  217YOPE   C3A 2733  13.631   6.088   8.840  0.1736  0.0939 -0.1778
  217YOPE   C4A 2734  13.429   5.949   8.518 -0.1480  0.1347  0.1509
  217YOPE   C1B 2735  13.886   6.808   9.316 -0.2043  0.0121  0.1691
  217YOPE   C2B 2736  13.740   6.885   8.916  0.1780  0.4061  0.2233
  217YOPE   D3B 2737  13.904   6.844   8.504  0.1520  0.0331 -0.2102
  217YOPE   C4B 2738  14.138   6.811   8.164  0.0863 -0.2301 -0.0877
  218YOPE   NH3 2739  11.417  15.070  10.108 -0.0934 -0.0586 -0.1229
  218YOPE   PO4 2740  10.977  14.961  10.028  0.1843  0.1074 -0.0684
  218YOPE   GL1 2741  10.821  15.043   9.677 -0.2291 -0.0702 -0.1117
  218YOPE   GL2 2742  10.774  15.339   9.618  0.1837 -0.1302 -0.1619
  218YOPE   C1A 2743  10.617  14.871   9.222 -0.1544 -0.0962 -0.0694
  218YOPE   D2A 2744  10.606  14.894   8.848 -0.0881 -0.0071 -0.1640
  218YOPE   C3A 2745  10.657  14.829   8.529  0.1894 -0.1572  0.0534
  218YOPE   C4A 2746  10.422  14.989   8.366 -0.0827 -0.1636  0.1128
  218YOPE   C1B 2747  10.855  15.281   9.094  0.1845 -0.1925  0.0667
  218YOPE   C2B 2748  11.017  15.131   8.607  0.0584 -0.1078 -0.2815
  218YOPE   D3B 2749  11.039  15.010   8.147  0.1791 -0.4274 -0.2011
  218YOPE   C4B 2750  11.061  14.899   7.678  0.0704  0.2438 -0.0905
  219YOPE   NH3 2751   1.516   5.303  10.427 -0.1748 -0.1646 -0.0081
  219YOPE   PO4 2752   1.306   5.717  10.209 -0.3901  0.2129 -0.0794
  219YOPE   GL1 2753   1.076   5.752   9.854  0.1223  0.3152  0.2360
  219YOPE   GL2 2754   0.865   5.492   9.686  0.0923 -0.0242 -0.0533
  219YOPE   C1A 2755   1.031   5.836   9.402  0.3887  0.0043 -0.1556
  219YOPE   D2A 2756   1.046   5.982   8.991  0.0507 -0.2103 -0.0058
  219YOPE   C3A 2757   0.745   6.218   8.768 -0.1334  0.1077  0.0678
  219YOPE   C4A 2758   0.418   6.202   8.538  0.0125 -0.2589 -0.2231
  219YOPE   C1B 2759   0.563   5.731   9.890  0.1239  0.0269  0.2060
  219YOPE   C2B 2760   0.204   6.055   9.818 -0.0536 -0.0602  0.1029
  219YOPE   D3B 2761  -0.048   6.296   9.468 -0.1639  0.2533  0.1389
  219YOPE   C4B 2762  -0.351   6.314   9.251  0.0619 -0.1730  0.0089
  220YOPE   NH3 2763   7.772  11.099  10.640  0.2364  0.1280 -0.8319
  220YOPE   PO4 2764   7.247  11.174  10.564  0.0940  0.1830  0.1429
  220YOPE   GL1 2765   7.020  10.865  10.307 -0.3104 -0.0669 -0.0224
  220YOPE   GL2 2766   7.004  10.516  10.255  0.0490 -0.1542 -0.0251
  220YOPE   C1A 2767   6.908  10.790   9.889  0.0288  0.0733 -0.2753
  220YOPE   D2A 2768   6.775  10.959   9.503 -0.0676  0.0418 -0.0437
  220YOPE   C3A 2769   6.463  10.620   9.304 -0.0189  0.3502  0.1689
  220YOPE   C4A 2770   6.494  10.410   8.946 -0.2112  0.0525 -0.2704
  220YOPE   C1B 2771   6.847  10.358   9.997  0.1040  0.2157  0.1728
  220YOPE   C2B 2772   6.752  10.315   9.580  0.0465  0.2383  0.0682
  220YOPE   D3B 2773   6.897  10.198   9.166 -0.1560 -0.2167 -0.1817
  220YOPE   C4B 2774   6.786  10.061   8.743  0.2393 -0.1486  0.0766
  221YOPE   NH3 2775   4.759   4.470   9.991  0.0189  0.3480 -0.0118
  221YOPE   PO4 2776   4.881   4.925  10.024  0.2035  0.1109  0.0473
  221YOPE   GL1 2777   4.724   4.991   9.670  0.2619  0.0131 -0.2390
  221YOPE   GL2 2778   4.985   4.873   9.452  0.2254  0.1404  0.0479
  221YOPE   C1A 2779   4.396   5.215   9.363 -0.1558  0.0697  0.1732
  221YOPE   D2A 2780   4.151   5.180   9.001  0.1697  0.0158 -0.0526
  221YOPE   C3A 2781   4.221   5.378   8.671 -0.0221 -0.0071 -0.0243
  221YOPE   C4A 2782   4.514   5.677   8.383  0.1749  0.0197 -0.0619
  221YOPE   C1B 2783   5.036   4.952   9.030  0.1217  0.0625  0.3997
  221YOPE   C2B 2784   5.150   4.999   8.607 -0.0945  0.1023  0.0285
  221YOPE   D3B 2785   4.970   4.974   8.209  0.2601  0.2620 -0.1733
  221YOPE   C4B 2786   4.758   4.977   7.873  0.2739 -0.0156  0.1586
  222YOPE   NH3 2787  10.219   3.900  10.279  0.0575 -0.4089  0.0162
  222YOPE   PO4 2788  10.570   3.871   9.943 -0.0544 -0.1198 -0.1914
  222YOPE   GL1 2789  10.473   3.821   9.549 -0.5127 -0.0919 -0.0578
  222YOPE   GL2 2790  10.594   3.475   9.613 -0.0109  0.2588 -0.0656
  222YOPE   C1A 2791  10.313   3.741   9.140 -0.3328  0.0339  0.1194
  222YOPE   D2A 2792  10.010   3.743   8.805  0.1597 -0.1973 -0.2310
  222YOPE   C3A 2793  10.044   3.792   8.317 -0.3203  0.1608 -0.0420
  222YOPE   C4A 2794   9.831   3.845   7.946 -0.1213  0.4629  0.1785
  222YOPE   C1B 2795  10.720   3.197   9.289 -0.3325  0.0085  0.0534
  222YOPE   C2B 2796  10.710   3.077   8.868  0.0108  0.1223  0.0112
  222YOPE   D3B 2797  10.585   2.752   8.661 -0.2364 -0.0034 -0.1413
  222YOPE   C4B 2798  10.322   2.516   8.469  0.2752  0.1507 -0.3382
  223YOPE   NH3 2799  17.202   5.814  10.255 -0.0409 -0.1833  0.1073
  223YOPE   PO4 2800  16.964   5.558   9.888 -0.0258  0.2648 -0.2282
  223YOPE   GL1 2801  17.150   5.610   9.546 -0.1842 -0.2176  0.0427
  223YOPE   GL2 2802  17.044   5.841   9.316 -0.2311 -0.2424 -0.0435
  223YOPE   C1A 2803  17.283   5.451   9.165  0.0447 -0.0280 -0.0313
  223YOPE   D2A 2804  17.449   5.441   8.801  0.0964 -0.1796 -0.2806
  223YOPE   C3A 2805  17.361   5.573   8.365  0.1325 -0.3542  0.2865
  223YOPE   C4A 2806  17.541   5.668   8.019 -0.1115  0.2275 -0.1124
  223YOPE   C1B 2807  17.060   5.807   8.888 -0.2128  0.2238 -0.0082
  223YOPE   C2B 2808  16.891   5.874   8.520  0.0837  0.3265 -0.1571
  223YOPE   D3B 2809  16.939   6.195   8.259  0.1571  0.0226  0.0616
  223YOPE   C4B 2810  16.778   6.603   8.060 -0.0224  0.2341 -0.1140
  224YOPE   NH3 2811  18.148  14.662  10.762  0.1991  0.1464  0.0172
  224YOPE   PO4 2812  18.339  14.367  10.577  0.1736  0.0971 -0.0358
  224YOPE   GL1 2813  18.428  14.502  10.143  0.0468 -0.3560 -0.0143
  224YOPE   GL2 2814  18.285  14.369   9.934 -0.0562 -0.0406 -0.0432
  224YOPE   C1A 2815  18.387  14.838   9.925 -0.0395  0.0297 -0.0922
  224YOPE   D2A 2816  18.580  14.897   9.534 -0.3154  0.0063 -0.0303
  224YOPE   C3A 2817  18.352  14.865   9.225  0.0589  0.0692  0.3398
  224YOPE   C4A 2818  18.059  14.861   8.931  0.3236 -0.1882 -0.0501
  224YOPE   C1B 2819  18.262  14.439   9.493  0.2203 -0.0259  0.0356
  224YOPE   C2B 2820  18.155  14.379   9.067  0.2959 -0.3130 -0.0780
  224YOPE   D3B 2821  17.984  14.453   8.689  0.3751  0.1970  0.2161
  224YOPE   C4B 2822  18.082  14.528   8.251 -0.1887 -0.0194 -0.0820
  225YOPE   NH3 2823   3.788   2.209  10.567  0.1951  0.2337  0.0347
  225YOPE   PO4 2824   3.401   1.996  10.579 -0.1988 -0.2428 -0.4050
  225YOPE   GL1 2825   3.424   1.936  10.143 -0.2493  0.2077 -0.1962
  225YOPE   GL2 2826   3.468   1.688   9.997 -0.0888 -0.2733  0.0371
  225YOPE   C1A 2827   3.327   2.061   9.752 -0.0765  0.2190 -0.1834
  225YOPE   D2A 2828   3.467   2.384   9.534  0.1355  0.0150 -0.1566
  225YOPE   C3A 2829   3.365   2.437   9.090 -0.0215  0.0081 -0.0258
  225YOPE   C4A 2830   3.422   2.116   8.776  0.0415  0.1877  0.2103
  225YOPE   C1B 2831   3.496   1.566   9.602 -0.0876  0.1240  0.1085
  225YOPE   C2B 2832   3.492   1.505   9.135  0.2374  0.1032  0.0504
  225YOPE   D3B 2833   3.563   1.590   8.776 -0.1834 -0.1660  0.1620
  225YOPE   C4B 2834   3.797   1.560   8.467 -0.1275  0.2930  0.1531
  226YOPE   NH3 2835   2.402   9.951  10.520 -0.1246  0.2669 -0.0628
  226YOPE   PO4 2836   2.372   9.539  10.630 -0.1331  0.0530 -0.3795
  226YOPE   GL1 2837   2.045   9.607  10.356  0.0311  0.3039  0.1825
  226YOPE   GL2 2838   2.127   9.863  10.064  0.2143  0.2011  0.3534
  226YOPE   C1A 2839   1.800   9.431   9.974  0.1212 -0.0380  0.0800
  226YOPE   D2A 2840   1.592   9.489   9.528  0.0470  0.2158  0.0303
  226YOPE   C3A 2841   1.616   9.570   9.100 -0.0876 -0.1802  0.0781
  226YOPE   C4A 2842   1.475   9.455   8.665 -0.1995 -0.1853 -0.0055
  226YOPE   C1B 2843   2.082   9.664   9.597 -0.0265  0.0918  0.2648
  226YOPE   C2B 2844   2.126   9.700   9.162 -0.0189  0.1717  0.0732
  226YOPE   D3B 2845   2.026   9.431   8.714 -0.4460 -0.1080  0.1293
  226YOPE   C4B 2846   1.876   9.702   8.390  0.2002 -0.1620 -0.1483
  227YOPE   NH3 2847  10.829  11.839  10.038  0.0977 -0.0896  0.1405
  227YOPE   PO4 2848  10.784  12.245  10.149  0.0121 -0.1002 -0.2222
  227YOPE   GL1 2849  11.008  12.331   9.850 -0.0722  0.2473  0.2147
  227YOPE   GL2 2850  10.876  12.099   9.640  0.0700 -0.0324  0.2553
  227YOPE   C1A 2851  10.920  12.555   9.529 -0.0166 -0.3084  0.0261
  227YOPE   D2A 2852  11.137  12.455   9.168  0.0118 -0.1698 -0.0004
  227YOPE   C3A 2853  10.958  12.301   8.749 -0.1658  0.0044  0.0475
  227YOPE   C4A 2854  10.868  12.068   8.314  0.4405  0.2097 -0.1248
  227YOPE   C1B 2855  10.692  12.272   9.229  0.0925  0.2194 -0.1136
  227YOPE   C2B 2856  10.589  12.563   8.907 -0.1202  0.0121  0.1819
  227YOPE   D3B 2857  10.821  12.735   8.551 -0.1098 -0.0254  0.0693
  227YOPE   C4B 2858  10.696  12.940   8.366 -0.0316 -0.0532 -0.3525
  228YOPE   NH3 2859   2.722   7.594  10.630 -0.0759  0.0775  0.1239
  228YOPE   PO4 2860   2.683   7.264  10.381 -0.2546 -0.2021 -0.0818
  228YOPE   GL1 2861   3.012   7.282  10.100  0.2651  0.1169  0.0972
  228YOPE   GL2 2862   3.323   7.146   9.963  0.0289  0.1364  0.4555
  228YOPE   C1A 2863   3.047   7.449   9.695  0.1641 -0.1498  0.0412
  228YOPE   D2A 2864   3.208   7.367   9.207 -0.0509 -0.0503  0.1647
  228YOPE   C3A 2865   2.983   7.442   8.858 -0.1961 -0.2532 -0.0845
  228YOPE   C4A 2866   2.711   7.268   8.482 -0.0916 -0.2309  0.1813
  228YOPE   C1B 2867   3.171   6.890   9.639  0.3847  0.1546  0.0668
  228YOPE   C2B 2868   3.115   6.864   9.165  0.0503  0.1517  0.1226
  228YOPE   D3B 2869   2.689   6.888   9.002  0.0009  0.2188 -0.1374
  228YOPE   C4B 2870   2.369   6.893   8.639  0.1524  0.3294 -0.1166
  229YOPE   NH3 2871   7.110  16.142  10.285 -0.1410  0.2306 -0.0997
  229YOPE   PO4 2872   7.638  16.199  10.013 -0.0721 -0.1887  0.2550
  229YOPE   GL1 2873   7.617  16.152   9.536 -0.1673  0.0763 -0.3674
  229YOPE   GL2 2874   7.691  16.446   9.319  0.0584  0.3040 -0.0079
  229YOPE   C1A 2875   7.388  16.150   9.102  0.0206 -0.0510 -0.1949
  229YOPE   D2A 2876   7.268  16.211   8.614 -0.0876  0.0787 -0.0306
  229YOPE   C3A 2877   6.948  16.283   8.239  0.1937 -0.0426  0.2164
  229YOPE   C4A 2878   6.939  16.257   7.784  0.0207  0.0343 -0.1167
  229YOPE   C1B 2879   7.578  16.721   9.043  0.1507  0.0856 -0.1786
  229YOPE   C2B 2880   7.311  16.678   8.759  0.2758  0.1504 -0.0094
  229YOPE   D3B 2881   7.283  16.756   8.321 -0.2959 -0.0089 -0.1899
  229YOPE   C4B 2882   7.346  16.658   7.894 -0.3419 -0.2440  0.3301
  230YOPE   NH3 2883  14.950   8.169  10.262 -0.2906  0.1376  0.0084
  230YOPE   PO4 2884  14.626   8.376  10.416  0.0321  0.0480 -0.0266
  230YOPE   GL1 2885  14.762   8.540   9.983 -0.5017  0.2733  0.1343
  230YOPE   GL2 2886  15.070   8.530   9.925 -0.2681 -0.0331  0.0739
  230YOPE   C1A 2887  14.902   8.396   9.514 -0.3573 -0.0176  0.1008
  230YOPE   D2A 2888  15.037   8.235   9.209 -0.2065 -0.2401 -0.2893
  230YOPE   C3A 2889  14.853   8.458   8.865  0.4343  0.0530  0.0533
  230YOPE   C4A 2890  14.904   8.274   8.497 -0.2849 -0.3898  0.0224
  230YOPE   C1B 2891  15.383   8.576   9.508  0.2986  0.6261  0.5630
  230YOPE   C2B 2892  15.499   8.991   9.577  0.0297 -0.2410 -0.2708
  230YOPE   D3B 2893  15.712   9.299   9.762 -0.1522 -0.0778 -0.3795
  230YOPE   C4B 2894  15.719   9.723   9.715 -0.0072 -0.1046 -0.2885
  231YOPE   NH3 2895   8.793   8.005  10.664 -0.0193  0.0112 -0.3917
  231YOPE   PO4 2896   8.342   7.780  10.551 -0.5489  0.1773 -0.0452
  231YOPE   GL1 2897   8.171   7.609  10.143  0.1684 -0.0783 -0.1093
  231YOPE   GL2 2898   7.848   7.394   9.986 -0.0269 -0.1938 -0.1675
  231YOPE   C1A 2899   8.093   7.761   9.738 -0.0760  0.2568  0.0951
  231YOPE   D2A 2900   8.112   7.771   9.312  0.2146 -0.2518 -0.0338
  231YOPE   C3A 2901   8.282   7.419   9.156  0.2228 -0.2469  0.0865
  231YOPE   C4A 2902   8.301   7.372   8.739  0.1964 -0.3272  0.0925
  231YOPE   C1B 2903   7.796   7.388   9.485  0.0738 -0.0320  0.0446
  231YOPE   C2B 2904   7.784   7.323   8.968  0.0154 -0.1851 -0.0785
  231YOPE   D3B 2905   7.806   7.330   8.485  0.1977 -0.1383 -0.3409
  231YOPE   C4B 2906   8.006   7.594   8.334  0.2535 -0.0844  0.0170
  232YOPE   NH3 2907   8.521   2.715  10.067 -0.2110  0.0072  0.0181
  232YOPE   PO4 2908   8.940   2.560  10.129 -0.4115 -0.0979 -0.0808
  232YOPE   GL1 2909   9.140   2.483   9.748  0.1909  0.0028 -0.0203
  232YOPE   GL2 2910   9.444   2.323   9.667 -0.1482  0.2989  0.1526
  232YOPE   C1A 2911   9.056   2.572   9.319 -0.1842 -0.2557 -0.0630
  232YOPE   D2A 2912   9.067   2.615   8.930  0.2907  0.0058 -0.3716
  232YOPE   C3A 2913   8.701   2.488   8.600 -0.0985  0.2226  0.0813
  232YOPE   C4A 2914   8.360   2.582   8.281  0.0032  0.0934 -0.0194
  232YOPE   C1B 2915   9.460   2.252   9.271 -0.1218  0.1133 -0.2456
  232YOPE   C2B 2916   9.368   2.204   8.841 -0.1068 -0.3436 -0.0417
  232YOPE   D3B 2917   9.336   2.276   8.529 -0.0782 -0.2047  0.0599
  232YOPE   C4B 2918   8.901   2.421   8.119 -0.2281 -0.2179 -0.0522
  233YOPE   NH3 2919   1.283  10.758  10.395  0.1078  0.2024  0.2395
  233YOPE   PO4 2920   1.384  10.388  10.388 -0.1581  0.1226 -0.0119
  233YOPE   GL1 2921   1.303  10.332   9.977 -0.1767  0.2872 -0.1527
  233YOPE   GL2 2922   1.172  10.664   9.882 -0.1150  0.2222 -0.1416
  233YOPE   C1A 2923   1.277  10.226   9.489  0.2651 -0.0823 -0.2059
  233YOPE   D2A 2924   1.296  10.174   9.070  0.0901  0.0965 -0.0526
  233YOPE   C3A 2925   1.090   9.980   8.775 -0.2576  0.0606  0.1116
  233YOPE   C4A 2926   0.972   9.592   8.490  0.1898  0.3262 -0.0427
  233YOPE   C1B 2927   0.925  10.594   9.495 -0.0166  0.0037 -0.2549
  233YOPE   C2B 2928   0.949  10.532   9.074 -0.0390  0.0272  0.0708
  233YOPE   D3B 2929   1.219  10.649   8.755  0.1758 -0.1504 -0.0196
  233YOPE   C4B 2930   1.341  10.405   8.448 -0.0335 -0.2925  0.3180
  234YOPE   NH3 2931  17.197  14.741  10.835 -0.1207  0.1729  0.3013
  234YOPE   PO4 2932  17.651  14.766  10.785 -0.2872  0.1578  0.0183
  234YOPE   GL1 2933  17.497  14.995  10.440 -0.1159  0.0698 -0.1932
  234YOPE   GL2 2934  17.358  15.188  10.520  0.1934  0.1588 -0.1647
  234YOPE   C1A 2935  17.336  14.930   9.979 -0.2165  0.0779 -0.2373
  234YOPE   D2A 2936  17.177  14.750   9.576  0.1011  0.1654 -0.1358
  234YOPE   C3A 2937  17.227  14.836   9.143  0.1323  0.1109  0.0296
  234YOPE   C4A 2938  17.030  14.792   8.826 -0.0611 -0.0239 -0.2470
  234YOPE   C1B 2939  17.145  15.519  10.155 -0.2619 -0.3608 -0.1885
  234YOPE   C2B 2940  16.965  15.713   9.824 -0.1912 -0.2097 -0.0691
  234YOPE   D3B 2941  16.828  15.712   9.353 -0.2427  0.2642 -0.1784
  234YOPE   C4B 2942  16.633  15.592   8.950 -0.0532  0.1188 -0.1044
  235YOPE   NH3 2943   8.850   5.344   9.949 -0.0620  0.4870 -0.0094
  235YOPE   PO4 2944   8.351   5.319   9.864  0.0094  0.1321  0.1407
  235YOPE   GL1 2945   8.660   5.041   9.590  0.4187  0.1366  0.1566
  235YOPE   GL2 2946   9.063   5.159   9.541  0.1529 -0.2951 -0.1383
  235YOPE   C1A 2947   8.608   4.927   9.164  0.1845  0.1307  0.1128
  235YOPE   D2A 2948   8.877   4.877   8.944 -0.1446  0.0907 -0.2039
  235YOPE   C3A 2949   8.937   4.946   8.520  0.2303  0.3017 -0.2524
  235YOPE   C4A 2950   9.156   5.073   8.111  0.1235 -0.1637  0.1280
  235YOPE   C1B 2951   9.159   5.277   9.037  0.0907  0.0508 -0.0030
  235YOPE   C2B 2952   9.174   5.375   8.616  0.1088  0.1422 -0.1268
  235YOPE   D3B 2953   9.280   5.571   8.203  0.1195 -0.0657 -0.1748
  235YOPE   C4B 2954   9.370   5.834   7.891 -0.0404  0.0635  0.1876
  236YOPE   NH3 2955   9.690  13.827  10.018  0.0948  0.3577 -0.0721
  236YOPE   PO4 2956  10.184  13.840  10.121  0.1087  0.1959  0.0469
  236YOPE   GL1 2957  10.114  13.876   9.735  0.0155  0.2215  0.0627
  236YOPE   GL2 2958   9.862  13.928   9.546 -0.1392  0.2339  0.0040
  236YOPE   C1A 2959  10.344  13.619   9.444  0.1015 -0.2193 -0.1013
  236YOPE   D2A 2960  10.399  13.621   8.966  0.1705  0.0823  0.0088
  236YOPE   C3A 2961  10.490  13.886   8.672  0.0409  0.2443 -0.2870
  236YOPE   C4A 2962  10.814  13.842   8.500  0.2622  0.2054  0.1659
  236YOPE   C1B 2963   9.978  13.971   9.223 -0.3049 -0.2103 -0.2594
  236YOPE   C2B 2964  10.031  13.984   8.826  0.0553 -0.0195  0.0283
  236YOPE   D3B 2965  10.033  14.064   8.363 -0.0654 -0.0916 -0.1458
  236YOPE   C4B 2966  10.099  13.906   8.036 -0.1462  0.0170  0.2829
  237YOPE   NH3 2967  10.378  10.837  10.152  0.0664  0.0290  0.0844
  237YOPE   PO4 2968  10.612  10.554  10.336  0.3298  0.3029  0.1150
  237YOPE   GL1 2969  10.881  10.707  10.003 -0.0505  0.1209 -0.0373
  237YOPE   GL2 2970  11.042  10.447   9.840 -0.2236  0.4123  0.0351
  237YOPE   C1A 2971  10.857  10.986   9.607 -0.0060 -0.1375 -0.3018
  237YOPE   D2A 2972  10.847  10.916   9.178 -0.1785 -0.0102 -0.0301
  237YOPE   C3A 2973  11.042  10.774   8.856  0.0610 -0.0269 -0.0686
  237YOPE   C4A 2974  11.107  10.970   8.466  0.0794 -0.0371 -0.1501
  237YOPE   C1B 2975  11.214  10.659   9.485 -0.0177  0.0816 -0.2605
  237YOPE   C2B 2976  11.386  10.747   9.240 -0.1779  0.2098 -0.0885
  237YOPE   D3B 2977  11.526  10.889   8.812 -0.2662  0.0669 -0.0989
  237YOPE   C4B 2978  11.696  11.101   8.491 -0.0400  0.1070  0.1297
  238YOPE   NH3 2979  11.641  11.216  10.150  0.0164  0.2477  0.1193
  238YOPE   PO4 2980  12.038  11.183  10.073 -0.4295 -0.3070  0.1541
  238YOPE   GL1 2981  11.912  11.429   9.759 -0.3225  0.1421 -0.1390
  238YOPE   GL2 2982  11.620  11.650   9.681 -0.1052  0.1903 -0.3402
  238YOPE   C1A 2983  11.922  11.332   9.286 -0.1814 -0.0244  0.2765
  238YOPE   D2A 2984  11.965  11.194   8.912 -0.1758  0.0966  0.0668
  238YOPE   C3A 2985  12.070  11.441   8.631  0.3254 -0.0531 -0.2406
  238YOPE   C4A 2986  12.335  11.752   8.392  0.2933  0.0961 -0.2288
  238YOPE   C1B 2987  11.582  11.677   9.221  0.1070 -0.0215  0.1107
  238YOPE   C2B 2988  11.604  11.580   8.847 -0.1735 -0.0745 -0.0625
  238YOPE   D3B 2989  11.643  11.676   8.501 -0.1009 -0.1018  0.0162
  238YOPE   C4B 2990  11.439  11.926   8.147 -0.0273  0.0279  0.0293
  239YOPE   NH3 2991  12.884   6.718  10.104  0.1416 -0.1261  0.3161
  239YOPE   PO4 2992  13.160   6.431   9.918  0.0189  0.1032 -0.1311
  239YOPE   GL1 2993  13.332   6.378   9.533 -0.1467 -0.0577  0.2908
  239YOPE   GL2 2994  13.642   6.553   9.634  0.0877 -0.3849  0.1910
  239YOPE   C1A 2995  13.261   6.625   9.188  0.1923 -0.3118 -0.0376
  239YOPE   D2A 2996  13.163   6.384   8.809 -0.1391 -0.0481  0.1711
  239YOPE   C3A 2997  13.535   6.465   8.494  0.3755  0.2428  0.0489
  239YOPE   C4A 2998  13.657   6.438   8.174  0.1932 -0.0468  0.1588
  239YOPE   C1B 2999  13.794   6.326   9.360  0.2247  0.0331  0.0850
  239YOPE   C2B 3000  13.725   5.938   9.354 -0.1999 -0.2382 -0.1407
  239YOPE   D3B 3001  13.653   5.639   9.003 -0.1036  0.3898 -0.0323
  239YOPE   C4B 3002  13.834   5.197   8.942 -0.4211  0.0305 -0.0952
  240YOPE   NH3 3003   9.671   4.284   9.720  0.3686  0.1696 -0.1765
  240YOPE   PO4 3004   9.241   4.380   9.837 -0.0216 -0.0444  0.1509
  240YOPE   GL1 3005   8.935   4.378   9.567 -0.5045  0.0019  0.0982
  240YOPE   GL2 3006   8.985   4.606   9.390  0.4521  0.0242 -0.3309
  240YOPE   C1A 3007   8.849   4.177   9.177  0.1764  0.1360 -0.1026
  240YOPE   D2A 3008   8.807   3.888   8.868 -0.0456 -0.0605  0.1840
  240YOPE   C3A 3009   8.905   4.016   8.506 -0.1336  0.0102 -0.1055
  240YOPE   C4A 3010   8.884   4.172   8.063  0.1277 -0.0706 -0.2908
  240YOPE   C1B 3011   9.283   4.785   9.142 -0.0605  0.1715  0.2715
  240YOPE   C2B 3012   9.443   4.897   8.696  0.1046  0.2734 -0.3538
  240YOPE   D3B 3013   9.623   5.082   8.453  0.0878 -0.3568 -0.0898
  240YOPE   C4B 3014   9.634   5.292   8.041  0.2526 -0.4206 -0.0839
  241YOPE   NH3 3015  16.139   1.483  10.292  0.0924 -0.0463 -0.1359
  241YOPE   PO4 3016  15.815   1.572  10.320 -0.3250 -0.2289 -0.2138
  241YOPE   GL1 3017  15.712   1.207  10.124 -0.0863 -0.3292 -0.0252
  241YOPE   GL2 3018  15.472   0.975  10.281  0.2553  0.1401 -0.0289
  241YOPE   C1A 3019  15.456   1.295   9.740  0.0036 -0.0587 -0.0854
  241YOPE   D2A 3020  15.156   1.203   9.520  0.0769 -0.0811 -0.2201
  241YOPE   C3A 3021  15.288   1.451   9.115 -0.1925 -0.1012 -0.2339
  241YOPE   C4A 3022  15.083   1.389   8.727  0.0360  0.2787 -0.0228
  241YOPE   C1B 3023  15.470   0.818   9.882  0.0227 -0.1574  0.0605
  241YOPE   C2B 3024  15.494   0.905   9.422  0.2170  0.3421  0.2234
  241YOPE   D3B 3025  15.668   1.133   9.193  0.2440 -0.2080 -0.1065
  241YOPE   C4B 3026  15.551   1.279   8.719  0.2952 -0.0196 -0.2298
  242YOPE   NH3 3027  10.508  15.178  10.073 -0.1262 -0.1615 -0.3264
  242YOPE   PO4 3028  10.106  15.134   9.984  0.0795 -0.0718  0.0976
  242YOPE   GL1 3029  10.295  15.040   9.579 -0.1145 -0.1301  0.2158
  242YOPE   GL2 3030  10.357  15.360   9.379  0.1405 -0.0440  0.0497
  242YOPE   C1A 3031  10.092  14.859   9.215 -0.1528 -0.1855  0.1481
  242YOPE   D2A 3032  10.128  14.855   8.781 -0.0036 -0.2229  0.0034
  242YOPE   C3A 3033   9.981  15.235   8.548 -0.0899 -0.2211 -0.0814
  242YOPE   C4A 3034   9.826  15.344   8.139  0.0817  0.1241  0.1615
  242YOPE   C1B 3035  10.385  15.316   8.998 -0.0127  0.5662  0.1964
  242YOPE   C2B 3036  10.587  15.333   8.665  0.1551  0.1631  0.0318
  242YOPE   D3B 3037  10.813  15.441   8.294  0.0230 -0.0826  0.0899
  242YOPE   C4B 3038  10.915  15.906   8.222  0.2140  0.0536  0.0977
  243YOPE   NH3 3039  11.741   7.589   9.929  0.3820  0.2194  0.1178
  243YOPE   PO4 3040  11.424   7.888   9.995  0.1004 -0.1994 -0.0027
  243YOPE   GL1 3041  11.206   8.147   9.661 -0.1429 -0.4231  0.3216
  243YOPE   GL2 3042  11.429   8.398   9.617  0.1591  0.0623 -0.3328
  243YOPE   C1A 3043  10.842   8.263   9.298  0.0606  0.0775  0.4133
  243YOPE   D2A 3044  10.698   8.371   8.891  0.0382  0.1423 -0.2276
  243YOPE   C3A 3045  10.883   8.496   8.618 -0.1450 -0.2527  0.0732
  243YOPE   C4A 3046  11.094   8.722   8.400 -0.3529 -0.0421 -0.2297
  243YOPE   C1B 3047  11.375   8.573   9.205  0.2143  0.0696 -0.0802
  243YOPE   C2B 3048  11.387   8.770   8.810 -0.5170 -0.1028 -0.0077
  243YOPE   D3B 3049  11.687   8.779   8.406  0.0239  0.1070  0.3413
  243YOPE   C4B 3050  11.869   8.573   7.962 -0.0499  0.2576  0.1639
  244YOPE   NH3 3051   4.140   8.600  10.324  0.1343 -0.1226 -0.0042
  244YOPE   PO4 3052   4.455   8.790  10.447  0.0468  0.0966 -0.3785
  244YOPE   GL1 3053   4.445   9.022  10.104 -0.1537 -0.0777  0.1654
  244YOPE   GL2 3054   4.219   8.830   9.899 -0.1523 -0.1272 -0.2818
  244YOPE   C1A 3055   4.630   9.238   9.786 -0.0860  0.0384 -0.0057
  244YOPE   D2A 3056   4.959   9.386   9.577  0.1094  0.2169 -0.1050
  244YOPE   C3A 3057   4.991   9.335   9.213  0.1876 -0.0933 -0.4867
  244YOPE   C4A 3058   4.938   9.016   8.834  0.3329  0.0977  0.1417
  244YOPE   C1B 3059   4.149   9.039   9.560 -0.3309 -0.0331  0.0850
  244YOPE   C2B 3060   4.012   9.115   9.187 -0.0646 -0.0661 -0.1394
  244YOPE   D3B 3061   3.856   9.080   8.815  0.0998 -0.2093  0.0463
  244YOPE   C4B 3062   3.619   9.007   8.471 -0.0245  0.2819  0.1627
  245YOPE   NH3 3063   6.486  13.174  10.581 -0.2042  0.1893  0.0586
  245YOPE   PO4 3064   6.135  13.411  10.399 -0.2012 -0.0011  0.2048
  245YOPE   GL1 3065   5.973  13.592  10.000 -0.0125  0.3951 -0.0755
  245YOPE   GL2 3066   6.053  13.934   9.912 -0.0063 -0.2426  0.1650
  245YOPE   C1A 3067   5.804  13.523   9.582 -0.3647  0.1996  0.1360
  245YOPE   D2A 3068   5.777  13.444   9.193  0.1404 -0.0979  0.0728
  245YOPE   C3A 3069   5.702  13.123   8.881 -0.0457  0.1682 -0.1876
  245YOPE   C4A 3070   5.609  12.795   8.614  0.0675  0.0448  0.1959
  245YOPE   C1B 3071   6.070  13.935   9.455  0.0511  0.2583 -0.0742
  245YOPE   C2B 3072   6.056  13.815   9.036  0.1665 -0.1635  0.1978
  245YOPE   D3B 3073   5.922  13.537   8.752  0.2298 -0.0463  0.0015
  245YOPE   C4B 3074   5.929  13.344   8.423  0.2244  0.0167 -0.1128
  246YOPE   NH3 3075   2.697  13.533  10.863  0.0722  0.0490  0.1394
  246YOPE   PO4 3076   2.367  13.256  10.833 -0.0638  0.0614  0.2205
  246YOPE   GL1 3077   2.479  13.506  10.445  0.0144 -0.1330 -0.3487
  246YOPE   GL2 3078   2.841  13.552  10.306  0.0331  0.1535 -0.0926
  246YOPE   C1A 3079   2.301  13.508  10.051 -0.1688 -0.4365 -0.0826
  246YOPE   D2A 3080   2.072  13.346   9.831  0.0443  0.2217 -0.0103
  246YOPE   C3A 3081   2.108  13.427   9.349 -0.0377  0.1579 -0.0729
  246YOPE   C4A 3082   2.107  13.528   8.919  0.0848 -0.2572 -0.3867
  246YOPE   C1B 3083   2.712  13.427   9.838  0.2226 -0.3805 -0.0112
  246YOPE   C2B 3084   2.799  13.394   9.485 -0.1907 -0.1288 -0.1523
  246YOPE   D3B 3085   2.740  13.282   9.145  0.2149 -0.1893  0.1471
  246YOPE   C4B 3086   2.756  12.907   8.772  0.0865  0.0512 -0.1036
  247YOPE   NH3 3087  17.247   9.920  10.453 -0.0488 -0.0592  0.1064
  247YOPE   PO4 3088  17.616   9.982  10.474  0.2661 -0.2926 -0.0629
  247YOPE   GL1 3089  17.727   9.860  10.135  0.2635  0.2371 -0.1052
  247YOPE   GL2 3090  17.408   9.971  10.006  0.0284 -0.2665 -0.2888
  247YOPE   C1A 3091  17.843   9.636   9.835  0.3949 -0.1417  0.3047
  247YOPE   D2A 3092  17.733   9.533   9.443  0.3148  0.1255 -0.1277
  247YOPE   C3A 3093  17.891   9.603   9.015  0.0481 -0.1399  0.1160
  247YOPE   C4A 3094  17.851   9.437   8.627  0.3341  0.1438 -0.0530
  247YOPE   C1B 3095  17.543  10.023   9.522  0.2932  0.0832  0.2273
  247YOPE   C2B 3096  17.457   9.827   9.087 -0.1060  0.0140  0.4051
  247YOPE   D3B 3097  17.474   9.737   8.684  0.1509  0.0574 -0.0936
  247YOPE   C4B 3098  17.416   9.333   8.369  0.1366 -0.0790 -0.2706
  248YOPE   NH3 3099   8.324  10.653  10.658  0.1641 -0.1503  0.0848
  248YOPE   PO4 3100   8.252  11.099  10.625  0.3853 -0.2093  0.2289
  248YOPE   GL1 3101   8.105  10.868  10.235 -0.3317  0.2350 -0.0618
  248YOPE   GL2 3102   8.273  10.971  10.090  0.2231  0.1500  0.1120
  248YOPE   C1A 3103   7.902  10.682   9.907 -0.1543  0.2295 -0.0915
  248YOPE   D2A 3104   7.752  10.477   9.543 -0.5040  0.0326  0.3663
  248YOPE   C3A 3105   7.663  10.646   9.233 -0.1065 -0.0655 -0.1766
  248YOPE   C4A 3106   7.310  10.620   8.926 -0.0795  0.1640  0.0751
  248YOPE   C1B 3107   8.493  11.278   9.917 -0.2764 -0.1480 -0.1532
  248YOPE   C2B 3108   8.398  11.204   9.594 -0.0595 -0.0213 -0.3399
  248YOPE   D3B 3109   8.353  11.177   9.147 -0.0580 -0.1522 -0.1191
  248YOPE   C4B 3110   8.121  11.186   8.861  0.0070 -0.3032  0.1372
  249YOPE   NH3 3111  12.555   4.389   9.648 -0.0862 -0.0129 -0.0758
  249YOPE   PO4 3112  12.560   4.822   9.608  0.0573  0.0370 -0.0479
  249YOPE   GL1 3113  12.772   4.917   9.268  0.2083  0.0200 -0.3975
  249YOPE   GL2 3114  13.048   4.828   9.259 -0.1868  0.1290 -0.0923
  249YOPE   C1A 3115  12.749   4.948   8.808 -0.0805  0.2996 -0.0955
  249YOPE   D2A 3116  12.848   4.919   8.378 -0.0270 -0.0267  0.1020
  249YOPE   C3A 3117  12.591   4.689   7.991 -0.1691 -0.2170  0.3202
  249YOPE   C4A 3118  12.139   4.734   7.856 -0.3154  0.0449  0.0543
  249YOPE   C1B 3119  13.275   4.949   9.009  0.0251 -0.1723  0.3278
  249YOPE   C2B 3120  13.170   5.267   8.687  0.1664 -0.0763  0.0332
  249YOPE   D3B 3121  13.210   5.563   8.254  0.1181 -0.0478 -0.0541
  249YOPE   C4B 3122  13.565   5.696   8.019 -0.1287 -0.0705 -0.2178
  250YOPE   NH3 3123  14.584  16.333  10.374  0.1144 -0.0370  0.1177
  250YOPE   PO4 3124  14.172  16.140  10.518 -0.0044 -0.1594 -0.0627
  250YOPE   GL1 3125  14.151  16.360  10.092 -0.1783 -0.1951 -0.1222
  250YOPE   GL2 3126  14.344  16.505   9.955  0.3331  0.0075  0.1845
  250YOPE   C1A 3127  13.960  16.393   9.663  0.1931  0.3683  0.0021
  250YOPE   D2A 3128  13.833  16.652   9.471  0.0004  0.1846 -0.3135
  250YOPE   C3A 3129  13.758  16.495   9.055  0.0307 -0.0607  0.2155
  250YOPE   C4A 3130  13.588  16.656   8.691  0.0828 -0.0232  0.0529
  250YOPE   C1B 3131  14.467  16.647   9.589  0.2518 -0.0536  0.1588
  250YOPE   C2B 3132  14.712  16.585   9.300  0.2133  0.2553 -0.1827
  250YOPE   D3B 3133  14.633  16.817   8.949 -0.2913  0.0713  0.1685
  250YOPE   C4B 3134  14.855  17.159   8.768  0.3270  0.3639 -0.4065
  251YOPE   NH3 3135   9.373   0.069  10.096 -0.2285 -0.1677 -0.1718
  251YOPE   PO4 3136   9.118  -0.331   9.911  0.0826 -0.2724  0.0005
  251YOPE   GL1 3137   8.869  -0.135   9.580  0.1534  0.0114  0.2886
  251YOPE   GL2 3138   8.936   0.092   9.611 -0.1242 -0.1307  0.0475
  251YOPE   C1A 3139   9.031  -0.065   9.125 -0.1519 -0.1651  0.0241
  251YOPE   D2A 3140   9.092   0.094   8.697  0.0820  0.1386 -0.0455
  251YOPE   C3A 3141   9.087   0.024   8.309 -0.1139  0.2113  0.1611
  251YOPE   C4A 3142   9.294  -0.334   8.103  0.1287 -0.1462  0.0698
  251YOPE   C1B 3143   8.945   0.429   9.410 -0.0811 -0.0617 -0.1584
  251YOPE   C2B 3144   8.986   0.483   8.932 -0.0251 -0.1151  0.0350
  251YOPE   D3B 3145   9.005   0.527   8.462  0.0362 -0.2806 -0.1713
  251YOPE   C4B 3146   9.169   0.609   8.090  0.0295  0.1427 -0.1389
  252YOPE   NH3 3147   6.039   4.280  10.069 -0.2396  0.0848 -0.3408
  252YOPE   PO4 3148   6.350   4.269   9.864 -0.0913  0.0534  0.2458
  252YOPE   GL1 3149   6.123   4.299   9.552  0.1211  0.0602  0.0612
  252YOPE   GL2 3150   5.913   4.575   9.674 -0.0071 -0.0828 -0.0399
  252YOPE   C1A 3151   6.045   4.437   9.134  0.4004  0.3891  0.0605
  252YOPE   D2A 3152   5.885   4.523   8.741 -0.0056 -0.0306 -0.1872
  252YOPE   C3A 3153   6.051   4.786   8.264  0.2867 -0.0763 -0.1608
  252YOPE   C4A 3154   5.786   4.781   7.866 -0.0152 -0.1680 -0.0066
  252YOPE   C1B 3155   5.849   4.809   9.405 -0.1183  0.0936 -0.1504
  252YOPE   C2B 3156   5.943   4.894   9.071 -0.1751  0.1184 -0.0966
  252YOPE   D3B 3157   5.737   5.002   8.799  0.4108  0.4161 -0.2519
  252YOPE   C4B 3158   5.555   5.006   8.324  0.1037 -0.1309  0.0631
  253YOPE   NH3 3159   1.252  14.002  10.772  0.3325  0.0102 -0.1065
  253YOPE   PO4 3160   1.548  13.625  10.717 -0.4987 -0.0339  0.0428
  253YOPE   GL1 3161   1.325  13.603  10.400  0.1480 -0.0084 -0.1391
  253YOPE   GL2 3162   1.108  13.514  10.226  0.2202 -0.0654  0.2959
  253YOPE   C1A 3163   1.403  13.805   9.992 -0.0702 -0.0728  0.3734
  253YOPE   D2A 3164   1.302  13.798   9.514 -0.0567  0.0240  0.0678
  253YOPE   C3A 3165   1.392  13.852   9.090 -0.1825 -0.0490 -0.0526
  253YOPE   C4A 3166   1.667  13.832   8.785  0.0931  0.0648  0.4166
  253YOPE   C1B 3167   1.049  13.454   9.772 -0.2368  0.1669  0.0304
  253YOPE   C2B 3168   1.098  13.419   9.235  0.0715  0.3462 -0.3143
  253YOPE   D3B 3169   1.394  13.399   8.896  0.1794 -0.0693  0.2519
  253YOPE   C4B 3170   1.402  13.148   8.526  0.2197  0.3225  0.1152
  254YOPE   NH3 3171   1.041  18.059  10.856 -0.0179  0.0762  0.1748
  254YOPE   PO4 3172   0.970  17.856  10.492  0.1577 -0.2181  0.1828
  254YOPE   GL1 3173   0.795  17.840  10.129 -0.1142 -0.0708 -0.1248
  254YOPE   GL2 3174   1.101  17.781   9.949  0.0243 -0.1634 -0.0583
  254YOPE   C1A 3175   0.521  17.653   9.737 -0.1074 -0.1656 -0.1832
  254YOPE   D2A 3176   0.328  17.399   9.389  0.0786 -0.1061 -0.0259
  254YOPE   C3A 3177   0.024  17.452   8.957  0.1828  0.2726 -0.2208
  254YOPE   C4A 3178  -0.303  17.317   8.638  0.1925 -0.2038 -0.0813
  254YOPE   C1B 3179   1.061  17.396   9.693 -0.2056 -0.4640  0.1682
  254YOPE   C2B 3180   0.801  17.336   9.397  0.0960 -0.2048 -0.1240
  254YOPE   D3B 3181   0.606  16.917   9.126  0.1715  0.0543 -0.0079
  254YOPE   C4B 3182   0.375  16.705   8.828 -0.1824  0.0911 -0.4479
  255YOPE   NH3 3183   9.859  11.365  10.231 -0.0828 -0.0611  0.0377
  255YOPE   PO4 3184   9.900  10.931  10.179  0.0365  0.0439  0.0185
  255YOPE   GL1 3185   9.945  10.788   9.763 -0.0203 -0.2100  0.2679
  255YOPE   GL2 3186  10.033  10.543   9.747 -0.0334 -0.1067 -0.1445
  255YOPE   C1A 3187   9.766  10.689   9.337 -0.4782  0.4088  0.0955
  255YOPE   D2A 3188   9.637  10.336   9.087  0.2565  0.0461  0.1672
  255YOPE   C3A 3189   9.532  10.507   8.695 -0.0987 -0.0090  0.0994
  255YOPE   C4A 3190   9.268  10.637   8.294  0.0657  0.2611  0.0378
  255YOPE   C1B 3191   9.983  10.250   9.464 -0.0329 -0.0947  0.2198
  255YOPE   C2B 3192  10.149  10.178   9.088  0.2209  0.1363  0.0442
  255YOPE   D3B 3193  10.508  10.315   8.828  0.1984  0.0860 -0.1551
  255YOPE   C4B 3194  10.566  10.676   8.683 -0.2618 -0.3150  0.1255
  256YOPE   NH3 3195   4.546   5.280  10.093 -0.2435  0.0569 -0.0448
  256YOPE   PO4 3196   4.367   4.806  10.169 -0.4501  0.0264 -0.0073
  256YOPE   GL1 3197   4.257   4.545   9.836  0.0222 -0.1098 -0.2173
  256YOPE   GL2 3198   4.194   4.842   9.725 -0.0044 -0.3511  0.0229
  256YOPE   C1A 3199   4.075   4.320   9.482  0.1402 -0.0276 -0.1272
  256YOPE   D2A 3200   4.117   4.327   8.978  0.0131  0.1508  0.0902
  256YOPE   C3A 3201   3.991   4.727   8.737 -0.1539 -0.1315 -0.0232
  256YOPE   C4A 3202   4.049   5.031   8.436  0.0350  0.0104 -0.0003
  256YOPE   C1B 3203   3.984   4.778   9.255 -0.1949  0.0627  0.3178
  256YOPE   C2B 3204   3.611   4.582   9.041  0.0105 -0.2066  0.1102
  256YOPE   D3B 3205   3.322   4.447   8.680  0.2708  0.2329  0.1593
  256YOPE   C4B 3206   3.342   4.227   8.285 -0.1495  0.0630  0.4008
  257YOPE   NH3 3207  17.265   5.179  10.016  0.0840 -0.0083 -0.3133
  257YOPE   PO4 3208  16.891   5.067   9.969  0.0008 -0.2040  0.1199
  257YOPE   GL1 3209  17.003   5.120   9.509  0.1084  0.0184 -0.1470
  257YOPE   GL2 3210  16.800   4.729   9.489 -0.2411  0.1564  0.1805
  257YOPE   C1A 3211  17.210   4.884   9.185 -0.0060 -0.0193 -0.1199
  257YOPE   D2A 3212  17.510   4.972   8.916 -0.0238 -0.4021  0.1513
  257YOPE   C3A 3213  17.663   5.070   8.424 -0.0792 -0.2263 -0.0187
  257YOPE   C4A 3214  17.378   5.182   8.031 -0.0246 -0.0063  0.2106
  257YOPE   C1B 3215  16.896   4.530   9.081  0.0754  0.1223  0.2261
  257YOPE   C2B 3216  17.126   4.610   8.725  0.1354  0.0653 -0.0516
  257YOPE   D3B 3217  17.189   4.788   8.338 -0.1717  0.4088 -0.1262
  257YOPE   C4B 3218  17.148   4.781   7.917 -0.2202 -0.1560 -0.0925
  258YOPE   NH3 3219   6.911  16.648  10.487 -0.1855 -0.0010  0.1159
  258YOPE   PO4 3220   7.000  16.898  10.137  0.2377 -0.1259  0.0406
  258YOPE   GL1 3221   6.687  16.925   9.833 -0.1617 -0.0327  0.3531
  258YOPE   GL2 3222   6.848  16.875   9.551  0.0194 -0.1478 -0.1377
  258YOPE   C1A 3223   6.371  17.129   9.503  0.2397 -0.3136  0.1619
  258YOPE   D2A 3224   6.233  17.297   9.079  0.0015  0.2480 -0.4358
  258YOPE   C3A 3225   6.526  17.376   8.799  0.0831 -0.0955 -0.1599
  258YOPE   C4A 3226   6.600  17.475   8.372  0.1131 -0.1022  0.2375
  258YOPE   C1B 3227   6.572  16.803   9.229  0.0626  0.1663  0.0175
  258YOPE   C2B 3228   6.444  16.868   8.835 -0.0111 -0.1011 -0.1025
  258YOPE   D3B 3229   6.288  16.909   8.467  0.0501  0.2416  0.1285
  258YOPE   C4B 3230   6.009  16.926   8.051 -0.0878 -0.0020 -0.0594
  259YOPE   NH3 3231   0.056  17.399  10.587  0.0537  0.0379 -0.0625
  259YOPE   PO4 3232   0.500  17.183  10.693 -0.0326 -0.2655 -0.1092
  259YOPE   GL1 3233   0.384  17.197  10.267 -0.1259 -0.3066 -0.2876
  259YOPE   GL2 3234   0.629  17.285  10.041  0.2064  0.2496 -0.0272
  259YOPE   C1A 3235   0.315  16.907  10.092  0.1194 -0.2766 -0.3564
  259YOPE   D2A 3236   0.235  16.447  10.164 -0.1174  0.1235  0.0926
  259YOPE   C3A 3237   0.107  16.279   9.748  0.0695  0.1121 -0.0323
  259YOPE   C4A 3238  -0.098  16.507   9.554 -0.2068 -0.2147  0.0590
  259YOPE   C1B 3239   0.488  17.040   9.653  0.2568  0.0486  0.0471
  259YOPE   C2B 3240   0.545  16.678   9.568  0.2905  0.1735  0.0804
  259YOPE   D3B 3241   0.352  16.430   9.319 -0.0223  0.0119  0.1906
  259YOPE   C4B 3242  -0.017  16.418   9.043 -0.1120  0.2791  0.2445
  260YOPE   NH3 3243   3.518  10.843  10.537  0.1400  0.0003 -0.1148
  260YOPE   PO4 3244   3.146  10.879  10.307 -0.1885 -0.2291  0.1549
  260YOPE   GL1 3245   2.999  11.023   9.984  0.0464  0.0468  0.1633
  260YOPE   GL2 3246   2.673  10.812   9.849  0.0850 -0.3656  0.1070
  260YOPE   C1A 3247   2.918  11.187   9.557  0.0792  0.1496 -0.0698
  260YOPE   D2A 3248   2.815  11.001   9.190 -0.0657  0.0673  0.1286
  260YOPE   C3A 3249   2.822  11.245   8.760 -0.0690 -0.1738  0.1253
  260YOPE   C4A 3250   2.406  11.435   8.533  0.0272  0.0379 -0.1077
  260YOPE   C1B 3251   2.635  10.621   9.448  0.0430  0.0836 -0.0019
  260YOPE   C2B 3252   2.692  10.406   9.064 -0.0171  0.2892 -0.1617
  260YOPE   D3B 3253   2.828  10.269   8.708 -0.1060  0.2240 -0.1183
  260YOPE   C4B 3254   3.203  10.075   8.713 -0.1372  0.1377  0.0202
  261YOPE   NH3 3255  16.136   7.184  10.615  0.0010  0.2284  0.1732
  261YOPE   PO4 3256  16.549   7.126  10.505 -0.0383  0.1328 -0.1263
  261YOPE   GL1 3257  16.564   7.331  10.064  0.1408 -0.2594  0.0517
  261YOPE   GL2 3258  16.508   7.600  10.174  0.1521  0.1900 -0.0843
  261YOPE   C1A 3259  16.412   7.326   9.600 -0.3066 -0.6215 -0.0954
  261YOPE   D2A 3260  16.378   7.685   9.241 -0.0096  0.2641 -0.1202
  261YOPE   C3A 3261  16.626   7.492   8.926 -0.2209  0.0235  0.0179
  261YOPE   C4A 3262  16.596   7.429   8.479  0.1806  0.2493 -0.0028
  261YOPE   C1B 3263  16.699   7.689   9.699 -0.1541 -0.0333 -0.0203
  261YOPE   C2B 3264  16.870   7.547   9.336 -0.0969 -0.0153  0.0074
  261YOPE   D3B 3265  17.120   7.390   9.071  0.0037  0.4005  0.2267
  261YOPE   C4B 3266  17.057   7.308   8.641 -0.1427  0.0428 -0.2714
  262YOPE   NH3 3267   3.852   6.343  10.210 -0.0695  0.1104 -0.0793
  262YOPE   PO4 3268   3.410   6.620  10.188 -0.0376  0.2974 -0.0141
  262YOPE   GL1 3269   3.118   6.470   9.892 -0.0853 -0.3057 -0.1862
  262YOPE   GL2 3270   2.720   6.351   9.929 -0.0627 -0.1536 -0.1065
  262YOPE   C1A 3271   3.155   6.370   9.457 -0.1824 -0.2079  0.1305
  262YOPE   D2A 3272   3.171   6.023   9.121 -0.1471 -0.0370 -0.0374
  262YOPE   C3A 3273   3.346   6.080   8.864  0.1249  0.1736  0.2546
  262YOPE   C4A 3274   3.491   5.919   8.488 -0.1263 -0.1843 -0.2420
  262YOPE   C1B 3275   2.724   6.585   9.550  0.1199 -0.0504 -0.0401
  262YOPE   C2B 3276   2.383   6.523   9.192 -0.0100 -0.0299  0.1489
  262YOPE   D3B 3277   2.190   6.448   8.724 -0.2439 -0.1011 -0.0074
  262YOPE   C4B 3278   1.794   6.587   8.600 -0.0219  0.1965 -0.0598
  263YOPE   NH3 3279  12.821   9.556  10.366 -0.2237 -0.1375  0.2843
  263YOPE   PO4 3280  12.878   9.712  10.004  0.3358 -0.1085  0.3555
  263YOPE   GL1 3281  13.178   9.954   9.727  0.1618  0.2048  0.1031
  263YOPE   GL2 3282  13.460   9.764   9.621 -0.1315  0.1493 -0.2203
  263YOPE   C1A 3283  12.903   9.978   9.351  0.2710 -0.0415 -0.1969
  263YOPE   D2A 3284  12.739   9.630   9.073  0.1599 -0.0950 -0.2442
  263YOPE   C3A 3285  12.851   9.235   9.168 -0.0491  0.2319  0.5106
  263YOPE   C4A 3286  12.846   8.882   8.921  0.2531  0.2751  0.0484
  263YOPE   C1B 3287  13.571  10.032   9.316  0.1624 -0.5090 -0.1500
  263YOPE   C2B 3288  13.377  10.090   9.012 -0.0391 -0.0343 -0.0040
  263YOPE   D3B 3289  13.007   9.952   8.845 -0.1032 -0.1237  0.0929
  263YOPE   C4B 3290  12.789  10.071   8.594  0.0624 -0.0211 -0.0885
  264YOPE   NH3 3291   6.158  11.978  10.549 -0.0363 -0.2563  0.0220
  264YOPE   PO4 3292   6.004  12.404  10.727 -0.1045 -0.0766 -0.1446
  264YOPE   GL1 3293   5.740  12.353  10.424 -0.1668 -0.1122  0.1163
  264YOPE   GL2 3294   5.778  12.122  10.221 -0.0704  0.2776  0.0210
  264YOPE   C1A 3295   5.463  12.548  10.181  0.1643 -0.1840  0.2528
  264YOPE   D2A 3296   5.064  12.378  10.138 -0.2779  0.0203 -0.0094
  264YOPE   C3A 3297   5.014  12.036   9.861 -0.1046  0.0972  0.0330
  264YOPE   C4A 3298   4.699  11.836   9.635 -0.1548  0.0403  0.0120
  264YOPE   C1B 3299   5.517  12.148   9.881  0.1929 -0.2701 -0.3795
  264YOPE   C2B 3300   5.297  12.015   9.461 -0.1725  0.0118 -0.4347
  264YOPE   D3B 3301   5.000  11.866   9.250  0.0289 -0.1282 -0.2623
  264YOPE   C4B 3302   4.637  12.012   9.079  0.2380 -0.0354  0.0173
  265YOPE   NH3 3303  14.509   2.274  10.180 -0.3434 -0.0488 -0.3908
  265YOPE   PO4 3304  14.319   2.317   9.775 -0.0153  0.1774  0.1792
  265YOPE   GL1 3305  14.769   2.258   9.712 -0.0368  0.0807 -0.1040
  265YOPE   GL2 3306  15.022   2.438   9.579 -0.1188 -0.1626 -0.1659
  265YOPE   C1A 3307  14.957   2.073   9.296 -0.1235 -0.2902  0.1423
  265YOPE   D2A 3308  15.227   1.943   8.917  0.0585  0.1476  0.0431
  265YOPE   C3A 3309  15.563   2.221   8.779  0.1410  0.1152 -0.1896
  265YOPE   C4A 3310  15.910   2.418   8.805 -0.1023  0.0964  0.1216
  265YOPE   C1B 3311  14.719   2.621   9.275  0.2133  0.1352  0.0176
  265YOPE   C2B 3312  14.716   2.519   8.790  0.1007  0.2254  0.2618
  265YOPE   D3B 3313  14.554   2.357   8.437 -0.0358  0.2222  0.3241
  265YOPE   C4B 3314  14.447   2.470   8.067  0.4445  0.0765  0.0994
  266YOPE   NH3 3315  10.156   4.103   9.831 -0.0738  0.1573  0.1352
  266YOPE   PO4 3316   9.762   3.862  10.081  0.2312  0.1365 -0.1033
  266YOPE   GL1 3317   9.821   3.749   9.622 -0.1391  0.0727 -0.1885
  266YOPE   GL2 3318   9.932   3.917   9.435 -0.0039 -0.0178 -0.0695
  266YOPE   C1A 3319  10.104   3.453   9.481 -0.2589  0.2120 -0.2707
  266YOPE   D2A 3320  10.256   3.217   9.075 -0.3363 -0.1047 -0.0119
  266YOPE   C3A 3321  10.366   3.414   8.675  0.1376  0.0400  0.3168
  266YOPE   C4A 3322  10.312   3.328   8.280 -0.1843 -0.0447  0.2135
  266YOPE   C1B 3323   9.770   4.101   9.110  0.4595 -0.0401  0.1346
  266YOPE   C2B 3324   9.709   4.125   8.672  0.1731  0.2005 -0.1051
  266YOPE   D3B 3325   9.650   4.118   8.305  0.5683  0.0337  0.3164
  266YOPE   C4B 3326   9.364   4.030   8.034  0.2551  0.3463  0.0775
  267YOPE   NH3 3327  15.724   5.401  10.257 -0.2578  0.3667 -0.2400
  267YOPE   PO4 3328  15.971   5.168   9.973 -0.1460 -0.0527  0.1653
  267YOPE   GL1 3329  15.808   5.173   9.584  0.0195  0.0295 -0.3166
  267YOPE   GL2 3330  16.099   5.185   9.456  0.0378 -0.4139  0.2731
  267YOPE   C1A 3331  15.655   5.118   9.176 -0.0217  0.3281  0.0984
  267YOPE   D2A 3332  15.322   5.033   8.947  0.2073 -0.0773 -0.1150
  267YOPE   C3A 3333  15.398   4.953   8.575 -0.3508  0.3985 -0.1550
  267YOPE   C4A 3334  15.551   4.638   8.162 -0.0617  0.0563 -0.0481
  267YOPE   C1B 3335  16.477   4.997   9.232 -0.2177  0.1693  0.0360
  267YOPE   C2B 3336  16.591   4.853   8.819 -0.0535 -0.1221 -0.0777
  267YOPE   D3B 3337  16.725   4.589   8.394  0.1167  0.0385 -0.0331
  267YOPE   C4B 3338  16.761   4.507   8.059 -0.1079  0.1429  0.0452
  268POPC   NC3 3339   7.981   1.950  10.303 -0.0752 -0.0009 -0.1185
  268POPC   PO4 3340   7.919   2.441  10.271  0.0283 -0.0689  0.0221
  268POPC   GL1 3341   8.096   2.360   9.897  0.2031  0.2171 -0.0081
  268POPC   GL2 3342   8.225   2.052   9.876  0.1526  0.2945 -0.2559
  268POPC   C1A 3343   7.890   2.300   9.495  0.0017  0.2232 -0.2068
  268POPC   D2A 3344   7.562   1.978   9.443  0.0781  0.0635 -0.0674
  268POPC   C3A 3345   7.572   1.778   8.966  0.3141 -0.0191 -0.3093
  268POPC   C4A 3346   7.467   1.905   8.546  0.1046 -0.2375 -0.1641
  268POPC   C1B 3347   8.129   1.829   9.491  0.2211 -0.3291  0.1907
  268POPC   C2B 3348   8.041   1.882   8.990  0.0067  0.0259 -0.0907
  268POPC   C3B 3349   8.002   1.636   8.630 -0.0797 -0.1396  0.1602
  268POPC   C4B 3350   8.036   1.177   8.501 -0.2858  0.1553 -0.0223
  269POPC   NC3 3351   6.990   9.231  10.591 -0.3556 -0.1505 -0.2630
  269POPC   PO4 3352   6.863   8.775  10.593  0.2586 -0.0518  0.0488
  269POPC   GL1 3353   6.858   8.761  10.207  0.1545  0.2171  0.0217
  269POPC   GL2 3354   7.250   8.720  10.214 -0.0420  0.0414  0.2607
  269POPC   C1A 3355   6.962   8.889   9.745  0.0444  0.2146 -0.0790
  269POPC   D2A 3356   7.132   9.028   9.407  0.0623 -0.2082 -0.2156
  269POPC   C3A 3357   7.082   9.235   9.086 -0.0974 -0.0316 -0.2888
  269POPC   C4A 3358   7.144   9.623   8.811 -0.1260  0.2030 -0.0337
  269POPC   C1B 3359   7.382   8.642   9.830  0.1806 -0.0439  0.3042
  269POPC   C2B 3360   7.483   8.728   9.422 -0.1234  0.1922 -0.0232
  269POPC   C3B 3361   7.451   8.865   8.981 -0.2869  0.0304  0.0894
  269POPC   C4B 3362   7.463   9.212   8.644  0.2977 -0.2390 -0.0659
  270POPC   NC3 3363  13.445   9.789  10.116 -0.0128  0.2518  0.2644
  270POPC   PO4 3364  13.926   9.661  10.175 -0.0900 -0.1014 -0.0005
  270POPC   GL1 3365  14.101   9.701   9.754  0.2302  0.2142 -0.0877
  270POPC   GL2 3366  14.385   9.682   9.768 -0.1941 -0.3409 -0.1901
  270POPC   C1A 3367  14.282   9.679   9.254 -0.2047  0.0527 -0.1413
  270POPC   D2A 3368  14.412  10.002   9.062  0.4077  0.3283 -0.1344
  270POPC   C3A 3369  14.752   9.971   8.803  0.0871 -0.2301  0.3427
  270POPC   C4A 3370  15.075   9.736   8.587 -0.0155  0.0595 -0.0342
  270POPC   C1B 3371  14.708   9.879   9.513 -0.0449 -0.1346 -0.0895
  270POPC   C2B 3372  15.045   9.946   9.162 -0.0873 -0.2299  0.0563
  270POPC   C3B 3373  15.432   9.862   8.938  0.2374  0.1819 -0.1618
  270POPC   C4B 3374  15.524   9.660   8.603 -0.2386 -0.1232 -0.2258
  271POPC   NC3 3375   9.362  14.774   9.968 -0.4093  0.3760  0.1612
  271POPC   PO4 3376   9.626  15.252   9.978 -0.0757  0.0513  0.0494
  271POPC   GL1 3377   9.269  15.242   9.615  0.2350  0.1953  0.0911
  271POPC   GL2 3378   9.139  14.957   9.509  0.3523 -0.3382  0.2670
  271POPC   C1A 3379   8.991  15.469   9.290 -0.3814 -0.0016  0.0688
  271POPC   D2A 3380   8.892  15.596   8.838  0.1127  0.1533  0.1097
  271POPC   C3A 3381   9.035  15.879   8.519 -0.0931 -0.0714 -0.2982
  271POPC   C4A 3382   9.277  16.009   8.193 -0.0773 -0.2138 -0.1111
  271POPC   C1B 3383   9.000  15.068   9.024  0.3937  0.1970 -0.1073
  271POPC   C2B 3384   8.971  15.016   8.554 -0.0680 -0.1435  0.3007
  271POPC   C3B 3385   8.928  15.338   8.250  0.1242 -0.1297  0.1070
  271POPC   C4B 3386   8.923  15.662   8.014  0.1192  0.1508 -0.0700
  272POPC   NC3 3387   9.401  15.702   9.890  0.1092  0.1305 -0.0211
  272POPC   PO4 3388   9.285  16.059   9.725 -0.3142  0.1485  0.0875
  272POPC   GL1 3389   9.440  16.188   9.322 -0.0695 -0.1834  0.0324
  272POPC   GL2 3390   9.628  16.403   9.331 -0.1972 -0.2472  0.2962
  272POPC   C1A 3391   9.790  16.035   9.023 -0.0511 -0.2648  0.0898
  272POPC   D2A 3392  10.141  16.169   8.689 -0.0882 -0.0438  0.2466
  272POPC   C3A 3393  10.325  16.239   8.261 -0.0049 -0.2704  0.1577
  272POPC   C4A 3394  10.658  16.293   8.070 -0.0916  0.0018  0.0333
  272POPC   C1B 3395   9.498  16.471   8.829  0.0760 -0.1101 -0.1704
  272POPC   C2B 3396   9.115  16.364   8.555 -0.2127  0.3238 -0.2872
  272POPC   C3B 3397   8.824  16.379   8.345 -0.0253  0.3491  0.1917
  272POPC   C4B 3398   8.557  16.182   8.031 -0.1001 -0.1108  0.0261
  273POPC   NC3 3399  11.922   0.183   9.982  0.1496 -0.3031 -0.0712
  273POPC   PO4 3400  11.729   0.572  10.217  0.2184 -0.0838 -0.0088
  273POPC   GL1 3401  11.814   0.760   9.830  0.0802 -0.0570  0.0186
  273POPC   GL2 3402  11.573   0.676   9.638 -0.2151  0.0187 -0.0617
  273POPC   C1A 3403  11.979   0.779   9.449  0.3772  0.0791  0.0264
  273POPC   D2A 3404  11.958   0.734   8.991 -0.1330  0.1306 -0.2640
  273POPC   C3A 3405  12.325   0.496   8.851 -0.0700 -0.2214  0.1015
  273POPC   C4A 3406  12.598   0.488   8.554 -0.2245 -0.2028  0.1485
  273POPC   C1B 3407  11.481   0.624   9.219  0.1112 -0.0888  0.3826
  273POPC   C2B 3408  11.313   0.540   8.896  0.0287 -0.0312  0.2401
  273POPC   C3B 3409  11.229   0.608   8.398 -0.1303 -0.0550  0.0368
  273POPC   C4B 3410  10.894   0.746   7.960 -0.0763 -0.1561  0.2850
  274POPC   NC3 3411   9.352  17.386  10.033  0.0855  0.1687  0.0404
  274POPC   PO4 3412   9.148  17.368   9.658 -0.0275  0.1080 -0.1096
  274POPC   GL1 3413   9.080  17.690   9.394  0.1704  0.0260 -0.0122
  274POPC   GL2 3414   8.807  17.748   9.230 -0.0143  0.0101 -0.1070
  274POPC   C1A 3415   9.408  17.857   9.187 -0.1865  0.1629  0.0096
  274POPC   D2A 3416   9.347  17.940   8.788  0.0291  0.1198  0.0523
  274POPC   C3A 3417   9.527  18.059   8.529  0.0347  0.1262 -0.3489
  274POPC   C4A 3418   9.831  18.078   8.133  0.0148  0.0339  0.2823
  274POPC   C1B 3419   8.794  17.862   8.760  0.0391  0.2908  0.2254
  274POPC   C2B 3420   8.875  17.764   8.320  0.1366  0.0585  0.1600
  274POPC   C3B 3421   8.707  18.042   8.085  0.2687 -0.1208  0.1925
  274POPC   C4B 3422   8.556  18.383   7.852 -0.1101  0.1084  0.3661
  275POPC   NC3 3423   5.794   1.060  10.396  0.3814  0.4207  0.1696
  275POPC   PO4 3424   5.584   0.578  10.205  0.0334 -0.1024  0.3567
  275POPC   GL1 3425   5.546   0.399   9.908 -0.0535 -0.0090  0.2242
  275POPC   GL2 3426   5.272   0.221   9.992 -0.2206 -0.2612  0.0050
  275POPC   C1A 3427   5.653   0.159   9.516  0.3597  0.2528  0.0531
  275POPC   D2A 3428   5.700  -0.148   9.225 -0.2576 -0.0106 -0.2622
  275POPC   C3A 3429   5.952  -0.007   8.847 -0.0918 -0.1250 -0.3089
  275POPC   C4A 3430   6.160   0.113   8.447  0.1735 -0.1728  0.0735
  275POPC   C1B 3431   5.121   0.048   9.575 -0.0257  0.0287 -0.2213
  275POPC   C2B 3432   5.179  -0.065   9.201  0.1198  0.1667  0.1386
  275POPC   C3B 3433   5.395  -0.135   8.858 -0.0039  0.0775 -0.2017
  275POPC   C4B 3434   5.433  -0.467   8.630 -0.2482 -0.2996 -0.0980
  276POPC   NC3 3435  12.409   1.605   9.900 -0.0452  0.0638  0.1416
  276POPC   PO4 3436  12.835   1.750  10.039 -0.1001  0.0585 -0.1970
  276POPC   GL1 3437  13.008   1.608   9.734 -0.0502 -0.0112 -0.0058
  276POPC   GL2 3438  13.229   1.365   9.880  0.1769  0.3687  0.0144
  276POPC   C1A 3439  13.097   1.572   9.217 -0.1903 -0.0939 -0.0106
  276POPC   D2A 3440  13.470   1.679   8.849  0.1382 -0.0702 -0.3011
  276POPC   C3A 3441  13.592   1.458   8.510  0.1161  0.2308  0.1086
  276POPC   C4A 3442  13.741   1.137   8.322 -0.3622  0.0580 -0.0328
  276POPC   C1B 3443  13.190   1.179   9.524  0.1192 -0.0468  0.2488
  276POPC   C2B 3444  13.230   1.143   9.041 -0.1601  0.2149 -0.0827
  276POPC   C3B 3445  13.370   1.059   8.676  0.1338 -0.0572  0.0454
  276POPC   C4B 3446  13.493   0.760   8.403  0.1856  0.1360  0.1506
  277POPC   NC3 3447   0.906   2.324  10.634 -0.0571  0.0948 -0.1278
  277POPC   PO4 3448   0.965   1.889  10.655  0.0812  0.2573 -0.0143
  277POPC   GL1 3449   0.902   1.995  10.201  0.1770  0.1362  0.1032
  277POPC   GL2 3450   0.744   2.215  10.051 -0.0499  0.0742 -0.2810
  277POPC   C1A 3451   0.810   1.739   9.892 -0.1416 -0.0315  0.0909
  277POPC   D2A 3452   0.544   1.452   9.577  0.3367  0.2233 -0.1053
  277POPC   C3A 3453   0.591   1.241   9.184  0.0129  0.0344  0.0370
  277POPC   C4A 3454   0.767   1.103   8.782 -0.0634 -0.1000 -0.1606
  277POPC   C1B 3455   0.725   2.196   9.628 -0.2706 -0.0164  0.0007
  277POPC   C2B 3456   0.796   2.078   9.140 -0.1414  0.0906 -0.1180
  277POPC   C3B 3457   1.073   1.980   8.731 -0.0205 -0.3463 -0.0739
  277POPC   C4B 3458   1.046   1.713   8.537 -0.1140 -0.1860  0.0740
  278POPC   NC3 3459   4.972   6.069   9.952 -0.0998 -0.0607 -0.0489
  278POPC   PO4 3460   5.216   6.264  10.147  0.0874 -0.0893 -0.0345
  278POPC   GL1 3461   4.952   6.479   9.763  0.0434  0.1026  0.1271
  278POPC   GL2 3462   4.980   6.735   9.616 -0.0912  0.0545 -0.3712
  278POPC   C1A 3463   4.917   6.188   9.311  0.1427  0.0457 -0.0201
  278POPC   D2A 3464   4.738   5.954   8.980  0.1503  0.2004 -0.0858
  278POPC   C3A 3465   4.773   6.067   8.488  0.0898 -0.0230  0.0012
  278POPC   C4A 3466   4.700   5.995   8.084  0.1073 -0.0263  0.0015
  278POPC   C1B 3467   5.022   6.636   9.200  0.3388 -0.3313  0.2087
  278POPC   C2B 3468   5.021   6.423   8.788 -0.0622  0.1095 -0.0652
  278POPC   C3B 3469   5.109   6.489   8.435  0.4362  0.3697  0.0814
  278POPC   C4B 3470   5.333   6.557   8.079 -0.1357 -0.3105 -0.1332
  279POPC   NC3 3471   5.294  10.816  10.861  0.0047 -0.0966 -0.0654
  279POPC   PO4 3472   5.660  10.760  10.804 -0.2361 -0.1036 -0.0580
  279POPC   GL1 3473   5.883  10.571  10.524 -0.0228 -0.2009  0.0600
  279POPC   GL2 3474   6.210  10.701  10.395 -0.2744  0.0519 -0.1426
  279POPC   C1A 3475   5.922  10.316  10.116  0.3139 -0.2035  0.1928
  279POPC   D2A 3476   6.003  10.106   9.717  0.3809  0.3097  0.0266
  279POPC   C3A 3477   6.286  10.139   9.365  0.2016  0.0868 -0.1950
  279POPC   C4A 3478   6.356   9.862   9.069  0.0108  0.2768  0.1512
  279POPC   C1B 3479   6.397  10.177  10.337 -0.1672  0.2502 -0.0327
  279POPC   C2B 3480   6.434  10.033   9.902 -0.0782  0.2630 -0.1279
  279POPC   C3B 3481   6.574   9.771   9.705  0.0509  0.0134 -0.0128
  279POPC   C4B 3482   6.328   9.508   9.411  0.0672  0.3816  0.0498
  280POPC   NC3 3483  17.822   0.727  10.586 -0.0458 -0.0216 -0.0900
  280POPC   PO4 3484  18.212   0.892  10.640 -0.2624  0.1297 -0.0016
  280POPC   GL1 3485  18.120   0.892  10.200 -0.2513 -0.2492 -0.1517
  280POPC   GL2 3486  18.060   1.083   9.876  0.1046  0.2314 -0.0402
  280POPC   C1A 3487  18.123   0.607   9.958  0.3961  0.3534 -0.0689
  280POPC   D2A 3488  17.823   0.361   9.649 -0.3600 -0.0334 -0.2597
  280POPC   C3A 3489  17.771   0.417   9.242  0.0610 -0.1174  0.1675
  280POPC   C4A 3490  17.527   0.358   8.866 -0.0020  0.1601  0.2264
  280POPC   C1B 3491  17.849   1.289   9.456  0.2597  0.1872 -0.1248
  280POPC   C2B 3492  17.733   1.444   9.012  0.1565 -0.3802 -0.0629
  280POPC   C3B 3493  17.713   1.238   8.578  0.0022 -0.3564 -0.6685
  280POPC   C4B 3494  18.083   1.036   8.486 -0.0020  0.1264 -0.0718
  281POPC   NC3 3495  10.069  17.828   9.998 -0.2160  0.3162  0.3107
  281POPC   PO4 3496   9.799  18.171   9.869 -0.0414 -0.0066 -0.1975
  281POPC   GL1 3497   9.914  18.098   9.503 -0.2421  0.1846 -0.0098
  281POPC   GL2 3498  10.262  18.048   9.480  0.2046  0.1178 -0.1281
  281POPC   C1A 3499  10.131  18.412   9.107  0.2899 -0.0031  0.0295
  281POPC   D2A 3500   9.962  18.861   9.019  0.2416  0.2326  0.2516
  281POPC   C3A 3501   9.789  19.175   9.258 -0.1480  0.0965 -0.1848
  281POPC   C4A 3502   9.734  19.150   9.713  0.0425  0.6780  0.1780
  281POPC   C1B 3503  10.389  17.964   9.181  0.1921  0.4051  0.0608
  281POPC   C2B 3504  10.386  18.090   8.750 -0.0580  0.0325 -0.0037
  281POPC   C3B 3505  10.479  18.229   8.469 -0.2400  0.0129 -0.1528
  281POPC   C4B 3506  10.415  18.117   8.050  0.0088  0.0095  0.2562
  282POPC   NC3 3507   8.690  13.842  10.134  0.1725  0.0705  0.0006
  282POPC   PO4 3508   8.729  14.071   9.744  0.0768  0.0313  0.1702
  282POPC   GL1 3509   8.882  14.210   9.340 -0.0708 -0.0323 -0.1960
  282POPC   GL2 3510   9.108  14.413   9.486 -0.1159 -0.3217 -0.0264
  282POPC   C1A 3511   8.977  14.196   8.916 -0.1464  0.1280  0.0836
  282POPC   D2A 3512   8.919  14.163   8.456 -0.0222  0.0707 -0.0699
  282POPC   C3A 3513   8.817  13.818   8.165  0.1702  0.0380  0.0858
  282POPC   C4A 3514   8.783  13.697   7.706  0.2283 -0.1108  0.2658
  282POPC   C1B 3515   9.282  14.555   9.153  0.0668 -0.2053  0.2743
  282POPC   C2B 3516   9.295  14.551   8.720  0.0593  0.1947 -0.1770
  282POPC   C3B 3517   9.180  14.606   8.366 -0.0962  0.1644 -0.0553
  282POPC   C4B 3518   9.018  14.808   8.068  0.0790 -0.1628 -0.0095
  283POPC   NC3 3519  17.369  16.589  10.568 -0.4655 -0.1619  0.0492
  283POPC   PO4 3520  17.168  16.221  10.326 -0.1217  0.1414  0.0399
  283POPC   GL1 3521  17.239  16.067   9.944 -0.2734  0.1093 -0.0670
  283POPC   GL2 3522  17.480  15.897  10.068 -0.0207 -0.5295  0.0533
  283POPC   C1A 3523  17.495  15.887   9.555 -0.2804 -0.3716  0.0614
  283POPC   D2A 3524  17.303  15.734   9.224  0.0381  0.1280  0.1101
  283POPC   C3A 3525  17.087  15.802   8.910  0.1275 -0.0798  0.1983
  283POPC   C4A 3526  16.813  15.964   8.627  0.0953 -0.1729  0.1423
  283POPC   C1B 3527  17.885  15.777   9.922  0.1171  0.0187  0.0396
  283POPC   C2B 3528  18.030  15.672   9.580  0.1214  0.1805  0.6021
  283POPC   C3B 3529  17.794  15.703   9.147 -0.0170 -0.1943 -0.2232
  283POPC   C4B 3530  17.535  15.582   8.813  0.0734  0.1629  0.0694
  284POPC   NC3 3531  10.728   8.718  10.276  0.1139  0.1324  0.1003
  284POPC   PO4 3532  10.787   9.124  10.125 -0.0813  0.1930 -0.0600
  284POPC   GL1 3533  10.981   9.276   9.673  0.0356  0.2520  0.1014
  284POPC   GL2 3534  10.771   9.232   9.581  0.1468  0.0973 -0.2897
  284POPC   C1A 3535  11.284   9.339   9.402 -0.3070 -0.0631  0.2551
  284POPC   D2A 3536  11.430   9.123   9.181 -0.1643  0.1855  0.0840
  284POPC   C3A 3537  11.592   9.285   8.832  0.0040  0.0353  0.0771
  284POPC   C4A 3538  11.751   9.332   8.412 -0.0258  0.4216  0.3506
  284POPC   C1B 3539  10.802   9.357   9.181  0.0133  0.0306 -0.3396
  284POPC   C2B 3540  11.105   9.353   8.863  0.0091 -0.0834  0.1198
  284POPC   C3B 3541  11.263   9.173   8.493  0.1758  0.1229  0.0556
  284POPC   C4B 3542  11.198   9.082   8.034 -0.1241  0.1181 -0.2723
  285POPC   NC3 3543  16.493   0.679  10.628  0.6383 -0.3260  0.0492
  285POPC   PO4 3544  16.240   0.393  10.726 -0.2061 -0.1573 -0.1937
  285POPC   GL1 3545  16.173   0.314  10.259 -0.1505  0.0165 -0.2095
  285POPC   GL2 3546  15.987   0.637  10.079  0.1140 -0.0032 -0.0703
  285POPC   C1A 3547  15.914   0.171   9.873 -0.1224 -0.2567  0.0506
  285POPC   D2A 3548  15.858   0.201   9.421  0.0393 -0.0522  0.4568
  285POPC   C3A 3549  15.778  -0.139   9.140 -0.0832 -0.2195  0.2429
  285POPC   C4A 3550  15.903  -0.400   8.818  0.1632 -0.0419  0.3479
  285POPC   C1B 3551  15.984   0.743   9.586 -0.2674  0.2088  0.0649
  285POPC   C2B 3552  15.924   0.712   9.142 -0.1040  0.2549  0.1380
  285POPC   C3B 3553  15.753   0.750   8.750 -0.1928 -0.0104  0.0178
  285POPC   C4B 3554  15.964   0.856   8.374  0.1027 -0.1108  0.2483
  286POPC   NC3 3555   5.282   3.875  10.046 -0.1450  0.2026 -0.4215
  286POPC   PO4 3556   5.650   3.847  10.250 -0.0455 -0.4787 -0.0003
  286POPC   GL1 3557   5.542   3.507   9.815  0.1422  0.0676 -0.0760
  286POPC   GL2 3558   5.365   3.161   9.839  0.1364  0.1341 -0.0305
  286POPC   C1A 3559   5.412   3.556   9.375  0.0168  0.1190 -0.1544
  286POPC   D2A 3560   5.369   3.650   8.898 -0.3181  0.3751  0.1478
  286POPC   C3A 3561   5.657   3.624   8.586 -0.1149 -0.3736  0.2924
  286POPC   C4A 3562   5.883   3.697   8.254  0.1545  0.0571  0.0209
  286POPC   C1B 3563   5.283   2.996   9.436  0.0468  0.2104 -0.0269
  286POPC   C2B 3564   5.186   3.175   8.981  0.3161 -0.1933 -0.2836
  286POPC   C3B 3565   5.227   3.242   8.584  0.3667  0.1592 -0.0472
  286POPC   C4B 3566   5.541   3.301   8.131  0.2558 -0.2320  0.0721
  287POPC   NC3 3567   9.032   8.862  10.295  0.0859 -0.0202  0.0131
  287POPC   PO4 3568   9.417   8.728  10.282 -0.1220  0.0705  0.0320
  287POPC   GL1 3569   9.191   8.372  10.109  0.0894 -0.2325  0.1428
  287POPC   GL2 3570   8.860   8.367  10.240  0.1510  0.0453 -0.0360
  287POPC   C1A 3571   9.020   8.003   9.899  0.0708  0.0001  0.2287
  287POPC   D2A 3572   9.116   7.858   9.395 -0.0569 -0.1253 -0.2101
  287POPC   C3A 3573   9.181   8.027   9.140  0.0556  0.1202 -0.0900
  287POPC   C4A 3574   9.324   8.242   8.675 -0.0456 -0.0264  0.0544
  287POPC   C1B 3575   8.689   8.447   9.840 -0.4195 -0.2917  0.0515
  287POPC   C2B 3576   8.506   8.541   9.447 -0.0744 -0.0165 -0.2469
  287POPC   C3B 3577   8.520   8.557   8.969  0.2098  0.0524  0.1148
  287POPC   C4B 3578   8.407   8.695   8.680 -0.1337 -0.0020 -0.2412
  288POPC   NC3 3579   2.364   3.430  10.404 -0.4888  0.1099 -0.1873
  288POPC   PO4 3580   2.829   3.315  10.398  0.0791  0.0258 -0.0874
  288POPC   GL1 3581   2.978   3.560  10.153 -0.0064 -0.1660  0.1126
  288POPC   GL2 3582   3.212   3.443  10.017  0.2252 -0.0556  0.0733
  288POPC   C1A 3583   2.906   3.598   9.704 -0.0529  0.0322  0.3747
  288POPC   D2A 3584   2.638   3.375   9.453 -0.2857 -0.2052 -0.0706
  288POPC   C3A 3585   2.482   3.069   9.630 -0.0192 -0.2881 -0.0619
  288POPC   C4A 3586   2.030   2.860   9.591 -0.0093 -0.0126 -0.1321
  288POPC   C1B 3587   3.333   3.374   9.620  0.0178 -0.0325 -0.1924
  288POPC   C2B 3588   3.429   3.290   9.160 -0.3000 -0.1552 -0.1369
  288POPC   C3B 3589   3.598   3.287   8.754 -0.0292 -0.0624 -0.1036
  288POPC   C4B 3590   3.876   3.641   8.645 -0.0097  0.1508  0.0008
  289POPC   NC3 3591   2.775  14.414  10.817 -0.4132  0.1098 -0.0621
  289POPC   PO4 3592   2.677  14.009  10.579 -0.1988 -0.4400  0.0810
  289POPC   GL1 3593   2.353  14.013  10.344 -0.0721  0.2054 -0.1273
  289POPC   GL2 3594   2.100  13.883  10.429  0.0305  0.0593  0.4516
  289POPC   C1A 3595   2.488  13.973   9.973 -0.1034  0.2026  0.1536
  289POPC   D2A 3596   2.321  13.730   9.617  0.0789 -0.1431  0.1256
  289POPC   C3A 3597   2.477  13.743   9.185  0.0059  0.0783  0.3361
  289POPC   C4A 3598   2.623  13.681   8.787 -0.2119 -0.0745  0.3322
  289POPC   C1B 3599   1.870  13.729  10.111  0.1724 -0.2512  0.3394
  289POPC   C2B 3600   1.811  13.820   9.659  0.3351 -0.2687 -0.1946
  289POPC   C3B 3601   1.936  13.900   9.218 -0.0075  0.0278 -0.1167
  289POPC   C4B 3602   2.218  13.980   8.807  0.0181 -0.0065 -0.0250
  290POPC   NC3 3603  13.970  15.648  10.751  0.1989 -0.1996 -0.0876
  290POPC   PO4 3604  13.724  15.281  10.584  0.0594  0.1452  0.2470
  290POPC   GL1 3605  13.677  15.147  10.147 -0.3671 -0.0224  0.0577
  290POPC   GL2 3606  13.938  14.963  10.072 -0.0377 -0.1824 -0.1713
  290POPC   C1A 3607  13.741  15.425   9.900 -0.0832  0.0718 -0.0444
  290POPC   D2A 3608  13.651  15.441   9.468  0.0949  0.2923  0.0169
  290POPC   C3A 3609  13.917  15.658   9.077  0.0408  0.0258  0.3286
  290POPC   C4A 3610  14.315  15.523   8.834  0.4464 -0.0358 -0.0414
  290POPC   C1B 3611  14.034  15.098   9.674  0.2505  0.0001  0.0443
  290POPC   C2B 3612  14.041  15.184   9.283 -0.0737  0.1244  0.1335
  290POPC   C3B 3613  13.898  15.232   8.745 -0.0714 -0.0415 -0.2368
  290POPC   C4B 3614  13.684  15.252   8.406  0.0298  0.2275 -0.1360
  291POPC   NC3 3615  13.749   1.860  10.352  0.0217  0.1516  0.1133
  291POPC   PO4 3616  14.109   1.968  10.533 -0.5626 -0.2026  0.0529
  291POPC   GL1 3617  14.245   1.786  10.136  0.0814 -0.1348 -0.1136
  291POPC   GL2 3618  14.356   1.855   9.919  0.0204  0.1560 -0.2553
  291POPC   C1A 3619  14.049   1.336   9.856 -0.0250  0.0954  0.0516
  291POPC   D2A 3620  13.688   1.196   9.680  0.0533  0.0861  0.2001
  291POPC   C3A 3621  13.610   1.310   9.327  0.0155  0.3846 -0.0004
  291POPC   C4A 3622  13.793   1.185   8.926 -0.1864 -0.2600  0.1727
  291POPC   C1B 3623  14.720   1.783   9.635  0.1783 -0.0610 -0.2965
  291POPC   C2B 3624  14.851   1.588   9.290  0.0813 -0.0468  0.0378
  291POPC   C3B 3625  14.809   1.181   9.100 -0.1576 -0.1130 -0.1327
  291POPC   C4B 3626  14.653   0.803   8.923 -0.2032 -0.0823 -0.1142
  292POPC   NC3 3627   5.652   9.121  10.664  0.1179 -0.0682 -0.0666
  292POPC   PO4 3628   6.074   9.161  10.683 -0.2354  0.2011  0.0252
  292POPC   GL1 3629   6.284   9.445  10.478 -0.1577 -0.0265  0.2782
  292POPC   GL2 3630   6.173   9.713  10.599 -0.1527  0.2609 -0.1266
  292POPC   C1A 3631   6.475   9.498  10.131 -0.5092 -0.0338 -0.2720
  292POPC   D2A 3632   6.632   9.245   9.793  0.2347  0.0341 -0.1984
  292POPC   C3A 3633   6.815   9.450   9.494  0.4133  0.2523 -0.2362
  292POPC   C4A 3634   6.759   9.716   9.177  0.1784 -0.0890  0.0223
  292POPC   C1B 3635   6.076   9.805  10.145  0.1891  0.2154 -0.5218
  292POPC   C2B 3636   6.031   9.589   9.784 -0.2434 -0.0370 -0.3224
  292POPC   C3B 3637   5.918   9.768   9.374  0.2788  0.0050  0.1139
  292POPC   C4B 3638   5.778   9.653   9.011 -0.0092 -0.1236 -0.2364
  293POPC   NC3 3639  12.426  15.121  10.348 -0.1507 -0.1491 -0.1071
  293POPC   PO4 3640  12.236  15.442  10.461  0.1135  0.2334  0.2474
  293POPC   GL1 3641  12.394  15.554  10.093  0.2092  0.1886 -0.3653
  293POPC   GL2 3642  12.255  15.284   9.900  0.1637  0.1970 -0.0456
  293POPC   C1A 3643  12.705  15.704   9.814 -0.2160  0.2653  0.0025
  293POPC   D2A 3644  13.008  15.848   9.507 -0.1241 -0.1142 -0.2323
  293POPC   C3A 3645  13.267  15.602   9.289 -0.2715  0.3545  0.0707
  293POPC   C4A 3646  13.457  15.519   8.911  0.2145 -0.3723 -0.1716
  293POPC   C1B 3647  12.467  15.282   9.632  0.0753  0.1605 -0.0330
  293POPC   C2B 3648  12.417  15.125   9.225  0.0899 -0.0737  0.1113
  293POPC   C3B 3649  12.401  15.416   8.857  0.1983 -0.0605 -0.0518
  293POPC   C4B 3650  12.501  15.780   8.693  0.4135 -0.0906  0.2296
  294POPC   NC3 3651  15.846  11.712  10.488  0.1584  0.1483  0.0782
  294POPC   PO4 3652  15.508  11.741  10.330 -0.1384  0.0468  0.2306
  294POPC   GL1 3653  15.557  12.022   9.873  0.1532 -0.0233 -0.3394
  294POPC   GL2 3654  15.755  11.905   9.608 -0.0660 -0.3317  0.1761
  294POPC   C1A 3655  15.389  12.158   9.423  0.2808  0.1358 -0.2036
  294POPC   D2A 3656  15.280  12.318   9.091  0.5407 -0.1243 -0.0768
  294POPC   C3A 3657  14.766  12.361   9.048  0.2413  0.2746  0.1563
  294POPC   C4A 3658  14.515  12.138   8.744  0.1738  0.0042 -0.0509
  294POPC   C1B 3659  16.050  11.814   9.193  0.2238  0.1447 -0.3959
  294POPC   C2B 3660  16.118  11.735   8.861  0.0599  0.0755 -0.2628
  294POPC   C3B 3661  16.289  11.630   8.514 -0.1084 -0.3919 -0.1948
  294POPC   C4B 3662  16.715  11.614   8.265 -0.0590  0.1859  0.0718
  295POPC   NC3 3663   1.958  15.084  11.080 -0.0826 -0.1547  0.1489
  295POPC   PO4 3664   1.836  14.913  10.629  0.0566 -0.1856 -0.0297
  295POPC   GL1 3665   1.838  15.211  10.298 -0.1345 -0.0090 -0.2096
  295POPC   GL2 3666   1.504  15.254  10.102 -0.0820 -0.3755  0.0852
  295POPC   C1A 3667   1.980  15.526  10.151  0.0338 -0.1574  0.0449
  295POPC   D2A 3668   2.226  15.782   9.968 -0.2341  0.1973  0.0316
  295POPC   C3A 3669   2.257  15.965   9.566 -0.2701 -0.0157  0.0455
  295POPC   C4A 3670   2.245  15.955   9.130 -0.0098 -0.1071  0.3419
  295POPC   C1B 3671   1.714  15.148   9.731  0.0947  0.5250 -0.2763
  295POPC   C2B 3672   2.014  15.065   9.351  0.1543 -0.2176  0.0239
  295POPC   C3B 3673   2.169  15.010   8.942 -0.1262  0.0470 -0.0522
  295POPC   C4B 3674   2.412  15.082   8.720 -0.1227 -0.0130  0.2136
  296POPC   NC3 3675   4.159  16.642  10.438 -0.1648 -0.1119  0.0471
  296POPC   PO4 3676   4.524  16.355  10.354 -0.1907  0.3086 -0.0302
  296POPC   GL1 3677   4.471  16.388   9.989  0.0682 -0.2291  0.5611
  296POPC   GL2 3678   4.402  16.763   9.997 -0.2530 -0.2605  0.0607
  296POPC   C1A 3679   4.652  16.306   9.601  0.1025 -0.0316  0.2612
  296POPC   D2A 3680   4.540  16.395   9.160 -0.1379  0.2055 -0.0536
  296POPC   C3A 3681   4.569  16.143   8.736  0.2644 -0.0937  0.0201
  296POPC   C4A 3682   4.383  15.971   8.432  0.0384  0.2615 -0.0115
  296POPC   C1B 3683   4.370  16.685   9.511 -0.0162  0.1978 -0.0380
  296POPC   C2B 3684   4.283  16.795   9.012 -0.1798 -0.0380  0.0194
  296POPC   C3B 3685   4.579  16.705   8.752  0.2306  0.1184  0.1113
  296POPC   C4B 3686   4.997  16.884   8.558 -0.3052 -0.1703 -0.1236
  297POPC   NC3 3687  17.739   4.481  10.026  0.1903 -0.0229 -0.1246
  297POPC   PO4 3688  17.810   4.132  10.127 -0.2124  0.0243  0.1551
  297POPC   GL1 3689  17.825   4.084   9.727  0.0026  0.0665  0.1779
  297POPC   GL2 3690  18.112   4.260   9.626 -0.0742  0.3766 -0.0420
  297POPC   C1A 3691  17.726   4.106   9.299  0.0030  0.0148  0.1655
  297POPC   D2A 3692  17.948   4.189   8.903  0.1650  0.0135 -0.1903
  297POPC   C3A 3693  17.800   3.979   8.486  0.1386 -0.1394  0.1327
  297POPC   C4A 3694  17.842   3.790   8.075 -0.1720 -0.2650 -0.0002
  297POPC   C1B 3695  18.350   4.246   9.239 -0.0826 -0.1048  0.0737
  297POPC   C2B 3696  18.457   4.283   8.817  0.2092 -0.1813 -0.0150
  297POPC   C3B 3697  18.548   4.501   8.485  0.0583 -0.3720 -0.0388
  297POPC   C4B 3698  18.702   4.796   8.266 -0.4082 -0.2121 -0.0606
  298POPC   NC3 3699   1.225  11.689  10.371 -0.1011  0.3359  0.1836
  298POPC   PO4 3700   1.387  11.241  10.436  0.1864  0.0242 -0.0003
  298POPC   GL1 3701   1.393  11.142  10.042 -0.2571 -0.3627 -0.0469
  298POPC   GL2 3702   1.456  11.407   9.879  0.2322  0.1387 -0.1369
  298POPC   C1A 3703   0.943  11.066   9.670 -0.2218 -0.0385 -0.3276
  298POPC   D2A 3704   1.092  10.981   9.218  0.0836 -0.3674  0.0974
  298POPC   C3A 3705   0.733  11.016   8.929 -0.1080 -0.1541  0.0078
  298POPC   C4A 3706   0.745  11.231   8.458  0.1069 -0.1430 -0.0982
  298POPC   C1B 3707   1.443  11.179   9.463  0.0578  0.3118  0.0097
  298POPC   C2B 3708   1.516  11.143   9.058 -0.1135  0.2713  0.1211
  298POPC   C3B 3709   1.675  11.053   8.689  0.2324  0.1441  0.0358
  298POPC   C4B 3710   1.568  10.854   8.332  0.1472 -0.2353 -0.0327
  299POPC   NC3 3711   3.386   7.118  10.458 -0.1593  0.0696  0.1188
  299POPC   PO4 3712   3.200   7.570  10.416 -0.0944  0.1297  0.1239
  299POPC   GL1 3713   3.379   7.751   9.975 -0.0738 -0.1596 -0.0743
  299POPC   GL2 3714   3.356   7.988   9.852  0.0560  0.0655  0.1116
  299POPC   C1A 3715   3.569   7.575   9.544 -0.1854  0.1560 -0.1830
  299POPC   D2A 3716   3.701   7.573   9.124 -0.2551  0.1689  0.2303
  299POPC   C3A 3717   3.789   8.021   8.765 -0.3951 -0.0952 -0.1843
  299POPC   C4A 3718   4.170   8.198   8.503  0.0693  0.4305 -0.1478
  299POPC   C1B 3719   3.352   7.980   9.421 -0.1675  0.1554  0.0620
  299POPC   C2B 3720   3.306   7.858   8.977 -0.0489  0.0733  0.3962
  299POPC   C3B 3721   3.338   7.585   8.596 -0.0026 -0.2777  0.0236
  299POPC   C4B 3722   3.052   7.636   8.197  0.0183  0.0825 -0.1010
  300POPC   NC3 3723   4.331  15.378  10.378 -0.0664  0.0331 -0.0173
  300POPC   PO4 3724   4.820  15.414  10.323  0.1965 -0.0619 -0.4883
  300POPC   GL1 3725   5.021  15.485   9.940  0.3539 -0.4188 -0.0905
  300POPC   GL2 3726   5.161  15.770   9.922  0.0779 -0.0741  0.1433
  300POPC   C1A 3727   5.050  15.333   9.539  0.3255  0.0279  0.0031
  300POPC   D2A 3728   5.154  15.313   9.079 -0.1269  0.2142 -0.0444
  300POPC   C3A 3729   5.045  15.079   8.836  0.2966  0.2965 -0.0357
  300POPC   C4A 3730   4.671  14.896   8.650 -0.0326 -0.1338 -0.2317
  300POPC   C1B 3731   4.837  15.874   9.537  0.0824 -0.0234 -0.1219
  300POPC   C2B 3732   4.890  16.004   9.191  0.0549  0.1938  0.1896
  300POPC   C3B 3733   4.981  15.847   8.812 -0.0873  0.1211  0.0920
  300POPC   C4B 3734   5.114  15.875   8.427 -0.0579 -0.0085 -0.1583
  301POPC   NC3 3735   2.055  17.992  10.969  0.0954  0.1576  0.1655
  301POPC   PO4 3736   2.249  18.183  10.581 -0.0759 -0.2522 -0.1130
  301POPC   GL1 3737   2.383  18.373  10.251 -0.3690  0.0537  0.0097
  301POPC   GL2 3738   2.108  18.549  10.107 -0.2514 -0.1193  0.0448
  301POPC   C1A 3739   2.699  18.516  10.052 -0.0234 -0.0099  0.0672
  301POPC   D2A 3740   3.025  18.791  10.007  0.0199 -0.0571  0.1013
  301POPC   C3A 3741   2.983  19.157   9.749 -0.1923 -0.1126 -0.2139
  301POPC   C4A 3742   2.708  19.271   9.489  0.1195  0.1351  0.1516
  301POPC   C1B 3743   1.758  18.439   9.863 -0.3318 -0.1690 -0.1027
  301POPC   C2B 3744   1.527  18.364   9.508 -0.0558  0.2946 -0.0507
  301POPC   C3B 3745   1.290  18.306   9.006 -0.1656  0.0233  0.1007
  301POPC   C4B 3746   1.096  17.946   8.683 -0.0644  0.0151 -0.0431
  302POPC   NC3 3747   1.967   5.653  10.247 -0.3672 -0.0576  0.3225
  302POPC   PO4 3748   2.300   5.429  10.143  0.3091 -0.1041 -0.0595
  302POPC   GL1 3749   2.124   5.565   9.759 -0.0472 -0.0154  0.0943
  302POPC   GL2 3750   2.103   5.898   9.825  0.0532  0.1545 -0.1549
  302POPC   C1A 3751   1.741   5.763   9.456 -0.1871 -0.1908  0.0631
  302POPC   D2A 3752   1.504   5.789   8.981  0.0118 -0.1599  0.1428
  302POPC   C3A 3753   1.411   5.706   8.535  0.0963  0.1377 -0.1611
  302POPC   C4A 3754   1.187   5.401   8.144 -0.1093  0.2172 -0.2290
  302POPC   C1B 3755   2.220   5.900   9.412  0.1014 -0.1833  0.0077
  302POPC   C2B 3756   2.371   5.920   9.038  0.3039  0.4734 -0.4490
  302POPC   C3B 3757   2.613   6.143   8.683  0.2200 -0.2654  0.1313
  302POPC   C4B 3758   2.560   6.484   8.390 -0.0868  0.0307 -0.0569
  303POPC   NC3 3759   1.820   2.761  10.736  0.2367  0.1946  0.0563
  303POPC   PO4 3760   2.137   2.477  10.446  0.0547 -0.0459  0.1368
  303POPC   GL1 3761   2.390   2.245  10.054  0.0724 -0.0503 -0.0084
  303POPC   GL2 3762   2.340   1.945   9.976  0.0323 -0.0392 -0.1391
  303POPC   C1A 3763   2.509   2.441   9.686  0.0331 -0.1178  0.2201
  303POPC   D2A 3764   2.527   2.749   9.256 -0.2584  0.4240 -0.0523
  303POPC   C3A 3765   2.226   2.963   9.149 -0.1833 -0.0472  0.1313
  303POPC   C4A 3766   1.853   3.128   9.159 -0.0109 -0.2152  0.2533
  303POPC   C1B 3767   2.090   2.115   9.654 -0.0063  0.1618 -0.0308
  303POPC   C2B 3768   2.112   2.384   9.380 -0.1306  0.1441  0.3709
  303POPC   C3B 3769   2.249   2.479   8.994  0.0017  0.3312  0.0143
  303POPC   C4B 3770   2.469   2.745   8.722 -0.0933  0.3485  0.2301
  304POPC   NC3 3771   2.355  16.003  10.389  0.0288  0.0213  0.0481
  304POPC   PO4 3772   2.366  15.839  10.677  0.3441 -0.2219 -0.1460
  304POPC   GL1 3773   2.496  15.560  10.340  0.0352  0.0016  0.1816
  304POPC   GL2 3774   2.654  15.695  10.127  0.0506  0.0789  0.1052
  304POPC   C1A 3775   2.364  15.312  10.023  0.1476  0.0394  0.2355
  304POPC   D2A 3776   2.265  14.960   9.820 -0.2402 -0.0168  0.0450
  304POPC   C3A 3777   2.442  14.823   9.533  0.0596  0.1152  0.0625
  304POPC   C4A 3778   2.609  14.747   9.164  0.1613 -0.0085  0.2431
  304POPC   C1B 3779   2.726  15.749   9.675 -0.0341  0.0873  0.2183
  304POPC   C2B 3780   2.711  15.816   9.292  0.1622  0.2321 -0.2102
  304POPC   C3B 3781   2.718  15.953   8.880  0.1487 -0.2049 -0.0802
  304POPC   C4B 3782   2.830  16.045   8.569 -0.0647 -0.0933  0.1381
  305POPC   NC3 3783   0.060  18.244  10.541  0.0835  0.0242  0.0749
  305POPC   PO4 3784  -0.137  17.900  10.444 -0.0452 -0.0689 -0.2236
  305POPC   GL1 3785   0.029  17.887  10.091 -0.0274 -0.1578  0.0179
  305POPC   GL2 3786   0.298  18.003  10.145  0.0603  0.0864 -0.1084
  305POPC   C1A 3787   0.053  17.850   9.680  0.0565  0.0954  0.2607
  305POPC   D2A 3788  -0.051  17.916   9.209 -0.1386  0.3857 -0.0116
  305POPC   C3A 3789  -0.404  17.755   8.998 -0.0277 -0.0607  0.1120
  305POPC   C4A 3790  -0.801  17.593   8.969  0.2047  0.2539 -0.3860
  305POPC   C1B 3791   0.433  18.143   9.777  0.0964  0.0167 -0.3041
  305POPC   C2B 3792   0.475  18.045   9.365 -0.1040 -0.0072  0.0778
  305POPC   C3B 3793   0.463  17.735   9.007  0.2969  0.2672  0.0303
  305POPC   C4B 3794   0.449  17.251   8.795  0.3124 -0.0895  0.4266
  306POPC   NC3 3795   5.456  17.522  10.267  0.2688 -0.2524 -0.0729
  306POPC   PO4 3796   5.305  18.032  10.285 -0.2076 -0.0570 -0.2379
  306POPC   GL1 3797   5.579  18.071   9.921 -0.0548  0.2120  0.1439
  306POPC   GL2 3798   5.358  17.939   9.791 -0.0009  0.2151 -0.1119
  306POPC   C1A 3799   5.775  17.740   9.663  0.2104 -0.1287  0.1610
  306POPC   D2A 3800   6.062  17.713   9.366  0.1830  0.0987  0.0523
  306POPC   C3A 3801   6.348  17.765   9.019 -0.1980  0.1022 -0.1914
  306POPC   C4A 3802   6.278  17.876   8.552 -0.0401 -0.1975  0.2456
  306POPC   C1B 3803   5.328  17.805   9.436  0.1788 -0.0913 -0.2916
  306POPC   C2B 3804   5.558  17.658   9.109  0.2747  0.3546  0.0933
  306POPC   C3B 3805   5.903  17.762   8.888  0.2302 -0.1868 -0.0452
  306POPC   C4B 3806   6.037  17.401   8.635 -0.1538  0.3052  0.0315
  307POPC   NC3 3807   4.652  12.112  10.952  0.0981 -0.0606 -0.3078
  307POPC   PO4 3808   4.633  11.801  10.860  0.1162  0.1802  0.2058
  307POPC   GL1 3809   4.728  11.870  10.394 -0.0863  0.1585 -0.0051
  307POPC   GL2 3810   4.995  11.607  10.344  0.1370  0.0278  0.1054
  307POPC   C1A 3811   4.551  12.062  10.076 -0.0303 -0.0039  0.3712
  307POPC   D2A 3812   4.492  12.325   9.719  0.1593  0.2334  0.2908
  307POPC   C3A 3813   4.880  12.398   9.498  0.1535  0.0799  0.1494
  307POPC   C4A 3814   5.099  12.363   9.172  0.1014  0.0250  0.0257
  307POPC   C1B 3815   5.292  11.474  10.001 -0.0690  0.1639  0.0608
  307POPC   C2B 3816   5.493  11.587   9.706 -0.0572 -0.4120  0.1110
  307POPC   C3B 3817   5.558  11.698   9.232  0.0533 -0.0146  0.0164
  307POPC   C4B 3818   5.850  11.859   8.995 -0.2874 -0.1100 -0.1539
  308YOPC   NC3 3819   8.349  15.031  10.021  0.2896 -0.0103  0.3373
  308YOPC   PO4 3820   8.479  14.567   9.818  0.0237 -0.1230 -0.1411
  308YOPC   GL1 3821   8.342  14.377   9.525 -0.0964 -0.0165  0.0029
  308YOPC   GL2 3822   8.069  14.263   9.555  0.0158 -0.0794 -0.3560
  308YOPC   C1A 3823   8.415  14.134   9.193 -0.2641  0.2957 -0.0682
  308YOPC   D2A 3824   8.535  13.981   8.782 -0.3997 -0.3393 -0.0538
  308YOPC   C3A 3825   8.432  14.130   8.419 -0.0893 -0.0425  0.0453
  308YOPC   C4A 3826   8.614  14.275   8.137  0.3514 -0.3519 -0.1336
  308YOPC   C1B 3827   8.019  14.374   9.179  0.1333 -0.0372 -0.0528
  308YOPC   C2B 3828   8.126  14.303   8.809 -0.1817  0.1111  0.1404
  308YOPC   D3B 3829   8.066  14.507   8.441 -0.0906  0.2483 -0.0669
  308YOPC   C4B 3830   8.084  14.712   8.016  0.0719  0.1144 -0.2757
  309YOPC   NC3 3831  12.351  11.388  10.419  0.1566  0.0777 -0.0400
  309YOPC   PO4 3832  12.786  11.555  10.359  0.1013 -0.0289  0.3520
  309YOPC   GL1 3833  12.741  11.527   9.870  0.0372  0.0013  0.1843
  309YOPC   GL2 3834  12.415  11.439   9.756 -0.2625 -0.1037 -0.1363
  309YOPC   C1A 3835  12.949  11.136   9.656 -0.0704 -0.3065 -0.0154
  309YOPC   D2A 3836  13.308  10.934   9.533  0.0781 -0.0598  0.0334
  309YOPC   C3A 3837  13.318  10.970   9.036 -0.4309  0.0051 -0.1304
  309YOPC   C4A 3838  13.190  10.942   8.625 -0.1250  0.3726 -0.1090
  309YOPC   C1B 3839  12.513  11.252   9.414  0.0238 -0.0026 -0.0512
  309YOPC   C2B 3840  12.423  11.358   9.051  0.1211 -0.2870  0.2838
  309YOPC   D3B 3841  12.584  11.315   8.567 -0.0692  0.0816 -0.0653
  309YOPC   C4B 3842  12.983  11.358   8.506  0.0905  0.0049 -0.1998
  310YOPC   NC3 3843  17.794   3.579  10.166 -0.0657  0.1873 -0.0009
  310YOPC   PO4 3844  17.521   3.586   9.878 -0.0576 -0.1225  0.0443
  310YOPC   GL1 3845  17.915   3.499   9.637 -0.1525 -0.1913 -0.1964
  310YOPC   GL2 3846  18.067   3.257   9.369 -0.1891  0.1129 -0.2591
  310YOPC   C1A 3847  18.138   3.734   9.288 -0.1861  0.1556  0.3764
  310YOPC   D2A 3848  18.355   3.815   8.906  0.1279  0.2546 -0.2893
  310YOPC   C3A 3849  18.650   3.937   8.555  0.0922  0.3030 -0.2258
  310YOPC   C4A 3850  18.998   3.998   8.334 -0.1588 -0.1443  0.2592
  310YOPC   C1B 3851  18.167   3.231   8.916  0.0507  0.1225  0.1551
  310YOPC   C2B 3852  18.118   3.107   8.428  0.0311 -0.0507  0.0748
  310YOPC   D3B 3853  17.757   2.970   8.263 -0.0588  0.0489  0.2502
  310YOPC   C4B 3854  17.493   2.670   8.500 -0.1746 -0.5380 -0.3074
  311YOPC   NC3 3855   4.494  17.419  10.526  0.0346 -0.2334 -0.3136
  311YOPC   PO4 3856   4.196  17.147  10.377  0.2222 -0.0028 -0.0160
  311YOPC   GL1 3857   4.065  17.425  10.054 -0.1055 -0.0768  0.0809
  311YOPC   GL2 3858   3.822  17.632  10.010  0.2240 -0.3362  0.3094
  311YOPC   C1A 3859   3.908  17.270   9.721 -0.1487 -0.1633  0.2061
  311YOPC   D2A 3860   4.058  17.163   9.392 -0.2418 -0.3626  0.1779
  311YOPC   C3A 3861   4.151  17.279   8.903  0.3181 -0.0731 -0.1919
  311YOPC   C4A 3862   3.924  17.427   8.423 -0.1084  0.0062 -0.1454
  311YOPC   C1B 3863   3.538  17.922   9.809  0.0945  0.0397 -0.2104
  311YOPC   C2B 3864   3.447  18.172   9.396  0.0788 -0.1917  0.2238
  311YOPC   D3B 3865   3.442  18.312   8.942 -0.0101  0.0096 -0.4027
  311YOPC   C4B 3866   3.508  18.228   8.551  0.0409 -0.0805  0.0966
  312YOPC   NC3 3867   9.546  12.796  10.041 -0.0477  0.1280  0.2750
  312YOPC   PO4 3868   9.343  12.455   9.903  0.1593  0.2931  0.1771
  312YOPC   GL1 3869   9.362  12.730   9.563  0.3325 -0.0172 -0.0348
  312YOPC   GL2 3870   9.615  12.918   9.497  0.2719  0.0812  0.2307
  312YOPC   C1A 3871   9.365  12.630   9.101  0.0516 -0.0588  0.3836
  312YOPC   D2A 3872   9.300  12.469   8.648  0.1214 -0.0227  0.1307
  312YOPC   C3A 3873   8.927  12.412   8.423  0.1143  0.0816 -0.1780
  312YOPC   C4A 3874   8.934  12.351   7.961 -0.2856 -0.3153  0.2350
  312YOPC   C1B 3875   9.368  13.148   9.152 -0.0527  0.2120  0.1723
  312YOPC   C2B 3876   9.508  13.159   8.743 -0.3700 -0.4715  0.1968
  312YOPC   D3B 3877   9.192  12.993   8.573 -0.1517  0.1268  0.0467
  312YOPC   C4B 3878   8.944  12.842   8.174  0.1445  0.1461  0.1570
  313YOPC   NC3 3879  13.505   8.995  10.027  0.0564  0.1187 -0.0573
  313YOPC   PO4 3880  13.657   9.316   9.835 -0.0294 -0.0622 -0.1451
  313YOPC   GL1 3881  13.803   9.495   9.424  0.0854 -0.0776  0.0074
  313YOPC   GL2 3882  13.648   9.360   9.228 -0.1906  0.1171 -0.1679
  313YOPC   C1A 3883  13.849   9.769   9.009  0.0002  0.1127  0.0349
  313YOPC   D2A 3884  13.937   9.639   8.582 -0.0146 -0.0293  0.0743
  313YOPC   C3A 3885  14.269  10.013   8.570 -0.0004 -0.2285  0.2262
  313YOPC   C4A 3886  14.595  10.014   8.328  0.1925 -0.2350 -0.2081
  313YOPC   C1B 3887  13.705   9.184   8.831 -0.0942 -0.1985 -0.1467
  313YOPC   C2B 3888  13.799   9.098   8.431 -0.1129  0.0058 -0.0474
  313YOPC   D3B 3889  14.197   9.061   8.307 -0.2278  0.1413  0.2227
  313YOPC   C4B 3890  14.553   9.139   8.217  0.1606  0.1768 -0.0562
  314YOPC   NC3 3891  17.069   8.594  10.715 -0.0301 -0.1651  0.0251
  314YOPC   PO4 3892  17.351   8.221  10.783 -0.0737  0.0710 -0.1153
  314YOPC   GL1 3893  17.336   8.378  10.296 -0.1881  0.0318  0.0673
  314YOPC   GL2 3894  17.452   8.627  10.397 -0.3250  0.0340 -0.1140
  314YOPC   C1A 3895  17.449   8.236   9.863  0.0137 -0.3462  0.0045
  314YOPC   D2A 3896  17.297   8.477   9.448  0.0018 -0.4827 -0.0985
  314YOPC   C3A 3897  17.272   8.370   8.994  0.1200 -0.3531  0.1181
  314YOPC   C4A 3898  17.508   8.538   8.673 -0.0641  0.0388  0.2293
  314YOPC   C1B 3899  17.646   8.674  10.069  0.1370  0.1166  0.0308
  314YOPC   C2B 3900  17.771   8.575   9.648  0.1221 -0.0368 -0.0247
  314YOPC   D3B 3901  17.711   8.635   9.126  0.2118 -0.0478 -0.0780
  314YOPC   C4B 3902  17.980   8.505   8.857  0.0443 -0.1620 -0.1848
  315YOPC   NC3 3903  14.187   8.567  10.516 -0.3905 -0.3445 -0.1227
  315YOPC   PO4 3904  14.421   8.996  10.329  0.1142  0.0927 -0.5513
  315YOPC   GL1 3905  14.694   9.149  10.014  0.2606 -0.0224 -0.0179
  315YOPC   GL2 3906  14.981   9.062  10.091  0.0832 -0.4226  0.0828
  315YOPC   C1A 3907  14.607   9.245   9.537 -0.0655 -0.0868 -0.0340
  315YOPC   D2A 3908  14.770   9.556   9.147 -0.0585 -0.2468 -0.3014
  315YOPC   C3A 3909  15.117   9.394   8.934 -0.1277  0.0633  0.3271
  315YOPC   C4A 3910  15.396   9.147   8.618  0.0978 -0.0419  0.1766
  315YOPC   C1B 3911  15.042   8.892   9.628  0.1391 -0.0088 -0.0444
  315YOPC   C2B 3912  15.012   9.006   9.261  0.0042  0.2185  0.1508
  315YOPC   D3B 3913  15.394   8.883   9.066 -0.0646 -0.0385 -0.4289
  315YOPC   C4B 3914  15.810   8.888   9.107 -0.0372 -0.0251 -0.1780
  316YOPC   NC3 3915   1.393   1.150  10.457  0.0981  0.2837  0.0060
  316YOPC   PO4 3916   1.824   1.147  10.385  0.1883  0.2799  0.1632
  316YOPC   GL1 3917   1.807   1.279  10.007 -0.1182  0.1090 -0.0530
  316YOPC   GL2 3918   2.017   1.590  10.008  0.0877 -0.0752 -0.0908
  316YOPC   C1A 3919   1.669   1.234   9.602 -0.0580 -0.0093 -0.2957
  316YOPC   D2A 3920   1.555   0.974   9.349  0.3624 -0.0590  0.0258
  316YOPC   C3A 3921   1.699   1.064   8.896 -0.1063  0.0425  0.0884
  316YOPC   C4A 3922   1.700   0.995   8.397  0.1242 -0.0800  0.0705
  316YOPC   C1B 3923   2.043   1.590   9.571 -0.1081  0.1277  0.0292
  316YOPC   C2B 3924   1.954   1.504   9.174  0.1514  0.4316 -0.3094
  316YOPC   D3B 3925   1.471   1.409   9.108  0.0323  0.1497 -0.0744
  316YOPC   C4B 3926   1.161   1.054   9.031  0.0068 -0.0804 -0.1187
  317YOPC   NC3 3927   6.921  13.457  10.324  0.0202 -0.1311 -0.0435
  317YOPC   PO4 3928   7.050  13.004  10.397 -0.0088 -0.0177 -0.0846
  317YOPC   GL1 3929   7.107  13.118  10.007 -0.2767  0.0213 -0.3494
  317YOPC   GL2 3930   6.861  13.097   9.884 -0.0993 -0.1108 -0.0573
  317YOPC   C1A 3931   7.264  13.140   9.462 -0.1283  0.1093  0.1112
  317YOPC   D2A 3932   7.121  13.177   8.980  0.0919  0.1601  0.1485
  317YOPC   C3A 3933   6.718  13.278   8.947 -0.1130 -0.0975  0.1842
  317YOPC   C4A 3934   6.384  13.329   8.631  0.4393 -0.1232  0.0346
  317YOPC   C1B 3935   6.985  12.692   9.634 -0.1999 -0.1014  0.2578
  317YOPC   C2B 3936   7.161  12.643   9.297 -0.0350 -0.1010  0.3881
  317YOPC   D3B 3937   6.897  12.613   8.948  0.1476  0.0459  0.1465
  317YOPC   C4B 3938   6.828  12.794   8.621 -0.0749  0.0482 -0.1217
  318YOPC   NC3 3939   9.389   3.465  10.152  0.3140 -0.1937 -0.1787
  318YOPC   PO4 3940   9.469   2.902  10.060  0.1228 -0.2783  0.0260
  318YOPC   GL1 3941   9.284   2.966   9.685 -0.2974 -0.3296  0.0187
  318YOPC   GL2 3942   9.202   3.297   9.722  0.0233  0.1863 -0.2751
  318YOPC   C1A 3943   9.423   2.893   9.332  0.0997 -0.0157 -0.2656
  318YOPC   D2A 3944   9.277   3.087   8.930 -0.0863 -0.3007  0.1752
  318YOPC   C3A 3945   9.511   3.134   8.538 -0.2136 -0.0208  0.2936
  318YOPC   C4A 3946   9.842   3.359   8.383  0.0535 -0.2561 -0.1322
  318YOPC   C1B 3947   9.076   3.279   9.336 -0.0838  0.0684 -0.0630
  318YOPC   C2B 3948   8.928   3.437   9.037  0.0404 -0.0935  0.0345
  318YOPC   D3B 3949   9.031   3.486   8.631 -0.2853 -0.0990  0.0287
  318YOPC   C4B 3950   9.027   3.628   8.215 -0.2929 -0.0532  0.2551
  319YOPC   NC3 3951   4.904   0.158  10.295 -0.1482 -0.2895  0.0363
  319YOPC   PO4 3952   4.562  -0.027  10.552  0.1151  0.1889 -0.1274
  319YOPC   GL1 3953   4.326   0.006  10.168 -0.2674  0.1523  0.0580
  319YOPC   GL2 3954   4.230   0.355  10.158  0.0796 -0.2308  0.0262
  319YOPC   C1A 3955   4.075  -0.228   9.899  0.0836 -0.0277  0.1344
  319YOPC   D2A 3956   3.915  -0.031   9.557  0.2247  0.2563  0.1909
  319YOPC   C3A 3957   3.884  -0.057   9.100 -0.0455 -0.0372  0.0621
  319YOPC   C4A 3958   3.849   0.250   8.821  0.2292  0.0491 -0.0029
  319YOPC   C1B 3959   4.264   0.269   9.654  0.0627 -0.0282  0.2166
  319YOPC   C2B 3960   4.181   0.344   9.220  0.1736 -0.1483  0.0008
  319YOPC   D3B 3961   3.972   0.644   9.071 -0.1884  0.1497 -0.0142
  319YOPC   C4B 3962   3.663   0.782   9.069  0.1477  0.0333 -0.0434
  320YOPC   NC3 3963   0.505   3.197  10.217 -0.3215  0.2085 -0.0872
  320YOPC   PO4 3964   0.081   3.331  10.170 -0.4033  0.1560  0.1253
  320YOPC   GL1 3965   0.164   3.263   9.770  0.1978 -0.2185 -0.1493
  320YOPC   GL2 3966   0.214   3.616   9.620 -0.1551  0.2414 -0.2960
  320YOPC   C1A 3967   0.243   3.056   9.435  0.0817 -0.1149  0.1338
  320YOPC   D2A 3968   0.309   2.912   9.071 -0.0507  0.0619  0.0244
  320YOPC   C3A 3969  -0.033   2.725   8.772 -0.1108 -0.0435 -0.1168
  320YOPC   C4A 3970  -0.193   2.590   8.422  0.2454  0.1172 -0.0010
  320YOPC   C1B 3971   0.340   3.493   9.286  0.0078  0.1780 -0.0214
  320YOPC   C2B 3972   0.476   3.447   8.797 -0.0058  0.0937 -0.2383
  320YOPC   D3B 3973   0.876   3.398   8.636  0.2518  0.1714 -0.1542
  320YOPC   C4B 3974   1.131   3.031   8.611  0.0729  0.2577  0.1544
  321YOPC   NC3 3975  17.925   1.505  10.131 -0.1648 -0.1554  0.0927
  321YOPC   PO4 3976  17.531   1.757  10.247 -0.0891 -0.0094  0.1600
  321YOPC   GL1 3977  17.129   1.775   9.929  0.1892 -0.0449 -0.0645
  321YOPC   GL2 3978  17.163   1.995   9.669 -0.0952  0.1268  0.1086
  321YOPC   C1A 3979  16.997   1.572   9.594  0.2286 -0.1279  0.1315
  321YOPC   D2A 3980  16.877   1.617   9.082  0.1272  0.0631  0.0427
  321YOPC   C3A 3981  16.676   1.151   8.915  0.1541  0.0826 -0.0075
  321YOPC   C4A 3982  16.434   0.950   8.533 -0.0768  0.0216  0.2986
  321YOPC   C1B 3983  17.595   2.093   9.491  0.2560  0.3773  0.3049
  321YOPC   C2B 3984  17.905   1.825   9.348 -0.0030  0.0294  0.0560
  321YOPC   D3B 3985  18.138   1.852   9.048  0.1591  0.1653 -0.1032
  321YOPC   C4B 3986  18.165   1.630   8.656 -0.1614 -0.1661  0.0513
  322YOPC   NC3 3987   9.028  12.847   9.987  0.1864 -0.0897  0.3722
  322YOPC   PO4 3988   9.289  13.146   9.797  0.1044  0.1124  0.2338
  322YOPC   GL1 3989   9.645  13.399   9.555  0.0012  0.0328  0.0909
  322YOPC   GL2 3990   9.458  13.561   9.442 -0.0798  0.2298 -0.0333
  322YOPC   C1A 3991   9.883  13.253   9.220 -0.2305  0.0363 -0.0186
  322YOPC   D2A 3992   9.991  13.230   8.799  0.3386  0.0632 -0.2672
  322YOPC   C3A 3993  10.063  13.154   8.395 -0.1144  0.1428  0.2540
  322YOPC   C4A 3994   9.914  12.948   8.013 -0.0405  0.3843  0.1956
  322YOPC   C1B 3995   9.565  13.625   8.993 -0.2735 -0.1487  0.1672
  322YOPC   C2B 3996   9.726  13.605   8.647 -0.0921 -0.2245 -0.1368
  322YOPC   D3B 3997  10.131  13.599   8.512  0.0154 -0.2230 -0.1424
  322YOPC   C4B 3998  10.497  13.411   8.274 -0.0174  0.1333 -0.0649
  323YOPC   NC3 3999  13.150   5.537  10.022 -0.0940  0.1636 -0.1343
  323YOPC   PO4 4000  12.978   5.906   9.797 -0.1384 -0.3282  0.1360
  323YOPC   GL1 4001  12.744   5.726   9.537 -0.0747 -0.1343 -0.3092
  323YOPC   GL2 4002  12.882   5.361   9.494  0.2192 -0.0735 -0.2680
  323YOPC   C1A 4003  12.576   5.724   9.089  0.2407 -0.0089 -0.3998
  323YOPC   D2A 4004  12.667   5.420   8.692  0.2821  0.0813 -0.0399
  323YOPC   C3A 4005  12.635   5.457   8.289  0.0849 -0.0307 -0.0164
  323YOPC   C4A 4006  12.960   5.222   8.014 -0.0451 -0.0482  0.1952
  323YOPC   C1B 4007  12.968   5.458   9.101 -0.4676 -0.2096 -0.0635
  323YOPC   C2B 4008  13.068   5.795   8.843  0.1350  0.0507  0.1672
  323YOPC   D3B 4009  12.854   5.834   8.517 -0.0733 -0.2742 -0.3256
  323YOPC   C4B 4010  13.053   6.133   8.290 -0.1470  0.2910  0.1904
  324YOPC   NC3 4011   4.176   4.535  10.529  0.1340 -0.2491  0.2099
  324YOPC   PO4 4012   4.088   3.991  10.642 -0.1981  0.1095 -0.1633
  324YOPC   GL1 4013   4.065   4.080  10.221  0.0011  0.0073 -0.1178
  324YOPC   GL2 4014   4.283   4.029   9.937 -0.1514 -0.0812  0.2355
  324YOPC   C1A 4015   3.761   4.360   9.883 -0.1416  0.1095  0.2432
  324YOPC   D2A 4016   3.510   4.492   9.523  0.1946 -0.0128 -0.0013
  324YOPC   C3A 4017   3.398   4.200   9.322  0.1888  0.0803  0.2174
  324YOPC   C4A 4018   3.217   3.995   8.866 -0.1172  0.4182  0.0576
  324YOPC   C1B 4019   4.446   4.004   9.483 -0.0944  0.2860  0.2870
  324YOPC   C2B 4020   4.565   4.166   9.171  0.2799 -0.1480 -0.0505
  324YOPC   D3B 4021   4.603   4.153   8.740  0.1934  0.0332  0.3218
  324YOPC   C4B 4022   4.743   4.039   8.262  0.1145 -0.1287 -0.0591
  325YOPC   NC3 4023   6.683  18.086  10.466 -0.2618 -0.3083 -0.0524
  325YOPC   PO4 4024   6.293  18.317  10.457  0.1481  0.0842  0.1786
  325YOPC   GL1 4025   6.300  18.569  10.062  0.1671  0.5157  0.0784
  325YOPC   GL2 4026   6.079  18.483   9.784  0.2321 -0.1385 -0.2242
  325YOPC   C1A 4027   6.526  18.881   9.836 -0.4198  0.0692  0.1258
  325YOPC   D2A 4028   6.373  18.941   9.423 -0.2268  0.0458 -0.0673
  325YOPC   C3A 4029   6.179  18.550   9.228 -0.2858 -0.0064 -0.1162
  325YOPC   C4A 4030   6.197  18.154   9.335 -0.0715  0.1248 -0.0876
  325YOPC   C1B 4031   6.513  18.445   9.572 -0.0674  0.0379  0.1072
  325YOPC   C2B 4032   6.711  18.594   9.210 -0.2302  0.0646  0.0972
  325YOPC   D3B 4033   6.389  18.880   8.918  0.0202  0.4751 -0.0757
  325YOPC   C4B 4034   6.094  18.748   8.761 -0.0257 -0.1506  0.1969
  326YOPC   NC3 4035   3.816   3.667  10.357 -0.2998 -0.0978 -0.0904
  326YOPC   PO4 4036   3.637   3.258  10.129  0.3095  0.2004 -0.0311
  326YOPC   GL1 4037   3.953   3.359   9.766 -0.5130  0.1210 -0.2211
  326YOPC   GL2 4038   3.880   3.229   9.493  0.0820 -0.2599  0.0132
  326YOPC   C1A 4039   4.023   3.715   9.612 -0.0806  0.1698  0.0746
  326YOPC   D2A 4040   4.025   3.875   9.228  0.0233 -0.0741 -0.2745
  326YOPC   C3A 4041   4.320   3.731   8.914  0.3912 -0.2618 -0.1205
  326YOPC   C4A 4042   4.354   3.749   8.439 -0.2913  0.1783  0.0910
  326YOPC   C1B 4043   3.936   3.323   9.105  0.1639 -0.0049  0.1566
  326YOPC   C2B 4044   4.302   3.276   8.840 -0.1560 -0.1553 -0.0353
  326YOPC   D3B 4045   4.177   3.161   8.349 -0.0988 -0.0496 -0.2561
  326YOPC   C4B 4046   4.046   2.977   8.005  0.0044 -0.0506  0.1636
  327YOPC   NC3 4047   8.486  13.038  10.018 -0.2869 -0.2134  0.0271
  327YOPC   PO4 4048   8.361  13.467  10.083 -0.0500  0.1993  0.0247
  327YOPC   GL1 4049   8.452  13.638   9.737  0.1597  0.0926 -0.0641
  327YOPC   GL2 4050   8.097  13.750   9.638 -0.0719  0.0673  0.3468
  327YOPC   C1A 4051   8.469  13.631   9.323  0.4897  0.2297 -0.0238
  327YOPC   D2A 4052   8.393  13.483   8.916 -0.0615  0.0333 -0.1810
  327YOPC   C3A 4053   8.425  13.606   8.495  0.3259  0.3390 -0.2772
  327YOPC   C4A 4054   8.211  13.744   8.106 -0.0828 -0.0177  0.1106
  327YOPC   C1B 4055   8.003  13.829   9.212  0.2887  0.1129 -0.4550
  327YOPC   C2B 4056   8.060  13.823   8.799  0.2058  0.0427  0.0539
  327YOPC   D3B 4057   7.906  13.608   8.425 -0.1371  0.1907 -0.1134
  327YOPC   C4B 4058   7.880  13.264   8.176 -0.1934  0.0594  0.0347
  328YOPC   NC3 4059   2.603   6.400  10.394 -0.1575 -0.2916 -0.0576
  328YOPC   PO4 4060   2.111   6.509  10.396  0.1115  0.0218  0.0227
  328YOPC   GL1 4061   2.039   6.363  10.011  0.2239 -0.1837  0.2600
  328YOPC   GL2 4062   1.810   6.478   9.907  0.1836  0.1805  0.0713
  328YOPC   C1A 4063   2.341   6.318   9.662  0.0601 -0.0178  0.1686
  328YOPC   D2A 4064   2.711   6.153   9.336  0.0513  0.0363  0.1558
  328YOPC   C3A 4065   2.842   6.422   9.030  0.1872  0.1243 -0.0095
  328YOPC   C4A 4066   3.073   6.299   8.533 -0.1477  0.0558 -0.2793
  328YOPC   C1B 4067   1.801   6.266   9.609  0.0198 -0.0082  0.1875
  328YOPC   C2B 4068   1.948   6.188   9.068  0.0779 -0.0974 -0.2170
  328YOPC   D3B 4069   1.997   6.027   8.653 -0.1166  0.1692 -0.1945
  328YOPC   C4B 4070   1.735   5.930   8.240 -0.2338 -0.1661 -0.4512
  329YOPC   NC3 4071  13.195   1.629  10.887  0.0466  0.2364  0.1134
  329YOPC   PO4 4072  13.479   1.446  10.605  0.2573 -0.0174 -0.0699
  329YOPC   GL1 4073  13.614   1.343  10.192 -0.0831 -0.1654 -0.2009
  329YOPC   GL2 4074  14.016   1.378  10.336  0.0973  0.3636  0.2347
  329YOPC   C1A 4075  13.755   0.972  10.103 -0.1171  0.1160  0.2913
  329YOPC   D2A 4076  14.003   0.844   9.740 -0.1236  0.3418  0.4966
  329YOPC   C3A 4077  13.966   0.933   9.394 -0.1700 -0.0685  0.0586
  329YOPC   C4A 4078  14.153   0.881   9.029  0.1006 -0.4150 -0.0222
  329YOPC   C1B 4079  14.241   0.939  10.302 -0.2003 -0.3443  0.3167
  329YOPC   C2B 4080  14.068   0.503  10.184  0.4089 -0.0789  0.0016
  329YOPC   D3B 4081  14.386   0.178  10.082  0.0898  0.1301 -0.0731
  329YOPC   C4B 4082  14.637  -0.155  10.090 -0.0384  0.0707 -0.1459
  330YOPC   NC3 4083  14.987  15.638  10.492 -0.1643  0.1823 -0.0385
  330YOPC   PO4 4084  14.488  15.647  10.467  0.1007 -0.3191 -0.2481
  330YOPC   GL1 4085  14.393  15.884  10.100 -0.0164  0.1558  0.2381
  330YOPC   GL2 4086  14.728  15.951  10.050  0.1899  0.1678  0.0362
  330YOPC   C1A 4087  14.379  16.065   9.682 -0.2194 -0.0443  0.1915
  330YOPC   D2A 4088  14.514  16.129   9.346 -0.1454  0.2573 -0.0647
  330YOPC   C3A 4089  14.328  16.425   9.060 -0.2231 -0.0914  0.1486
  330YOPC   C4A 4090  14.063  16.649   8.678  0.2332 -0.1408  0.1241
  330YOPC   C1B 4091  14.758  15.753   9.709  0.2715  0.1615  0.0468
  330YOPC   C2B 4092  15.126  15.538   9.409 -0.3334  0.1481 -0.1590
  330YOPC   D3B 4093  15.111  15.353   9.007  0.1528 -0.3007 -0.4587
  330YOPC   C4B 4094  14.908  15.195   8.599 -0.0290 -0.3071  0.2404
  331YOPC   NC3 4095   8.075  17.937  10.297  0.0020 -0.1702  0.2598
  331YOPC   PO4 4096   7.881  17.543  10.298 -0.1614 -0.1779  0.2283
  331YOPC   GL1 4097   7.583  17.547  10.005 -0.0119  0.0121  0.0050
  331YOPC   GL2 4098   7.670  17.432   9.729  0.0087 -0.1867  0.1391
  331YOPC   C1A 4099   7.280  17.747   9.816  0.0867  0.0893 -0.0371
  331YOPC   D2A 4100   6.918  18.043   9.658  0.2384  0.0481 -0.3848
  331YOPC   C3A 4101   7.056  18.475   9.525  0.1377  0.0457 -0.3195
  331YOPC   C4A 4102   6.945  18.859   9.562  0.2789 -0.2152 -0.0317
  331YOPC   C1B 4103   7.758  17.688   9.304  0.2272 -0.1795  0.2424
  331YOPC   C2B 4104   7.745  17.672   8.911 -0.0225 -0.0096 -0.1509
  331YOPC   D3B 4105   7.447  17.734   8.467 -0.0114  0.2882 -0.1696
  331YOPC   C4B 4106   7.115  17.766   8.270  0.2926 -0.3228  0.3656
  332YOPC   NC3 4107  17.232   1.369  10.217  0.2298  0.3958 -0.1241
  332YOPC   PO4 4108  17.604   1.013  10.220  0.3183  0.2383  0.2857
  332YOPC   GL1 4109  17.503   1.234   9.827 -0.0517  0.3384  0.3829
  332YOPC   GL2 4110  17.238   1.169   9.683 -0.1553  0.0856 -0.0155
  332YOPC   C1A 4111  17.519   1.568   9.585  0.0827 -0.0727  0.0200
  332YOPC   D2A 4112  17.336   1.672   9.265 -0.0909  0.0393  0.2394
  332YOPC   C3A 4113  17.321   1.719   8.836  0.0410  0.3260 -0.0733
  332YOPC   C4A 4114  17.003   1.625   8.491 -0.0478 -0.3213  0.2588
  332YOPC   C1B 4115  17.365   1.122   9.314  0.0683 -0.0306  0.2592
  332YOPC   C2B 4116  17.146   1.197   8.813  0.0118 -0.0728  0.1719
  332YOPC   D3B 4117  17.099   1.107   8.403  0.3061  0.3738  0.0616
  332YOPC   C4B 4118  16.845   1.022   8.125 -0.1715 -0.2742 -0.0654
  333YOPC   NC3 4119   3.302   1.585  10.776 -0.2219 -0.2028 -0.2366
  333YOPC   PO4 4120   3.371   1.260  10.269 -0.0258  0.0797  0.2782
  333YOPC   GL1 4121   3.555   1.069   9.826  0.0542 -0.0188  0.0096
  333YOPC   GL2 4122   3.486   0.818   9.991 -0.1503 -0.2367 -0.1035
  333YOPC   C1A 4123   3.448   1.029   9.429  0.4181 -0.0708  0.0917
  333YOPC   D2A 4124   3.108   0.972   9.162 -0.0224  0.1585  0.0450
  333YOPC   C3A 4125   3.311   1.147   8.750  0.1731 -0.0960 -0.1828
  333YOPC   C4A 4126   3.195   1.347   8.424  0.0276  0.1688 -0.3963
  333YOPC   C1B 4127   3.359   0.580   9.653 -0.0630  0.2351 -0.1380
  333YOPC   C2B 4128   3.182   0.495   9.266  0.2662  0.0080 -0.0060
  333YOPC   D3B 4129   2.771   0.592   9.120 -0.0265 -0.0403 -0.0871
  333YOPC   C4B 4130   2.390   0.655   9.254 -0.2878 -0.1339  0.0242
  334YOPC   NC3 4131  15.345   2.403  10.667 -0.1123 -0.2329 -0.0568
  334YOPC   PO4 4132  14.917   2.383  10.556  0.1169 -0.1188  0.1156
  334YOPC   GL1 4133  15.026   2.179  10.142  0.1431  0.2248 -0.1340
  334YOPC   GL2 4134  14.902   1.894  10.135 -0.0624  0.0879 -0.1436
  334YOPC   C1A 4135  15.220   2.014   9.794  0.1151  0.0149 -0.0532
  334YOPC   D2A 4136  15.273   1.731   9.538 -0.0444  0.5715 -0.1760
  334YOPC   C3A 4137  15.667   1.660   9.347 -0.0544 -0.0496  0.2832
  334YOPC   C4A 4138  15.849   1.553   8.991  0.0486  0.1532  0.1605
  334YOPC   C1B 4139  15.041   1.560   9.942 -0.2139  0.5166 -0.2079
  334YOPC   C2B 4140  15.041   1.127  10.040 -0.0232  0.1852  0.0709
  334YOPC   D3B 4141  14.785   0.827  10.065  0.2718  0.0053  0.0489
  334YOPC   C4B 4142  14.488   0.589   9.841 -0.1736 -0.4392 -0.0726
  335YOPC   NC3 4143   8.962  17.045   9.974 -0.1975  0.1240  0.0154
  335YOPC   PO4 4144   8.647  17.158   9.901  0.1765 -0.0349  0.0070
  335YOPC   GL1 4145   8.590  16.791   9.579  0.1875 -0.0712 -0.1096
  335YOPC   GL2 4146   8.285  16.877   9.515  0.1466 -0.0050 -0.0921
  335YOPC   C1A 4147   8.552  16.688   9.111 -0.1765  0.1733 -0.1473
  335YOPC   D2A 4148   8.419  16.631   8.614 -0.1507 -0.2220  0.0933
  335YOPC   C3A 4149   8.454  16.693   8.159 -0.0152  0.0709  0.0740
  335YOPC   C4A 4150   8.861  16.820   7.917 -0.1442  0.2089  0.2412
  335YOPC   C1B 4151   8.086  16.897   9.148 -0.2588 -0.0146 -0.2276
  335YOPC   C2B 4152   7.969  16.842   8.682 -0.2588 -0.0046 -0.0284
  335YOPC   D3B 4153   8.170  17.008   8.363 -0.2067  0.1484  0.0758
  335YOPC   C4B 4154   8.260  16.947   7.828 -0.1705 -0.1264  0.1858
  336YOPC   NC3 4155  11.718  14.011  10.579  0.2738 -0.0228 -0.2045
  336YOPC   PO4 4156  11.747  13.911  10.121 -0.1412 -0.1961  0.0003
  336YOPC   GL1 4157  11.768  14.016   9.743 -0.0420 -0.1902 -0.3115
  336YOPC   GL2 4158  11.709  14.319   9.764  0.4140  0.0332  0.2615
  336YOPC   C1A 4159  11.963  14.085   9.350 -0.1612  0.1974 -0.1612
  336YOPC   D2A 4160  11.985  14.271   8.966 -0.5121 -0.3347  0.0588
  336YOPC   C3A 4161  12.241  14.394   8.661 -0.0785 -0.2112  0.0609
  336YOPC   C4A 4162  12.230  14.742   8.373  0.0464  0.1340  0.1675
  336YOPC   C1B 4163  11.696  14.612   9.370 -0.1176  0.4584  0.0909
  336YOPC   C2B 4164  11.637  14.784   9.010  0.0290  0.6060 -0.0108
  336YOPC   D3B 4165  11.797  14.695   8.774 -0.0696  0.1069  0.0149
  336YOPC   C4B 4166  11.765  14.410   8.480  0.3983 -0.2368 -0.2632
  337YOPC   NC3 4167  12.312  12.781  10.260  0.0099  0.0549 -0.1146
  337YOPC   PO4 4168  12.735  12.910  10.251 -0.4001  0.1934 -0.2367
  337YOPC   GL1 4169  12.514  12.919   9.801  0.1452  0.1017 -0.0780
  337YOPC   GL2 4170  12.264  13.126   9.847 -0.1077  0.1054 -0.1505
  337YOPC   C1A 4171  12.525  12.860   9.320 -0.0072 -0.1110  0.1033
  337YOPC   D2A 4172  12.572  12.775   8.900 -0.0793 -0.1032  0.3551
  337YOPC   C3A 4173  12.782  12.932   8.565  0.2007  0.3588 -0.1739
  337YOPC   C4A 4174  12.841  13.104   8.313 -0.0414 -0.1174 -0.0994
  337YOPC   C1B 4175  12.407  13.318   9.444 -0.3100 -0.0119  0.2026
  337YOPC   C2B 4176  12.526  13.674   9.081 -0.0423 -0.0964 -0.2178
  337YOPC   D3B 4177  12.231  13.863   8.770  0.1971  0.2533 -0.0028
  337YOPC   C4B 4178  12.228  14.000   8.365 -0.2401 -0.0292  0.0198
  338YOPC   NC3 4179   1.347   3.530  10.359 -0.1268  0.0344  0.2329
  338YOPC   PO4 4180   1.483   3.054  10.500  0.0102  0.0157 -0.1099
  338YOPC   GL1 4181   1.600   3.053  10.024  0.0064 -0.4102 -0.1125
  338YOPC   GL2 4182   1.389   2.811   9.912 -0.0807  0.3126  0.0136
  338YOPC   C1A 4183   1.621   3.282   9.641 -0.2369  0.4842  0.0534
  338YOPC   D2A 4184   1.621   3.740   9.474  0.2373  0.1477  0.2902
  338YOPC   C3A 4185   1.257   3.816   9.323  0.0896  0.1237  0.0228
  338YOPC   C4A 4186   0.841   3.536   9.189  0.0865 -0.2712  0.0242
  338YOPC   C1B 4187   1.502   2.872   9.471  0.2500 -0.1437  0.1198
  338YOPC   C2B 4188   1.720   2.648   9.177  0.0436 -0.1126 -0.0380
  338YOPC   D3B 4189   1.588   2.874   8.873 -0.2805 -0.1045 -0.1781
  338YOPC   C4B 4190   1.598   3.174   8.636 -0.0714 -0.0161 -0.0645
  339YOPC   NC3 4191  12.082  17.361  10.033  0.3047 -0.1270  0.1376
  339YOPC   PO4 4192  12.491  17.534   9.919  0.3681  0.0367  0.3084
  339YOPC   GL1 4193  12.582  17.788   9.587  0.0009  0.0297  0.0386
  339YOPC   GL2 4194  12.628  18.120   9.687 -0.2603 -0.0099  0.2057
  339YOPC   C1A 4195  12.421  17.974   9.163 -0.0898 -0.2114  0.2899
  339YOPC   D2A 4196  12.125  17.879   8.808  0.2878  0.0788  0.3247
  339YOPC   C3A 4197  12.149  17.841   8.491  0.1853 -0.1601 -0.3292
  339YOPC   C4A 4198  12.038  18.036   8.040 -0.0953  0.2276  0.1948
  339YOPC   C1B 4199  12.909  18.131   9.305  0.0187  0.1936  0.0180
  339YOPC   C2B 4200  13.130  18.039   8.930  0.1047 -0.1687 -0.1045
  339YOPC   D3B 4201  13.520  17.982   8.732 -0.0827  0.2503  0.0898
  339YOPC   C4B 4202  13.814  17.945   8.413 -0.2099  0.1318 -0.0008
  340YOPC   NC3 4203  10.329   1.299  10.587  0.2920 -0.3320  0.0390
  340YOPC   PO4 4204  10.126   1.236  10.176  0.1255 -0.5162  0.1088
  340YOPC   GL1 4205  10.331   1.107   9.881 -0.0115 -0.0037  0.0065
  340YOPC   GL2 4206  10.138   1.185   9.639  0.1189  0.0729 -0.4118
  340YOPC   C1A 4207  10.666   1.032   9.500  0.2019  0.1727 -0.0823
  340YOPC   D2A 4208  10.899   0.816   9.195  0.3928 -0.1676  0.2457
  340YOPC   C3A 4209  10.997   0.924   8.751 -0.0214 -0.1894 -0.0454
  340YOPC   C4A 4210  10.952   1.108   8.391  0.2378 -0.0864 -0.1400
  340YOPC   C1B 4211  10.215   1.196   9.230 -0.1256 -0.0375  0.1335
  340YOPC   C2B 4212  10.583   1.354   8.930 -0.0497  0.0844 -0.1007
  340YOPC   D3B 4213  10.363   1.508   8.549  0.0367 -0.0368  0.1891
  340YOPC   C4B 4214  10.146   1.694   8.185 -0.1979 -0.1016 -0.0207
  341YOPC   NC3 4215   2.279  12.697  10.610 -0.0590 -0.2156 -0.0580
  341YOPC   PO4 4216   2.316  12.419  10.442  0.1308  0.0282 -0.1246
  341YOPC   GL1 4217   2.182  12.519  10.084  0.0946  0.1172 -0.1523
  341YOPC   GL2 4218   1.946  12.342  10.154  0.1864  0.2219 -0.2692
  341YOPC   C1A 4219   2.187  12.452   9.623  0.1151  0.0965  0.0037
  341YOPC   D2A 4220   2.019  12.167   9.373 -0.1115 -0.1816 -0.0847
  341YOPC   C3A 4221   2.188  11.876   9.095  0.2747 -0.2441  0.3019
  341YOPC   C4A 4222   2.091  11.789   8.631 -0.5201  0.1256  0.1946
  341YOPC   C1B 4223   1.703  12.399   9.789 -0.1691  0.0928 -0.0169
  341YOPC   C2B 4224   1.550  12.316   9.403  0.0789 -0.0722  0.0434
  341YOPC   D3B 4225   1.596  11.875   9.497  0.2317 -0.2996  0.0577
  341YOPC   C4B 4226   1.725  11.571   9.367  0.1480  0.2924  0.2230
  342YOPC   NC3 4227  14.941  14.750  10.415  0.0831  0.1833  0.0388
  342YOPC   PO4 4228  14.723  14.349  10.493 -0.2297 -0.0389 -0.0445
  342YOPC   GL1 4229  14.643  14.337  10.121 -0.2052  0.0699 -0.1509
  342YOPC   GL2 4230  14.641  14.619   9.981  0.0196 -0.0263 -0.1046
  342YOPC   C1A 4231  14.737  14.189   9.742  0.2425 -0.4554  0.1021
  342YOPC   D2A 4232  14.779  14.247   9.330  0.2281 -0.1486  0.0303
  342YOPC   C3A 4233  14.737  13.915   8.933  0.0845 -0.2250 -0.2186
  342YOPC   C4A 4234  14.657  13.909   8.531 -0.0021 -0.0348 -0.0228
  342YOPC   C1B 4235  14.484  14.614   9.610  0.2082 -0.1154 -0.0798
  342YOPC   C2B 4236  14.513  14.623   9.181  0.0037  0.1269  0.3101
  342YOPC   D3B 4237  14.714  14.456   8.820  0.1466 -0.2021 -0.2379
  342YOPC   C4B 4238  14.972  14.742   8.515 -0.0876 -0.0233 -0.0744
  343YOPC   NC3 4239  16.742   4.553   9.956  0.1600 -0.0641 -0.4601
  343YOPC   PO4 4240  16.893   4.233   9.750  0.1890 -0.0782  0.0848
  343YOPC   GL1 4241  17.255   4.294   9.390 -0.0335  0.1149 -0.0889
  343YOPC   GL2 4242  17.239   4.138   9.016  0.1267  0.0533  0.3527
  343YOPC   C1A 4243  17.570   4.479   9.068 -0.4048  0.4138  0.2244
  343YOPC   D2A 4244  17.655   4.581   8.612  0.0393 -0.0253  0.2828
  343YOPC   C3A 4245  18.041   4.474   8.415  0.1106  0.1104  0.0320
  343YOPC   C4A 4246  18.176   4.113   8.227 -0.1850  0.0895  0.5028
  343YOPC   C1B 4247  17.359   4.217   8.637  0.0285 -0.0825 -0.3795
  343YOPC   C2B 4248  17.342   4.304   8.249  0.2995 -0.0390  0.1234
  343YOPC   D3B 4249  17.645   4.633   8.135  0.0110 -0.1039 -0.0658
  343YOPC   C4B 4250  17.843   4.998   7.957  0.1396 -0.0436 -0.1262
  344YOPC   NC3 4251  13.562  11.398  10.312 -0.0420  0.1979 -0.0699
  344YOPC   PO4 4252  13.746  11.793  10.243 -0.1189  0.0133 -0.2152
  344YOPC   GL1 4253  13.756  11.943   9.785 -0.0060 -0.0909  0.0220
  344YOPC   GL2 4254  13.777  11.656   9.505 -0.1586 -0.3014 -0.0815
  344YOPC   C1A 4255  13.489  12.122   9.448  0.3724 -0.2438  0.4565
  344YOPC   D2A 4256  13.372  12.333   8.981 -0.0102 -0.1564 -0.1804
  344YOPC   C3A 4257  13.023  12.305   8.838  0.2152  0.0133 -0.0467
  344YOPC   C4A 4258  12.876  12.443   8.485 -0.1949 -0.0315  0.0737
  344YOPC   C1B 4259  13.747  11.695   9.055  0.4788 -0.0217  0.1755
  344YOPC   C2B 4260  13.936  11.296   8.902 -0.1257  0.2281 -0.0387
  344YOPC   D3B 4261  14.121  11.290   8.620 -0.1740 -0.0889  0.0279
  344YOPC   C4B 4262  14.094  11.490   8.221 -0.3773  0.3133 -0.1615
  345YOPC   NC3 4263  11.361   9.098   9.991  0.1890 -0.1558 -0.0496
  345YOPC   PO4 4264  11.660   8.841   9.986  0.0514 -0.1816  0.2003
  345YOPC   GL1 4265  11.678   8.894   9.610 -0.0355 -0.2749  0.4596
  345YOPC   GL2 4266  11.744   9.205   9.622  0.2696 -0.0174 -0.2433
  345YOPC   C1A 4267  11.791   8.803   9.196 -0.0931 -0.0682 -0.1136
  345YOPC   D2A 4268  11.977   8.949   8.802  0.0239  0.2034  0.0328
  345YOPC   C3A 4269  12.201   8.723   8.500  0.0663 -0.2071  0.1714
  345YOPC   C4A 4270  12.347   8.448   8.174  0.0274 -0.2924 -0.0205
  345YOPC   C1B 4271  11.854   9.357   9.297  0.1076 -0.2251  0.0101
  345YOPC   C2B 4272  11.989   9.579   8.772 -0.1332  0.0252 -0.0089
  345YOPC   D3B 4273  11.889   9.785   8.366  0.0969 -0.0573 -0.1218
  345YOPC   C4B 4274  11.848   9.917   7.991  0.1701 -0.0521 -0.2031
  346YOPC   NC3 4275   5.423   5.751   9.992  0.0707 -0.1897 -0.2741
  346YOPC   PO4 4276   5.067   5.471  10.101 -0.0556  0.0919 -0.1798
  346YOPC   GL1 4277   4.824   5.575   9.723  0.4587  0.0760  0.2570
  346YOPC   GL2 4278   5.063   5.680   9.482 -0.0413  0.0063  0.1117
  346YOPC   C1A 4279   4.493   5.698   9.407  0.1059  0.2453  0.1937
  346YOPC   D2A 4280   4.249   5.742   9.060  0.2500  0.0380  0.2148
  346YOPC   C3A 4281   4.271   6.038   8.621 -0.0315 -0.2818  0.0955
  346YOPC   C4A 4282   4.285   6.270   8.189  0.2350  0.2890  0.2900
  346YOPC   C1B 4283   4.937   5.356   9.271  0.1688 -0.2249 -0.0166
  346YOPC   C2B 4284   4.738   5.318   8.861  0.1780  0.0674 -0.0244
  346YOPC   D3B 4285   4.967   5.467   8.581 -0.0958  0.2594  0.0644
  346YOPC   C4B 4286   4.892   5.519   8.129 -0.0850 -0.1781 -0.1540
  347YOPC   NC3 4287   3.643   3.929  10.825  0.0031 -0.2761 -0.0740
  347YOPC   PO4 4288   3.468   4.032  10.475 -0.2687 -0.3819 -0.0836
  347YOPC   GL1 4289   3.461   3.965  10.063  0.3064 -0.0749  0.0359
  347YOPC   GL2 4290   3.645   3.759   9.844  0.0807  0.2237 -0.0373
  347YOPC   C1A 4291   3.210   3.987   9.718  0.2486  0.0132  0.6469
  347YOPC   D2A 4292   3.045   3.825   9.321 -0.0676  0.1836  0.0775
  347YOPC   C3A 4293   2.962   3.465   9.129  0.0862  0.3696 -0.0366
  347YOPC   C4A 4294   2.586   3.206   8.966  0.2156  0.0734  0.3247
  347YOPC   C1B 4295   3.562   3.766   9.360  0.2188 -0.1776 -0.0004
  347YOPC   C2B 4296   3.591   3.706   9.007 -0.3251  0.2066  0.0203
  347YOPC   D3B 4297   3.686   4.090   8.735  0.1108 -0.0072 -0.1320
  347YOPC   C4B 4298   4.038   4.147   8.525 -0.0163  0.0274 -0.1125
  348YOPC   NC3 4299   7.417   4.561   9.956  0.0398 -0.0482  0.2067
  348YOPC   PO4 4300   7.235   4.937   9.852 -0.1147  0.2084 -0.1552
  348YOPC   GL1 4301   7.452   5.072   9.542  0.0016 -0.0805  0.0952
  348YOPC   GL2 4302   7.705   4.952   9.484  0.0349  0.0834  0.2865
  348YOPC   C1A 4303   7.365   5.279   9.229 -0.3289  0.2101  0.1776
  348YOPC   D2A 4304   7.386   5.483   8.860  0.1775  0.1063  0.1696
  348YOPC   C3A 4305   7.167   5.542   8.457  0.1380 -0.1887  0.3132
  348YOPC   C4A 4306   6.979   5.406   8.111  0.0700  0.1543 -0.1144
  348YOPC   C1B 4307   7.638   4.816   8.999  0.2956  0.0775 -0.2916
  348YOPC   C2B 4308   7.656   4.665   8.569  0.0351  0.2305  0.0389
  348YOPC   D3B 4309   7.599   4.279   8.475 -0.0333 -0.1307 -0.0554
  348YOPC   C4B 4310   7.935   3.971   8.345 -0.0129 -0.1722 -0.0038
  349YOPC   NC3 4311   5.272   6.804  10.151 -0.1198  0.0733  0.1126
  349YOPC   PO4 4312   5.617   6.970  10.346 -0.3676 -0.0966 -0.0807
  349YOPC   GL1 4313   5.839   6.823  10.005  0.2577 -0.4166 -0.1100
  349YOPC   GL2 4314   5.707   7.000   9.789 -0.0246 -0.1050 -0.1644
  349YOPC   C1A 4315   5.972   6.540   9.691 -0.0622  0.0069  0.0606
  349YOPC   D2A 4316   6.126   6.505   9.192 -0.2005 -0.0743 -0.1759
  349YOPC   C3A 4317   6.068   6.958   8.907 -0.3160  0.1281  0.0986
  349YOPC   C4A 4318   6.418   7.289   8.941  0.0949 -0.0627 -0.0895
  349YOPC   C1B 4319   6.043   6.914   9.415 -0.0696 -0.0179  0.2348
  349YOPC   C2B 4320   6.478   6.918   9.272 -0.1928  0.3606  0.0688
  349YOPC   D3B 4321   6.504   6.768   8.794  0.1241  0.0392 -0.2128
  349YOPC   C4B 4322   6.360   6.924   8.470 -0.0720 -0.1616  0.1084
  350YOPC   NC3 4323   9.229  10.656  10.260  0.3577  0.0724 -0.0622
  350YOPC   PO4 4324   8.872  10.589  10.498 -0.0406  0.0870 -0.0971
  350YOPC   GL1 4325   8.647  10.646  10.155  0.1927 -0.1522  0.1314
  350YOPC   GL2 4326   8.906  10.524   9.886  0.2268 -0.0229  0.1571
  350YOPC   C1A 4327   8.429  10.597   9.792 -0.0972  0.2035  0.3466
  350YOPC   D2A 4328   8.169  10.782   9.505 -0.2450  0.0148  0.2627
  350YOPC   C3A 4329   8.148  10.739   9.110 -0.1137 -0.3143  0.0748
  350YOPC   C4A 4330   8.076  10.701   8.619  0.0954  0.1694  0.1934
  350YOPC   C1B 4331   8.828  10.424   9.518  0.0965 -0.0342  0.0815
  350YOPC   C2B 4332   8.512  10.352   9.364 -0.0526  0.1935 -0.3384
  350YOPC   D3B 4333   8.533  10.484   8.910  0.0349 -0.0393  0.0211
  350YOPC   C4B 4334   8.371  10.227   8.604  0.1269 -0.1289  0.0834
  351YOPC   NC3 4335  17.150  11.016  10.279  0.1463  0.1610  0.0223
  351YOPC   PO4 4336  16.875  10.657  10.319  0.0641  0.1709  0.1141
  351YOPC   GL1 4337  16.872  10.727   9.937 -0.0605 -0.2499  0.2266
  351YOPC   GL2 4338  16.696  10.496   9.866 -0.2991  0.1521 -0.0633
  351YOPC   C1A 4339  16.928  10.680   9.499 -0.2702  0.3358 -0.0122
  351YOPC   D2A 4340  16.901  10.608   9.043  0.0060 -0.0641  0.2129
  351YOPC   C3A 4341  17.145  10.709   8.665  0.0509 -0.1048  0.0302
  351YOPC   C4A 4342  17.150  10.705   8.231 -0.0818 -0.0475 -0.2192
  351YOPC   C1B 4343  16.613  10.245   9.501 -0.0729  0.0691 -0.0233
  351YOPC   C2B 4344  16.591  10.200   9.082  0.0157 -0.3577  0.0704
  351YOPC   D3B 4345  16.309  10.262   8.626  0.0168  0.0142 -0.0577
  351YOPC   C4B 4346  16.546  10.379   8.215  0.2633  0.2225 -0.0843
  352YOPC   NC3 4347  14.159   7.033  10.073 -0.1294  0.2089 -0.1402
  352YOPC   PO4 4348  13.824   7.443  10.122 -0.4186  0.4182  0.1215
  352YOPC   GL1 4349  13.950   7.514   9.742  0.3731 -0.0862  0.1187
  352YOPC   GL2 4350  13.826   7.277   9.654 -0.1863  0.0972  0.0154
  352YOPC   C1A 4351  13.994   7.684   9.337  0.0294 -0.1706  0.1066
  352YOPC   D2A 4352  13.923   7.772   8.893  0.3632 -0.0099 -0.1440
  352YOPC   C3A 4353  13.502   7.766   8.812 -0.1317 -0.3264  0.1239
  352YOPC   C4A 4354  13.156   7.856   9.025 -0.2450 -0.0531 -0.0432
  352YOPC   C1B 4355  14.146   7.195   9.348 -0.2424  0.0369  0.0237
  352YOPC   C2B 4356  14.166   7.178   8.904  0.2410 -0.0687 -0.1964
  352YOPC   D3B 4357  14.276   7.525   8.701  0.0155  0.0899 -0.1364
  352YOPC   C4B 4358  14.022   7.807   8.380 -0.4054 -0.0884 -0.3704
  353YOPC   NC3 4359  11.386  16.878  10.006 -0.1051 -0.0562  0.1149
  353YOPC   PO4 4360  11.038  16.476  10.151 -0.0103  0.2488  0.0516
  353YOPC   GL1 4361  11.158  16.484   9.651  0.0187 -0.0174 -0.1516
  353YOPC   GL2 4362  11.028  16.298   9.409 -0.0095 -0.0870 -0.0537
  353YOPC   C1A 4363  11.343  16.543   9.162  0.1748 -0.1276  0.0429
  353YOPC   D2A 4364  11.386  16.358   8.796 -0.2900 -0.4111 -0.2030
  353YOPC   C3A 4365  11.607  16.534   8.414  0.0793 -0.0086 -0.0370
  353YOPC   C4A 4366  11.701  16.576   7.958 -0.0888 -0.2540  0.2043
  353YOPC   C1B 4367  11.401  16.087   9.549  0.1466 -0.0163  0.0082
  353YOPC   C2B 4368  11.711  15.654   9.570 -0.0792 -0.0622  0.0539
  353YOPC   D3B 4369  11.886  15.518   9.124  0.3417  0.0565  0.1554
  353YOPC   C4B 4370  11.906  15.603   8.718 -0.1243 -0.1308  0.2404
  354YOPC   NC3 4371   1.328  12.683  10.465  0.0943 -0.0274  0.0654
  354YOPC   PO4 4372   0.897  12.781  10.532  0.2157 -0.0646  0.2363
  354YOPC   GL1 4373   0.757  12.716  10.001 -0.1935 -0.3363  0.0596
  354YOPC   GL2 4374   0.691  13.067   9.866 -0.0065  0.3526 -0.0403
  354YOPC   C1A 4375   0.618  12.488   9.582  0.1805 -0.0840 -0.1956
  354YOPC   D2A 4376   0.496  12.504   9.082 -0.1132 -0.2128 -0.3256
  354YOPC   C3A 4377   0.788  12.586   8.747 -0.1528 -0.1653  0.1158
  354YOPC   C4A 4378   0.808  12.511   8.329  0.0414 -0.2282  0.2469
  354YOPC   C1B 4379   0.787  13.020   9.484 -0.1134 -0.0021  0.1862
  354YOPC   C2B 4380   0.834  12.875   9.170 -0.1269  0.2083  0.0277
  354YOPC   D3B 4381   0.932  13.063   8.816 -0.1406  0.1033  0.0847
  354YOPC   C4B 4382   0.869  12.991   8.402  0.2215  0.2870 -0.0043
  355YOPC   NC3 4383   4.412   7.102  10.302  0.0520 -0.0502 -0.0775
  355YOPC   PO4 4384   4.195   7.489  10.267  0.1111  0.0757 -0.0038
  355YOPC   GL1 4385   4.118   7.234   9.892  0.0160  0.2503 -0.0881
  355YOPC   GL2 4386   3.776   7.134   9.738 -0.0582 -0.0007  0.0909
  355YOPC   C1A 4387   4.174   7.393   9.462  0.1840  0.1665 -0.0981
  355YOPC   D2A 4388   4.246   7.446   8.989 -0.1649  0.0031  0.1810
  355YOPC   C3A 4389   4.171   7.706   8.696 -0.1531  0.1572 -0.0564
  355YOPC   C4A 4390   3.902   7.546   8.486 -0.0309 -0.1556  0.4174
  355YOPC   C1B 4391   3.701   7.113   9.308 -0.1012  0.2755 -0.1640
  355YOPC   C2B 4392   3.645   7.147   8.857  0.3215  0.0784  0.3179
  355YOPC   D3B 4393   3.238   7.103   8.609 -0.1867 -0.1363 -0.1725
  355YOPC   C4B 4394   2.947   6.774   8.484 -0.1034  0.0737 -0.2379
  356YOPC   NC3 4395   9.523   5.645  10.455 -0.0446 -0.0977  0.0274
  356YOPC   PO4 4396   9.122   5.658  10.268  0.1526  0.2116  0.1224
  356YOPC   GL1 4397   9.447   5.893  10.021 -0.3111  0.4086  0.4595
  356YOPC   GL2 4398   9.474   6.235   9.983  0.0678  0.0034 -0.2881
  356YOPC   C1A 4399   9.758   5.748   9.585 -0.3615  0.2586 -0.1925
  356YOPC   D2A 4400  10.040   5.424   9.468  0.1962  0.0866  0.1511
  356YOPC   C3A 4401  10.255   5.400   9.155 -0.5153  0.0508 -0.2055
  356YOPC   C4A 4402  10.088   5.503   8.734  0.3172  0.3406  0.1766
  356YOPC   C1B 4403   9.272   6.201   9.583  0.2314  0.0062  0.2810
  356YOPC   C2B 4404   9.530   6.086   9.161 -0.0715 -0.1059  0.0452
  356YOPC   D3B 4405   9.459   6.351   8.852 -0.1278 -0.0489 -0.2466
  356YOPC   C4B 4406   9.390   6.621   8.607  0.2098 -0.1284 -0.2017
  357YOPC   NC3 4407  13.010  17.953  10.643 -0.2050 -0.0284 -0.0706
  357YOPC   PO4 4408  13.221  17.893  10.280 -0.0921 -0.0981  0.0146
  357YOPC   GL1 4409  13.515  17.882  10.015  0.0301  0.1479 -0.2053
  357YOPC   GL2 4410  13.805  17.817  10.199  0.2036 -0.1906 -0.0042
  357YOPC   C1A 4411  13.803  18.060   9.642 -0.2351  0.2057 -0.1225
  357YOPC   D2A 4412  14.043  18.041   9.354  0.1523 -0.0117  0.0772
  357YOPC   C3A 4413  13.986  18.046   8.988  0.0404  0.1067  0.4156
  357YOPC   C4A 4414  14.242  18.155   8.621 -0.0034  0.0554 -0.1480
  357YOPC   C1B 4415  14.109  18.077   9.983 -0.1665  0.0442 -0.2786
  357YOPC   C2B 4416  14.456  18.254   9.639 -0.0565  0.1371  0.2598
  357YOPC   D3B 4417  14.466  18.203   9.173 -0.0387  0.0655  0.0844
  357YOPC   C4B 4418  14.764  18.141   8.933 -0.0979 -0.1084  0.1110
  358YOPC   NC3 4419   1.048   9.676  10.884 -0.0534 -0.1541  0.2957
  358YOPC   PO4 4420   0.939   9.293  10.687 -0.2119  0.2047 -0.2370
  358YOPC   GL1 4421   0.864   9.464  10.322 -0.1456  0.4105  0.0074
  358YOPC   GL2 4422   0.776   9.210  10.154  0.1674  0.1971 -0.1017
  358YOPC   C1A 4423   1.005   9.754  10.041 -0.2241 -0.1852 -0.2602
  358YOPC   D2A 4424   1.334   9.781   9.816 -0.0037  0.0238  0.1154
  358YOPC   C3A 4425   1.244   9.721   9.340 -0.0413 -0.2064  0.1391
  358YOPC   C4A 4426   1.096   9.523   8.970 -0.2591  0.2595 -0.1145
  358YOPC   C1B 4427   0.753   9.412   9.798  0.0586 -0.2609  0.2177
  358YOPC   C2B 4428   0.943   9.398   9.475 -0.0745  0.2491 -0.1953
  358YOPC   D3B 4429   0.922   9.096   9.141 -0.0556 -0.0327  0.0971
  358YOPC   C4B 4430   0.951   8.829   8.795  0.0855  0.0425  0.2870
  359YOPC   NC3 4431   0.457   3.683  10.070 -0.0556 -0.2179 -0.1010
  359YOPC   PO4 4432   0.637   4.100  10.142 -0.2379  0.1681  0.2538
  359YOPC   GL1 4433   0.842   4.276   9.851  0.2393  0.2624 -0.0029
  359YOPC   GL2 4434   1.107   4.459   9.936  0.0526  0.0426 -0.2632
  359YOPC   C1A 4435   1.069   4.365   9.429 -0.2728  0.0310 -0.0583
  359YOPC   D2A 4436   1.142   4.379   9.008 -0.0983  0.1235 -0.0554
  359YOPC   C3A 4437   1.539   4.071   8.932 -0.0999 -0.0461  0.2402
  359YOPC   C4A 4438   1.771   3.632   8.939 -0.4148  0.2664 -0.1165
  359YOPC   C1B 4439   1.523   4.295   9.769 -0.0888 -0.1186  0.1811
  359YOPC   C2B 4440   1.615   4.387   9.307 -0.1283 -0.1591 -0.1961
  359YOPC   D3B 4441   1.543   4.636   8.873  0.1309 -0.0239  0.3235
  359YOPC   C4B 4442   1.334   4.685   8.424 -0.1274 -0.0420  0.2285
  360YOPC   NC3 4443   3.861   2.828  10.210 -0.2151  0.0747  0.0032
  360YOPC   PO4 4444   4.185   2.435  10.312 -0.0761 -0.1400  0.0476
  360YOPC   GL1 4445   4.065   2.320   9.899  0.1166 -0.3091 -0.0551
  360YOPC   GL2 4446   3.976   2.474   9.696  0.1505  0.0007  0.0695
  360YOPC   C1A 4447   3.814   1.951   9.662  0.0277 -0.1003 -0.2265
  360YOPC   D2A 4448   3.623   1.972   9.262 -0.0504 -0.3581  0.3721
  360YOPC   C3A 4449   3.167   1.926   9.243 -0.0592 -0.0034  0.3101
  360YOPC   C4A 4450   3.067   1.789   8.793  0.0228  0.0180 -0.1496
  360YOPC   C1B 4451   3.994   2.315   9.353  0.4108  0.1209 -0.0381
  360YOPC   C2B 4452   3.800   2.415   8.945 -0.1731 -0.2014  0.1676
  360YOPC   D3B 4453   4.179   2.398   8.623  0.1086 -0.4410  0.0588
  360YOPC   C4B 4454   4.190   2.366   8.215  0.0824  0.0404 -0.1419
  361YOPC   NC3 4455  10.682  11.460  10.743  0.0497  0.0666 -0.0292
  361YOPC   PO4 4456  10.524  11.537  10.345 -0.1329  0.1722 -0.2084
  361YOPC   GL1 4457  10.217  11.475   9.915  0.1011 -0.1100 -0.0413
  361YOPC   GL2 4458  10.203  11.173   9.834  0.1741 -0.0041  0.0327
  361YOPC   C1A 4459  10.297  11.541   9.550  0.0957  0.0870 -0.1458
  361YOPC   D2A 4460  10.486  11.330   9.285 -0.0003  0.1085 -0.0002
  361YOPC   C3A 4461  10.416  11.152   8.860  0.1566  0.0384  0.0174
  361YOPC   C4A 4462  10.304  11.034   8.433  0.0451  0.2963 -0.1511
  361YOPC   C1B 4463  10.330  10.883   9.445 -0.1140 -0.2560  0.5770
  361YOPC   C2B 4464  10.407  10.700   9.121  0.1805 -0.0710 -0.2073
  361YOPC   D3B 4465  10.046  10.557   8.841  0.0853 -0.1596 -0.2783
  361YOPC   C4B 4466  10.020  10.458   8.524 -0.3375 -0.0229  0.2621
  362YOPC   NC3 4467   8.832   1.999  10.239 -0.0054 -0.1155 -0.2045
  362YOPC   PO4 4468   8.484   1.781  10.244  0.2801 -0.1055  0.3635
  362YOPC   GL1 4469   8.577   1.627   9.826 -0.2542  0.1551 -0.0729
  362YOPC   GL2 4470   8.589   1.827   9.653 -0.2175  0.1317  0.0777
  362YOPC   C1A 4471   8.716   1.403   9.503 -0.0100  0.0633  0.1247
  362YOPC   D2A 4472   8.949   1.446   9.199 -0.3116  0.1656  0.0793
  362YOPC   C3A 4473   8.866   1.432   8.841  0.0131  0.1920  0.3124
  362YOPC   C4A 4474   8.908   1.429   8.352  0.0436 -0.0926  0.0157
  362YOPC   C1B 4475   8.529   1.797   9.191  0.0377 -0.0209  0.0293
  362YOPC   C2B 4476   8.526   1.766   8.766 -0.2204  0.0413  0.2475
  362YOPC   D3B 4477   8.433   1.557   8.388 -0.2192 -0.0253 -0.1084
  362YOPC   C4B 4478   8.552   1.328   8.033  0.2397 -0.0814  0.1794
  363YOPC   NC3 4479  11.812  15.709  10.483 -0.2479  0.1309 -0.2458
  363YOPC   PO4 4480  12.103  15.915  10.193 -0.2039  0.2087 -0.0687
  363YOPC   GL1 4481  12.097  15.884   9.735 -0.0548 -0.0921 -0.0878
  363YOPC   GL2 4482  12.067  16.206   9.707  0.0231  0.3531 -0.0631
  363YOPC   C1A 4483  12.239  15.603   9.438  0.1983  0.0093  0.0888
  363YOPC   D2A 4484  12.702  15.560   9.260  0.1237  0.2011 -0.0433
  363YOPC   C3A 4485  12.936  15.436   8.849  0.3607  0.1099 -0.1388
  363YOPC   C4A 4486  12.870  15.540   8.443  0.5794 -0.2911 -0.0102
  363YOPC   C1B 4487  11.845  16.100   9.361  0.2104  0.1929  0.1292
  363YOPC   C2B 4488  11.575  15.886   9.043  0.0292  0.1990  0.0553
  363YOPC   D3B 4489  11.402  15.874   8.635  0.0511 -0.1124  0.1559
  363YOPC   C4B 4490  11.523  16.066   8.202 -0.1080 -0.0328  0.1876
  364YOPC   NC3 4491  16.209  16.872  10.469  0.0172  0.1984 -0.0818
  364YOPC   PO4 4492  16.312  17.271  10.452  0.0854  0.0360 -0.0730
  364YOPC   GL1 4493  16.633  17.016  10.196  0.0037 -0.0001  0.3465
  364YOPC   GL2 4494  16.799  17.187  10.040 -0.2420 -0.2394 -0.0435
  364YOPC   C1A 4495  16.728  16.647   9.870  0.0581  0.0631  0.0836
  364YOPC   D2A 4496  16.843  16.618   9.363 -0.2373  0.0182  0.0630
  364YOPC   C3A 4497  16.692  16.648   9.000 -0.1546 -0.2626  0.0597
  364YOPC   C4A 4498  16.764  16.464   8.595 -0.0367 -0.1883 -0.0845
  364YOPC   C1B 4499  17.162  17.524   9.855 -0.3235  0.0531 -0.1534
  364YOPC   C2B 4500  17.194  17.825   9.481 -0.2720  0.4072  0.0203
  364YOPC   D3B 4501  16.956  17.673   9.135  0.1700  0.2509 -0.1356
  364YOPC   C4B 4502  16.914  17.484   8.682  0.0017  0.2787  0.1033
  365YOPC   NC3 4503  15.269   7.703  10.714 -0.1370  0.1194 -0.0167
  365YOPC   PO4 4504  15.408   7.822  10.256  0.2342 -0.0395  0.1223
  365YOPC   GL1 4505  15.720   7.836  10.052  0.0297 -0.0069 -0.0156
  365YOPC   GL2 4506  15.604   7.737   9.804 -0.2126  0.2387  0.0211
  365YOPC   C1A 4507  15.892   8.133   9.666  0.1826 -0.2724 -0.3782
  365YOPC   D2A 4508  15.792   8.392   9.246 -0.1209 -0.1000 -0.1433
  365YOPC   C3A 4509  15.420   8.410   8.931 -0.0470  0.0391 -0.1073
  365YOPC   C4A 4510  15.247   8.662   8.577  0.0995  0.0055  0.2526
  365YOPC   C1B 4511  15.488   7.497   9.451  0.3713 -0.4335 -0.0887
  365YOPC   C2B 4512  15.532   7.477   9.045 -0.2284 -0.0099 -0.3371
  365YOPC   D3B 4513  15.225   7.506   8.755 -0.0476  0.5326 -0.0126
  365YOPC   C4B 4514  15.021   7.227   8.392  0.1324 -0.0468 -0.0820
  366YOPC   NC3 4515   2.274  11.953  10.296 -0.0799 -0.1182 -0.2166
  366YOPC   PO4 4516   2.329  11.502  10.345  0.0613  0.2114  0.2923
  366YOPC   GL1 4517   2.530  11.620  10.014  0.0841  0.2283  0.0674
  366YOPC   GL2 4518   2.512  11.352   9.848  0.1924 -0.2375 -0.1830
  366YOPC   C1A 4519   2.712  11.697   9.540 -0.2167 -0.2060 -0.1720
  366YOPC   D2A 4520   2.922  11.530   9.133  0.0408 -0.0448 -0.1015
  366YOPC   C3A 4521   3.347  11.595   8.905  0.3505  0.0998  0.2288
  366YOPC   C4A 4522   3.359  11.945   8.523  0.1074 -0.0448 -0.2193
  366YOPC   C1B 4523   2.408  11.057   9.453 -0.0506 -0.0509  0.1834
  366YOPC   C2B 4524   2.425  10.894   8.955 -0.3037  0.0384 -0.1531
  366YOPC   D3B 4525   2.201  10.949   8.692  0.2516  0.2296 -0.1424
  366YOPC   C4B 4526   2.067  10.727   8.226  0.3952  0.0736  0.1163
  367YOPC   NC3 4527   8.032   3.464  10.141 -0.3053 -0.1936 -0.0682
  367YOPC   PO4 4528   7.931   3.913  10.137  0.1438  0.0580  0.1333
  367YOPC   GL1 4529   7.817   3.914   9.709 -0.1913 -0.1894  0.0952
  367YOPC   GL2 4530   7.595   4.110   9.847 -0.2029 -0.0708  0.0369
  367YOPC   C1A 4531   8.092   3.912   9.455 -0.0621 -0.1642 -0.1141
  367YOPC   D2A 4532   8.362   4.012   9.151  0.0262 -0.0404 -0.0058
  367YOPC   C3A 4533   8.347   4.016   8.623 -0.0484  0.1887 -0.2261
  367YOPC   C4A 4534   8.463   3.945   8.181  0.0802  0.2247  0.1523
  367YOPC   C1B 4535   7.473   4.010   9.351  0.0313  0.5600 -0.0142
  367YOPC   C2B 4536   7.528   3.962   8.948 -0.0358  0.0130  0.4240
  367YOPC   D3B 4537   7.434   3.821   8.485  0.0465 -0.0420 -0.1767
  367YOPC   C4B 4538   7.497   4.009   8.044 -0.2833  0.1584  0.3388
  368YOPC   NC3 4539   6.515  12.355  11.053 -0.2537 -0.0566 -0.2819
  368YOPC   PO4 4540   6.491  12.343  10.657 -0.1798  0.1781  0.0470
  368YOPC   GL1 4541   6.847  12.503  10.392  0.1116  0.0061 -0.0666
  368YOPC   GL2 4542   6.602  12.746  10.211 -0.4076 -0.3161 -0.1182
  368YOPC   C1A 4543   6.911  12.431   9.987  0.1488  0.3157 -0.0293
  368YOPC   D2A 4544   6.738  12.196   9.708 -0.0383  0.2431 -0.1012
  368YOPC   C3A 4545   6.854  12.240   9.357 -0.0681  0.0875  0.2380
  368YOPC   C4A 4546   7.245  12.179   9.073  0.0869 -0.2862 -0.0098
  368YOPC   C1B 4547   6.506  12.672   9.713 -0.3405  0.0942  0.0735
  368YOPC   C2B 4548   6.397  12.377   9.387 -0.1422 -0.0624  0.3385
  368YOPC   D3B 4549   6.095  12.306   9.356 -0.0146 -0.1155  0.0969
  368YOPC   C4B 4550   5.861  12.020   9.534 -0.1096  0.0895  0.0105
  369YOPC   NC3 4551   5.448   1.743  10.768  0.2258  0.1478 -0.0010
  369YOPC   PO4 4552   5.513   1.466  10.450  0.2027 -0.4680 -0.0703
  369YOPC   GL1 4553   5.401   1.481  10.003 -0.2518 -0.2116  0.2231
  369YOPC   GL2 4554   5.588   1.650   9.968 -0.0244 -0.0746  0.0408
  369YOPC   C1A 4555   5.234   1.353   9.646  0.1702 -0.1926  0.1965
  369YOPC   D2A 4556   4.928   1.158   9.424  0.1439 -0.0279 -0.1253
  369YOPC   C3A 4557   4.928   0.930   9.094 -0.0796 -0.0719 -0.0699
  369YOPC   C4A 4558   5.070   0.691   8.696 -0.1083  0.2085  0.1428
  369YOPC   C1B 4559   5.764   1.575   9.597  0.1810  0.0899 -0.0628
  369YOPC   C2B 4560   5.807   1.501   9.184 -0.1281  0.1005 -0.0378
  369YOPC   D3B 4561   5.577   1.342   8.740  0.1927  0.2706 -0.0326
  369YOPC   C4B 4562   5.669   1.311   8.336  0.2053  0.0841 -0.1315
  370YOPC   NC3 4563  17.259  13.655  11.059 -0.3073  0.2419 -0.2644
  370YOPC   PO4 4564  17.420  13.759  10.720  0.1664 -0.1139 -0.0002
  370YOPC   GL1 4565  17.440  13.802  10.246 -0.1027 -0.1739 -0.1812
  370YOPC   GL2 4566  17.643  13.625  10.101 -0.0111  0.1108  0.2357
  370YOPC   C1A 4567  17.289  13.875   9.807 -0.1649  0.1458 -0.0785
  370YOPC   D2A 4568  16.933  13.900   9.560  0.2170  0.0520 -0.0537
  370YOPC   C3A 4569  16.743  13.960   9.187  0.1329 -0.2105  0.0525
  370YOPC   C4A 4570  17.013  13.815   8.772 -0.0898 -0.0879 -0.0186
  370YOPC   C1B 4571  17.871  13.682   9.807 -0.1940 -0.1219 -0.2097
  370YOPC   C2B 4572  18.297  13.424   9.574 -0.1133  0.0088  0.1044
  370YOPC   D3B 4573  18.228  13.434   9.165  0.1261 -0.2595 -0.3803
  370YOPC   C4B 4574  18.268  13.289   8.739  0.1220  0.1619 -0.1248
  371YOPC   NC3 4575  12.180   7.344  10.535 -0.0161 -0.2902 -0.0215
  371YOPC   PO4 4576  12.140   7.318  10.075  0.1255 -0.4658 -0.1424
  371YOPC   GL1 4577  12.102   7.316   9.605  0.0500 -0.1826 -0.0550
  371YOPC   GL2 4578  11.932   7.032   9.592 -0.0676 -0.0227  0.0139
  371YOPC   C1A 4579  11.998   7.442   9.205 -0.1362  0.2097  0.2129
  371YOPC   D2A 4580  11.930   7.371   8.793  0.1598  0.1123 -0.0087
  371YOPC   C3A 4581  11.597   7.103   8.634  0.0427  0.0283  0.3215
  371YOPC   C4A 4582  11.376   7.147   8.196 -0.0276 -0.1205  0.3116
  371YOPC   C1B 4583  11.929   6.975   9.216 -0.1571 -0.0258  0.0079
  371YOPC   C2B 4584  12.099   6.905   8.779  0.4525  0.0594  0.1905
  371YOPC   D3B 4585  12.320   6.738   8.437  0.1869  0.1271  0.1523
  371YOPC   C4B 4586  12.639   6.444   8.125  0.0356 -0.1225 -0.0438
  372YOPC   NC3 4587   8.618   8.992  11.207 -0.1128  0.4724 -0.0413
  372YOPC   PO4 4588   8.256   8.898  10.886  0.0115  0.0972  0.1461
  372YOPC   GL1 4589   8.248   8.862  10.441  0.1223  0.0967  0.3206
  372YOPC   GL2 4590   8.513   8.724  10.265 -0.0682 -0.1022  0.2811
  372YOPC   C1A 4591   8.157   9.101   9.966  0.0633  0.1692  0.3520
  372YOPC   D2A 4592   8.305   9.073   9.476 -0.1188 -0.3145 -0.2407
  372YOPC   C3A 4593   8.057   9.325   9.164 -0.0535 -0.1589 -0.4162
  372YOPC   C4A 4594   7.774   9.653   9.380 -0.1062 -0.1646  0.1203
  372YOPC   C1B 4595   8.230   8.629   9.880 -0.1376 -0.1969 -0.0094
  372YOPC   C2B 4596   7.928   8.842   9.628 -0.0689  0.0236  0.0531
  372YOPC   D3B 4597   8.019   8.772   9.092  0.1011 -0.0206 -0.0659
  372YOPC   C4B 4598   7.919   8.871   8.770  0.1703 -0.2688 -0.0912
  373YOPC   NC3 4599   7.199  17.716  10.508 -0.1132 -0.1875  0.0514
  373YOPC   PO4 4600   7.004  17.325  10.566 -0.1030  0.2433  0.1913
  373YOPC   GL1 4601   7.068  17.392  10.060 -0.1695 -0.1325 -0.0146
  373YOPC   GL2 4602   7.217  17.198   9.835 -0.1224  0.0518  0.0194
  373YOPC   C1A 4603   6.839  17.486   9.720  0.0810  0.2513 -0.3209
  373YOPC   D2A 4604   6.752  17.678   9.312 -0.1264 -0.1251 -0.2533
  373YOPC   C3A 4605   6.800  18.128   9.113 -0.0307 -0.1305  0.1427
  373YOPC   C4A 4606   6.500  18.270   8.841  0.0864 -0.1316  0.3934
  373YOPC   C1B 4607   7.268  17.505   9.390 -0.1621 -0.1815 -0.0984
  373YOPC   C2B 4608   7.221  17.475   8.965 -0.2634 -0.0053 -0.0122
  373YOPC   D3B 4609   7.006  17.655   8.750  0.0144 -0.1909  0.0130
  373YOPC   C4B 4610   6.730  17.935   8.546  0.0084  0.2390  0.0952
  374YOPC   NC3 4611   9.621   7.884  10.417  0.2354  0.2678 -0.0449
  374YOPC   PO4 4612   9.214   7.716  10.534 -0.1220  0.2243 -0.0140
  374YOPC   GL1 4613   9.290   7.654  10.091  0.0818  0.2825 -0.0328
  374YOPC   GL2 4614   9.510   7.770   9.949  0.0996 -0.2099  0.1810
  374YOPC   C1A 4615   9.259   7.421   9.655 -0.1642  0.0521  0.1307
  374YOPC   D2A 4616   9.154   7.104   9.421  0.0822  0.0362 -0.1769
  374YOPC   C3A 4617   9.106   6.990   9.070 -0.2573  0.1407 -0.0084
  374YOPC   C4A 4618   9.008   6.954   8.668 -0.5586  0.1756  0.1991
  374YOPC   C1B 4619   9.736   7.854   9.736  0.2076  0.2512  0.4196
  374YOPC   C2B 4620   9.576   7.711   9.347 -0.3225 -0.0938  0.2118
  374YOPC   D3B 4621   9.298   7.497   9.110  0.0690  0.1028 -0.0894
  374YOPC   C4B 4622   9.193   7.417   8.644  0.1770 -0.3224 -0.3889
  375YOPC   NC3 4623   8.273  12.351  10.352 -0.0737 -0.3218 -0.0939
  375YOPC   PO4 4624   8.633  12.499  10.121 -0.1252 -0.3558  0.0608
  375YOPC   GL1 4625   8.428  12.305   9.806 -0.3533  0.4610 -0.2972
  375YOPC   GL2 4626   8.163  12.226   9.868  0.1580 -0.0329  0.0152
  375YOPC   C1A 4627   8.423  12.350   9.447 -0.0738 -0.0613  0.3335
  375YOPC   D2A 4628   8.282  12.471   9.084 -0.0288  0.3379  0.0320
  375YOPC   C3A 4629   7.914  12.512   8.853  0.1101 -0.0759  0.0291
  375YOPC   C4A 4630   7.748  12.392   8.488 -0.0923  0.0446 -0.1798
  375YOPC   C1B 4631   7.926  12.152   9.592 -0.4896  0.1540  0.0545
  375YOPC   C2B 4632   7.902  12.183   9.243 -0.1895 -0.3831 -0.1400
  375YOPC   D3B 4633   7.691  12.040   8.955  0.0166  0.1071 -0.1663
  375YOPC   C4B 4634   7.380  12.016   8.647 -0.2908 -0.0477  0.1583
  376YOPC   NC3 4635  14.774   0.120  11.069  0.0415 -0.1141  0.0324
  376YOPC   PO4 4636  14.945  -0.075  10.836 -0.2415 -0.1604  0.2742
  376YOPC   GL1 4637  15.048  -0.213  10.413  0.1482 -0.1047  0.2604
  376YOPC   GL2 4638  15.067   0.142  10.270 -0.3346 -0.0397 -0.3426
  376YOPC   C1A 4639  15.099  -0.318   9.972  0.3309  0.0303 -0.0281
  376YOPC   D2A 4640  14.919  -0.290   9.579 -0.1039 -0.1390  0.0249
  376YOPC   C3A 4641  14.986   0.108   9.399  0.1202 -0.1391 -0.0593
  376YOPC   C4A 4642  14.973   0.304   9.078  0.1105 -0.1809  0.0853
  376YOPC   C1B 4643  15.041   0.323   9.901 -0.2230 -0.0212 -0.1869
  376YOPC   C2B 4644  15.051   0.659   9.557  0.2642 -0.0438 -0.3381
  376YOPC   D3B 4645  15.024   0.752   9.266  0.0359 -0.0838  0.3174
  376YOPC   C4B 4646  15.244   0.927   8.887  0.1852  0.1693 -0.3316
  377YOPC   NC3 4647  16.328  13.686  10.459  0.0531 -0.2231  0.2285
  377YOPC   PO4 4648  15.995  13.855  10.782  0.1031 -0.2248  0.1012
  377YOPC   GL1 4649  15.878  14.047  10.340 -0.1819 -0.3726 -0.0486
  377YOPC   GL2 4650  15.954  14.445  10.265 -0.1087 -0.0532 -0.1939
  377YOPC   C1A 4651  15.544  13.975  10.043  0.0478 -0.2122 -0.1033
  377YOPC   D2A 4652  15.129  13.912   9.808  0.2027 -0.2581 -0.3493
  377YOPC   C3A 4653  15.036  13.801   9.295 -0.2451  0.0526  0.0054
  377YOPC   C4A 4654  15.123  13.609   8.797  0.0558  0.3220  0.1040
  377YOPC   C1B 4655  15.820  14.449   9.935  0.1788  0.0344 -0.1048
  377YOPC   C2B 4656  15.920  14.222   9.608  0.1439  0.1922 -0.0286
  377YOPC   D3B 4657  15.862  13.939   9.301 -0.0958  0.0745 -0.0970
  377YOPC   C4B 4658  15.669  14.099   8.913  0.1269  0.0915  0.2440
  378YOPC   NC3 4659  13.043   1.443  10.380 -0.3255  0.0648  0.0450
  378YOPC   PO4 4660  13.299   1.784  10.150  0.2901  0.0039 -0.2536
  378YOPC   GL1 4661  13.568   1.681   9.777 -0.1536 -0.0332 -0.0009
  378YOPC   GL2 4662  13.529   1.800   9.411  0.0116  0.1195  0.1837
  378YOPC   C1A 4663  13.981   1.740   9.616  0.0682  0.0318 -0.1297
  378YOPC   D2A 4664  14.309   1.508   9.461 -0.0659 -0.2240  0.4606
  378YOPC   C3A 4665  14.343   1.355   9.082  0.0155  0.0321  0.1107
  378YOPC   C4A 4666  14.454   1.180   8.718  0.1597  0.0982  0.3987
  378YOPC   C1B 4667  13.554   2.107   9.074  0.0734  0.0504 -0.2260
  378YOPC   C2B 4668  13.596   2.146   8.654 -0.2487 -0.2459  0.1643
  378YOPC   D3B 4669  13.452   2.544   8.398  0.0409 -0.0758  0.0650
  378YOPC   C4B 4670  13.094   2.690   8.130  0.4294  0.3873 -0.0903
  379YOPC   NC3 4671  16.824   7.524  10.507 -0.1467  0.1306  0.1642
  379YOPC   PO4 4672  17.025   7.214  10.185  0.0451 -0.0387 -0.0927
  379YOPC   GL1 4673  17.368   7.384   9.942  0.0198 -0.1456 -0.1401
  379YOPC   GL2 4674  17.632   7.166   9.852  0.0305  0.1247 -0.0209
  379YOPC   C1A 4675  17.333   7.269   9.474 -0.0044 -0.3742  0.2871
  379YOPC   D2A 4676  17.599   7.346   9.066  0.1864 -0.1080 -0.0227
  379YOPC   C3A 4677  17.496   7.652   8.749 -0.1557  0.0040 -0.0337
  379YOPC   C4A 4678  17.344   8.059   8.603  0.0901 -0.0799  0.1786
  379YOPC   C1B 4679  17.898   7.347   9.614 -0.0702 -0.5499  0.0098
  379YOPC   C2B 4680  18.226   7.777   9.688  0.0218 -0.0661 -0.0120
  379YOPC   D3B 4681  18.095   8.124   9.409  0.0222 -0.1459 -0.2095
  379YOPC   C4B 4682  18.229   8.548   9.344 -0.1695  0.0369  0.0296
  380YOPC   NC3 4683   1.580   2.531  10.312  0.0124 -0.1697  0.1456
  380YOPC   PO4 4684   1.178   2.529  10.270 -0.1809 -0.2367  0.2498
  380YOPC   GL1 4685   1.213   2.355   9.872 -0.4458  0.0780 -0.0222
  380YOPC   GL2 4686   1.184   2.078   9.842 -0.1468 -0.1029  0.1916
  380YOPC   C1A 4687   1.641   2.222   9.580 -0.0021 -0.0321  0.1992
  380YOPC   D2A 4688   1.762   2.161   9.168 -0.1603  0.4381 -0.1109
  380YOPC   C3A 4689   1.598   2.261   8.704  0.1839  0.0071 -0.0756
  380YOPC   C4A 4690   1.767   2.128   8.312 -0.2970 -0.0616  0.2104
  380YOPC   C1B 4691   1.188   2.023   9.454  0.3520  0.1203  0.0832
  380YOPC   C2B 4692   1.338   1.883   9.192  0.1132 -0.0724  0.0507
  380YOPC   D3B 4693   1.571   1.681   9.486  0.1528  0.0847 -0.2809
  380YOPC   C4B 4694   1.506   1.649   9.907 -0.0987 -0.1150  0.0250
  381YOPC   NC3 4695   2.863   9.729  10.597  0.3659 -0.1194 -0.1185
  381YOPC   PO4 4696   2.972  10.188  10.630  0.0601  0.1055 -0.0020
  381YOPC   GL1 4697   3.138  10.172  10.332 -0.3248  0.0726 -0.1728
  381YOPC   GL2 4698   3.323  10.405  10.125  0.0468 -0.1113 -0.3335
  381YOPC   C1A 4699   3.075   9.934   9.993 -0.0966 -0.2504  0.0544
  381YOPC   D2A 4700   3.576   9.677   9.854 -0.2433  0.1601  0.1371
  381YOPC   C3A 4701   3.664   9.348   9.494  0.2651 -0.0121 -0.3082
  381YOPC   C4A 4702   3.710   9.456   9.056  0.0505 -0.1770 -0.0602
  381YOPC   C1B 4703   3.471  10.157   9.708  0.1901 -0.3091 -0.2638
  381YOPC   C2B 4704   3.473  10.267   9.254 -0.2381 -0.1406  0.1455
  381YOPC   D3B 4705   3.857  10.271   9.088 -0.1108 -0.0594 -0.1250
  381YOPC   C4B 4706   4.077   9.998   8.784 -0.3001  0.1413  0.0048
  382YOPC   NC3 4707  11.964   6.528  10.478 -0.1240  0.2813 -0.0357
  382YOPC   PO4 4708  12.125   6.889  10.300  0.0332 -0.0151 -0.1693
  382YOPC   GL1 4709  11.905   6.697   9.953  0.0188 -0.0326  0.0047
  382YOPC   GL2 4710  11.478   6.806   9.850 -0.1509  0.0073  0.2307
  382YOPC   C1A 4711  12.030   6.567   9.547 -0.2384 -0.0797 -0.1384
  382YOPC   D2A 4712  12.296   6.645   9.184  0.0427 -0.2317 -0.3875
  382YOPC   C3A 4713  12.340   6.395   8.846  0.0732 -0.2517 -0.3178
  382YOPC   C4A 4714  12.705   6.369   8.622 -0.3483 -0.2732 -0.0310
  382YOPC   C1B 4715  11.542   6.669   9.434 -0.3481  0.0774 -0.0187
  382YOPC   C2B 4716  11.514   6.734   8.979 -0.3922  0.0303  0.1775
  382YOPC   D3B 4717  11.346   6.500   8.718 -0.2314  0.1717  0.0976
  382YOPC   C4B 4718  11.094   6.793   8.463 -0.0034  0.1220 -0.0392
  383YOPC   NC3 4719  13.795  10.581  10.054  0.2259  0.1945  0.3390
  383YOPC   PO4 4720  13.876  10.975  10.182 -0.2143 -0.2213 -0.1929
  383YOPC   GL1 4721  13.663  11.039   9.806 -0.2049 -0.0060 -0.2655
  383YOPC   GL2 4722  13.515  11.313   9.785  0.1187  0.1253  0.2077
  383YOPC   C1A 4723  13.770  11.097   9.342 -0.2505  0.0943 -0.0353
  383YOPC   D2A 4724  13.894  10.766   8.996 -0.0773  0.1056 -0.1153
  383YOPC   C3A 4725  13.692  10.880   8.650  0.0991 -0.2201  0.0846
  383YOPC   C4A 4726  13.613  11.159   8.452 -0.1068  0.0472  0.1378
  383YOPC   C1B 4727  13.405  11.386   9.288  0.0084  0.1406 -0.0141
  383YOPC   C2B 4728  13.387  11.394   8.816 -0.2622 -0.3661 -0.0565
  383YOPC   D3B 4729  13.723  11.617   8.531 -0.0526  0.1027 -0.2482
  383YOPC   C4B 4730  13.673  11.896   8.134 -0.2254 -0.0583  0.0967
  384YOPC   NC3 4731   5.926   3.400  10.201  0.2202 -0.0386 -0.1726
  384YOPC   PO4 4732   5.696   3.014  10.229 -0.0088  0.2764  0.0428
  384YOPC   GL1 4733   5.746   2.710   9.967 -0.1920 -0.2058 -0.3024
  384YOPC   GL2 4734   6.055   2.644   9.794  0.1490  0.0916 -0.1147
  384YOPC   C1A 4735   5.453   2.593   9.675 -0.0370  0.2401 -0.1687
  384YOPC   D2A 4736   5.425   2.325   9.411 -0.1900 -0.0115  0.0624
  384YOPC   C3A 4737   5.362   2.267   8.908 -0.2030  0.3028 -0.2296
  384YOPC   C4A 4738   5.182   2.117   8.549  0.3590 -0.1383  0.0836
  384YOPC   C1B 4739   5.896   2.571   9.378  0.3664 -0.2427 -0.1052
  384YOPC   C2B 4740   5.635   2.730   9.188  0.1953 -0.0249  0.0708
  384YOPC   D3B 4741   5.532   2.729   8.712  0.0464 -0.1174  0.0282
  384YOPC   C4B 4742   5.441   2.781   8.324  0.4217  0.0990  0.1004
  385YOPC   NC3 4743   3.753  10.094  10.825  0.0176  0.0799  0.1722
  385YOPC   PO4 4744   3.982   9.746  10.897  0.0820 -0.1051  0.0073
  385YOPC   GL1 4745   3.890   9.894  10.402  0.0343  0.3266 -0.0124
  385YOPC   GL2 4746   3.720  10.207  10.346 -0.1327 -0.1616 -0.1157
  385YOPC   C1A 4747   4.001   9.886   9.979 -0.1795 -0.4426 -0.1563
  385YOPC   D2A 4748   4.166  10.134   9.645 -0.2276  0.1083  0.4318
  385YOPC   C3A 4749   4.144  10.532   9.407 -0.0536 -0.0957 -0.1524
  385YOPC   C4A 4750   4.236  10.638   9.001  0.0971 -0.2040  0.0015
  385YOPC   C1B 4751   3.817  10.351   9.965 -0.0719 -0.3369  0.2197
  385YOPC   C2B 4752   3.696  10.610   9.687 -0.4648 -0.0517 -0.0146
  385YOPC   D3B 4753   3.236  10.611   9.526 -0.2757  0.0267  0.0371
  385YOPC   C4B 4754   3.148  10.634   9.164 -0.3017  0.0730 -0.0150
  386YOPC   NC3 4755   4.069   1.438  10.976  0.0885  0.2662  0.2056
  386YOPC   PO4 4756   4.213   1.324  10.525 -0.1804  0.0453 -0.1759
  386YOPC   GL1 4757   4.248   1.458  10.191 -0.1575 -0.0853 -0.4913
  386YOPC   GL2 4758   4.492   1.411  10.034  0.1424  0.2457 -0.0064
  386YOPC   C1A 4759   3.940   1.480   9.852  0.1296 -0.3785  0.0450
  386YOPC   D2A 4760   3.942   1.147   9.419 -0.0739 -0.0890 -0.0115
  386YOPC   C3A 4761   3.811   0.688   9.551  0.0320 -0.1533  0.0671
  386YOPC   C4A 4762   3.680   0.324   9.350 -0.3147 -0.1956  0.1736
  386YOPC   C1B 4763   4.428   1.224   9.655 -0.2917  0.2993  0.3160
  386YOPC   C2B 4764   4.438   1.179   9.281 -0.1279 -0.0996 -0.2541
  386YOPC   D3B 4765   4.191   1.066   8.971 -0.1882 -0.0657 -0.1062
  386YOPC   C4B 4766   3.829   1.139   8.788 -0.0613  0.0705  0.4103
  387YOPC   NC3 4767  17.434   7.385  10.477 -0.1885  0.2011  0.0544
  387YOPC   PO4 4768  17.187   7.853  10.516  0.0012  0.2423  0.1700
  387YOPC   GL1 4769  16.961   8.047  10.239 -0.0916  0.0845 -0.3028
  387YOPC   GL2 4770  17.035   7.770  10.062 -0.2119 -0.0199  0.2498
  387YOPC   C1A 4771  16.947   8.225   9.869  0.1172  0.1307  0.0154
  387YOPC   D2A 4772  16.922   8.127   9.340 -0.0631 -0.0830 -0.0286
  387YOPC   C3A 4773  16.784   7.978   8.909  0.1311 -0.0965  0.0230
  387YOPC   C4A 4774  16.895   7.788   8.587 -0.1413  0.1556 -0.2375
  387YOPC   C1B 4775  17.170   7.785   9.619 -0.0600  0.1302  0.0977
  387YOPC   C2B 4776  17.263   7.853   9.191 -0.1673 -0.0984  0.0724
  387YOPC   D3B 4777  17.625   8.076   9.112  0.0560  0.1519  0.0378
  387YOPC   C4B 4778  17.946   7.931   8.762  0.0135 -0.0414 -0.0280
  388YOPC   NC3 4779  12.880   2.167   9.735 -0.1297  0.0821 -0.0992
  388YOPC   PO4 4780  12.549   2.352   9.898  0.0150  0.1059  0.0510
  388YOPC   GL1 4781  12.298   2.321   9.514  0.1312  0.2474 -0.1986
  388YOPC   GL2 4782  12.280   2.008   9.600 -0.1511  0.0316 -0.2523
  388YOPC   C1A 4783  12.351   2.128   9.057  0.2293 -0.0993  0.3648
  388YOPC   D2A 4784  12.374   2.250   8.672 -0.0513  0.0890  0.0314
  388YOPC   C3A 4785  12.614   2.481   8.576  0.1207  0.1039  0.3254
  388YOPC   C4A 4786  12.944   2.613   8.691 -0.0964 -0.4133  0.0125
  388YOPC   C1B 4787  12.571   1.726   9.260  0.0479 -0.2705 -0.0305
  388YOPC   C2B 4788  12.541   1.714   8.892  0.2607 -0.2930 -0.2359
  388YOPC   D3B 4789  12.194   1.798   8.645 -0.0870  0.1562  0.3002
  388YOPC   C4B 4790  12.010   1.722   8.221  0.1991  0.0834  0.1877
  389YOPC   NC3 4791   5.604   7.399  10.601  0.1132 -0.1163  0.3547
  389YOPC   PO4 4792   5.741   7.790  10.422 -0.3932 -0.0080 -0.0168
  389YOPC   GL1 4793   5.861   7.570  10.063  0.0838 -0.1428 -0.1701
  389YOPC   GL2 4794   5.626   7.446   9.951 -0.2755 -0.2689 -0.0626
  389YOPC   C1A 4795   6.168   7.192   9.917  0.0543 -0.1657 -0.1273
  389YOPC   D2A 4796   6.583   6.987   9.750 -0.0440 -0.1592 -0.3250
  389YOPC   C3A 4797   6.446   6.568   9.656  0.0349 -0.1647  0.3483
  389YOPC   C4A 4798   6.324   6.110   9.692 -0.1780 -0.0838 -0.4219
  389YOPC   C1B 4799   5.838   7.434   9.563 -0.1778  0.0316 -0.1067
  389YOPC   C2B 4800   5.944   7.356   9.133 -0.0604 -0.1211 -0.1306
  389YOPC   D3B 4801   5.728   7.392   8.738  0.0704  0.1935  0.1187
  389YOPC   C4B 4802   5.617   7.601   8.429 -0.2897 -0.0680 -0.0861
  390YOPC   NC3 4803  11.621   3.012   9.990 -0.0542  0.3165  0.0815
  390YOPC   PO4 4804  11.905   2.664  10.069  0.1569 -0.2184  0.0838
  390YOPC   GL1 4805  11.866   2.597   9.656  0.0856  0.0954  0.0597
  390YOPC   GL2 4806  11.768   2.181   9.626  0.0249  0.0538 -0.0678
  390YOPC   C1A 4807  11.954   2.555   9.241 -0.0414  0.1847 -0.1334
  390YOPC   D2A 4808  12.371   2.628   8.987 -0.0189  0.2125 -0.1779
  390YOPC   C3A 4809  12.794   2.740   9.137 -0.0446 -0.0125 -0.0439
  390YOPC   C4A 4810  13.243   2.559   9.078  0.0956 -0.1714  0.0601
  390YOPC   C1B 4811  11.522   2.141   9.289 -0.1661 -0.2122 -0.0086
  390YOPC   C2B 4812  11.421   1.989   8.950 -0.0017 -0.1467 -0.1082
  390YOPC   D3B 4813  11.073   2.211   8.755  0.0977  0.1934  0.0776
  390YOPC   C4B 4814  10.802   2.311   8.375  0.0394  0.0647 -0.1597
  391YOPC   NC3 4815  12.891  17.024  10.498 -0.2382  0.0584 -0.0172
  391YOPC   PO4 4816  12.769  16.629  10.292  0.0191 -0.1300 -0.0578
  391YOPC   GL1 4817  12.887  16.285  10.194 -0.0746  0.1967  0.3865
  391YOPC   GL2 4818  12.974  16.357   9.838 -0.0111  0.1360 -0.0654
  391YOPC   C1A 4819  13.106  15.932  10.007  0.1874 -0.0740  0.0794
  391YOPC   D2A 4820  13.346  15.663   9.824 -0.3540  0.0614 -0.2460
  391YOPC   C3A 4821  13.097  15.395   9.684 -0.1112  0.0172  0.1911
  391YOPC   C4A 4822  12.939  15.081   9.462 -0.2618 -0.4063 -0.0880
  391YOPC   C1B 4823  12.916  16.396   9.369  0.1085 -0.0242  0.2998
  391YOPC   C2B 4824  12.870  16.053   9.026  0.2976 -0.0160 -0.1355
  391YOPC   D3B 4825  13.164  15.931   8.748 -0.2728 -0.0095  0.1164
  391YOPC   C4B 4826  13.416  15.734   8.462  0.0854  0.0658 -0.1265
  392YOPC   NC3 4827  17.458   2.703  10.607  0.0598  0.0616 -0.2587
  392YOPC   PO4 4828  17.714   2.639  10.109 -0.4960 -0.0468 -0.0448
  392YOPC   GL1 4829  17.617   2.716   9.726  0.1322 -0.2868  0.1596
  392YOPC   GL2 4830  17.595   3.051   9.589 -0.1500 -0.2957 -0.0809
  392YOPC   C1A 4831  17.387   2.573   9.359 -0.0463 -0.1927 -0.0161
  392YOPC   D2A 4832  17.344   2.632   8.992  0.1543  0.1894 -0.0412
  392YOPC   C3A 4833  17.286   2.296   8.671  0.3292  0.1183 -0.1819
  392YOPC   C4A 4834  17.408   2.090   8.326 -0.1475  0.0567 -0.2449
  392YOPC   C1B 4835  17.636   3.026   9.213 -0.4394  0.2372  0.2373
  392YOPC   C2B 4836  17.673   3.080   8.753 -0.1471 -0.0493 -0.0184
  392YOPC   D3B 4837  17.469   3.375   8.586 -0.0740  0.0732  0.0971
  392YOPC   C4B 4838  17.358   3.687   8.530  0.0045  0.0665 -0.2101
  393YOPC   NC3 4839  14.583  13.907  10.635 -0.0766  0.0420 -0.2882
  393YOPC   PO4 4840  14.350  13.979  10.334 -0.0159  0.1629 -0.1951
  393YOPC   GL1 4841  14.556  13.801  10.051  0.0236 -0.0313 -0.0775
  393YOPC   GL2 4842  14.316  13.616   9.996 -0.0786  0.0682  0.0788
  393YOPC   C1A 4843  14.660  13.689   9.621 -0.3754 -0.1219  0.1283
  393YOPC   D2A 4844  14.477  13.746   9.308  0.3410 -0.2420  0.3913
  393YOPC   C3A 4845  14.315  13.470   9.029 -0.0950 -0.1050 -0.2521
  393YOPC   C4A 4846  14.482  13.358   8.542 -0.0313 -0.0741 -0.1588
  393YOPC   C1B 4847  14.103  13.463   9.545  0.0232 -0.0584  0.0375
  393YOPC   C2B 4848  13.794  13.433   9.186 -0.5293  0.1620  0.1087
  393YOPC   D3B 4849  13.957  13.286   8.769 -0.2069 -0.0226  0.0807
  393YOPC   C4B 4850  13.983  13.007   8.523 -0.0929  0.0596  0.1411
  394YOPC   NC3 4851   2.924   4.081  10.445  0.0101  0.1735 -0.2725
  394YOPC   PO4 4852   2.423   3.947  10.314 -0.1303 -0.2445 -0.3401
  394YOPC   GL1 4853   2.682   3.986   9.978  0.0762 -0.1443  0.0231
  394YOPC   GL2 4854   2.872   4.200   9.967 -0.2266  0.2764  0.0013
  394YOPC   C1A 4855   2.643   4.013   9.547  0.0628 -0.1015  0.0922
  394YOPC   D2A 4856   2.468   3.888   9.146 -0.1674  0.0609 -0.0326
  394YOPC   C3A 4857   2.718   3.771   8.788 -0.5409  0.0421 -0.1542
  394YOPC   C4A 4858   2.950   3.409   8.637  0.0833 -0.0840 -0.2665
  394YOPC   C1B 4859   2.472   4.459   9.818 -0.2064 -0.0221 -0.2058
  394YOPC   C2B 4860   2.126   4.492   9.470  0.1256 -0.4505  0.1076
  394YOPC   D3B 4861   2.121   4.876   9.227  0.0653  0.3406  0.2352
  394YOPC   C4B 4862   2.031   5.108   8.838 -0.0902  0.1350 -0.0547
  395YOPC   NC3 4863  11.305  10.095  10.039  0.0735  0.0829  0.0108
  395YOPC   PO4 4864  11.095   9.673  10.119 -0.0584 -0.2160 -0.0530
  395YOPC   GL1 4865  10.917   9.806   9.695  0.2195 -0.0833 -0.0353
  395YOPC   GL2 4866  11.023   9.756   9.421 -0.1121  0.2003 -0.0884
  395YOPC   C1A 4867  10.576   9.828   9.391 -0.1139  0.0716 -0.2041
  395YOPC   D2A 4868  10.417   9.732   9.038 -0.0363 -0.0848  0.2943
  395YOPC   C3A 4869  10.645   9.565   8.664  0.1978 -0.1610  0.0059
  395YOPC   C4A 4870  10.879   9.458   8.388 -0.1598 -0.1789 -0.1234
  395YOPC   C1B 4871  10.957   9.771   8.972 -0.3895 -0.2283 -0.0846
  395YOPC   C2B 4872  10.933   9.987   8.573 -0.2138 -0.0131  0.0475
  395YOPC   D3B 4873  10.982  10.370   8.415 -0.2504  0.0137 -0.0399
  395YOPC   C4B 4874  11.099  10.642   8.023  0.0924 -0.0181 -0.2097
  396YOPC   NC3 4875  16.346   3.911  10.201 -0.1780 -0.3482  0.1736
  396YOPC   PO4 4876  16.338   4.230   9.970 -0.2335 -0.0113  0.1790
  396YOPC   GL1 4877  16.409   4.449   9.537 -0.0054 -0.1473 -0.0457
  396YOPC   GL2 4878  16.108   4.153   9.508 -0.1570 -0.1520  0.2198
  396YOPC   C1A 4879  16.413   4.431   9.062 -0.3265  0.1364 -0.3376
  396YOPC   D2A 4880  16.328   4.404   8.677  0.0600  0.1180  0.2171
  396YOPC   C3A 4881  16.377   4.142   8.240 -0.1319 -0.1255  0.0500
  396YOPC   C4A 4882  16.510   3.994   7.889 -0.2919  0.0382  0.0720
  396YOPC   C1B 4883  15.913   4.259   9.117  0.1363 -0.1480  0.1456
  396YOPC   C2B 4884  15.492   4.163   9.067 -0.0808 -0.2638  0.2462
  396YOPC   D3B 4885  15.373   3.789   8.924  0.0186  0.0881  0.1466
  396YOPC   C4B 4886  15.041   3.614   8.662  0.0379  0.0692 -0.0741
  397YOPC   NC3 4887  12.059   4.807   9.746  0.0667  0.1536  0.0801
  397YOPC   PO4 4888  11.788   4.432   9.606  0.1402  0.1970 -0.0650
  397YOPC   GL1 4889  12.150   4.369   9.367 -0.0299 -0.0564  0.0819
  397YOPC   GL2 4890  12.309   4.638   9.230 -0.2311 -0.2179 -0.2735
  397YOPC   C1A 4891  12.378   4.131   9.034  0.2998 -0.3967 -0.0115
  397YOPC   D2A 4892  12.231   3.962   8.588 -0.2154 -0.3050 -0.3687
  397YOPC   C3A 4893  12.052   4.302   8.505 -0.1007 -0.2111 -0.0299
  397YOPC   C4A 4894  12.077   4.694   8.427 -0.1567  0.0513 -0.3632
  397YOPC   C1B 4895  12.357   4.576   8.816  0.0271 -0.0575 -0.0446
  397YOPC   C2B 4896  12.564   4.431   8.439  0.1056 -0.0981  0.0494
  397YOPC   D3B 4897  12.404   4.271   8.148  0.0199  0.3783  0.1752
  397YOPC   C4B 4898  12.013   3.961   8.073 -0.0751  0.1748  0.1062
  398YOPC   NC3 4899  15.029  13.483  10.471  0.1262  0.5029  0.1458
  398YOPC   PO4 4900  14.975  13.097  10.605 -0.0264  0.2756  0.1495
  398YOPC   GL1 4901  15.069  13.092  10.115 -0.0194 -0.2639  0.0309
  398YOPC   GL2 4902  14.915  13.314   9.930 -0.0019 -0.0721  0.0135
  398YOPC   C1A 4903  15.115  12.911   9.710 -0.0063  0.2628  0.3986
  398YOPC   D2A 4904  15.365  12.787   9.427 -0.2216  0.0834  0.3061
  398YOPC   C3A 4905  15.642  12.774   9.111  0.1487 -0.0271  0.0439
  398YOPC   C4A 4906  15.764  12.603   8.601 -0.0362  0.3080 -0.4687
  398YOPC   C1B 4907  15.117  13.403   9.582  0.1527 -0.2155 -0.3005
  398YOPC   C2B 4908  15.284  13.271   9.284  0.1642  0.2399  0.0798
  398YOPC   D3B 4909  15.414  13.185   8.920  0.3257  0.1434  0.2224
  398YOPC   C4B 4910  15.359  12.887   8.576  0.2942 -0.0826  0.0464
  399YOPC   NC3 4911  15.116   3.137  10.189  0.2040 -0.0446 -0.4577
  399YOPC   PO4 4912  14.694   3.281   9.943 -0.1338 -0.1769 -0.2996
  399YOPC   GL1 4913  14.540   3.330   9.599 -0.2451 -0.0234 -0.0978
  399YOPC   GL2 4914  14.697   3.585   9.356 -0.0225  0.0754  0.0694
  399YOPC   C1A 4915  14.398   3.057   9.204 -0.0246 -0.1227  0.0093
  399YOPC   D2A 4916  14.174   2.721   9.178  0.4216  0.2207 -0.0270
  399YOPC   C3A 4917  14.216   2.382   8.918 -0.3133  0.1579 -0.0867
  399YOPC   C4A 4918  14.128   2.042   8.642 -0.1929  0.2126 -0.0085
  399YOPC   C1B 4919  14.612   3.500   8.919  0.1081  0.1704 -0.4093
  399YOPC   C2B 4920  14.568   3.395   8.542  0.1825  0.1210  0.0874
  399YOPC   D3B 4921  14.882   3.323   8.252 -0.2086  0.0508 -0.2768
  399YOPC   C4B 4922  15.123   3.094   7.893 -0.2798 -0.0415 -0.1860
  400YOPC   NC3 4923  13.189  14.592  10.142 -0.3921 -0.1750  0.1335
  400YOPC   PO4 4924  12.834  14.470  10.204  0.0246  0.0282 -0.1785
  400YOPC   GL1 4925  12.785  14.504   9.812  0.0977 -0.2855 -0.1709
  400YOPC   GL2 4926  13.058  14.673   9.708 -0.1515 -0.1459 -0.0277
  400YOPC   C1A 4927  12.656  14.665   9.395 -0.0681 -0.0255 -0.0128
  400YOPC   D2A 4928  12.950  14.781   9.063  0.0118  0.2534 -0.0072
  400YOPC   C3A 4929  13.004  14.600   8.738 -0.0573  0.0502  0.0921
  400YOPC   C4A 4930  12.717  14.437   8.340  0.1922  0.0149 -0.3131
  400YOPC   C1B 4931  13.069  14.401   9.379 -0.0456 -0.0049 -0.0021
  400YOPC   C2B 4932  13.199  14.181   9.160  0.1769 -0.0196  0.0099
  400YOPC   D3B 4933  13.279  14.206   8.690 -0.0866 -0.0470 -0.1334
  400YOPC   C4B 4934  13.288  14.190   8.238  0.1373  0.0521 -0.1478
  401YOPC   NC3 4935   1.578   0.566  11.145  0.0350  0.1268 -0.0368
  401YOPC   PO4 4936   1.440   0.227  10.849 -0.0438  0.0370  0.1861
  401YOPC   GL1 4937   1.225   0.103  10.439  0.0543  0.2107 -0.1817
  401YOPC   GL2 4938   0.948   0.070  10.338 -0.0022  0.0448  0.1380
  401YOPC   C1A 4939   1.270  -0.013   9.969 -0.0296  0.0031 -0.1549
  401YOPC   D2A 4940   1.093  -0.140   9.590 -0.0705  0.3385  0.0136
  401YOPC   C3A 4941   0.905  -0.439   9.314  0.1403  0.1859 -0.0771
  401YOPC   C4A 4942   0.935  -0.760   8.903  0.0078 -0.0684  0.2520
  401YOPC   C1B 4943   0.764   0.204   9.988 -0.0420 -0.1221 -0.1014
  401YOPC   C2B 4944   0.888   0.306   9.566 -0.2517 -0.1093 -0.0401
  401YOPC   D3B 4945   0.910   0.204   9.237  0.1979 -0.0395  0.2171
  401YOPC   C4B 4946   0.774  -0.080   8.925  0.0279 -0.3691 -0.0960
  402YOPC   NC3 4947  13.845   2.682   9.785 -0.1406 -0.3021  0.0604
  402YOPC   PO4 4948  13.510   3.005   9.849 -0.2557 -0.4135  0.0256
  402YOPC   GL1 4949  13.466   3.016   9.491 -0.1049  0.0079  0.2323
  402YOPC   GL2 4950  13.179   2.886   9.406  0.0707  0.2193 -0.0321
  402YOPC   C1A 4951  13.615   2.986   9.084 -0.2494 -0.3525  0.1646
  402YOPC   D2A 4952  13.772   2.941   8.619 -0.0661  0.0808  0.0200
  402YOPC   C3A 4953  13.660   3.076   8.298 -0.0350 -0.2822  0.0676
  402YOPC   C4A 4954  13.310   3.133   8.013  0.4006 -0.0979  0.0128
  402YOPC   C1B 4955  13.162   3.007   8.853  0.0545  0.0040 -0.1549
  402YOPC   C2B 4956  13.125   3.140   8.504  0.1337 -0.0935  0.1012
  402YOPC   D3B 4957  13.087   3.624   8.359  0.0584  0.2144 -0.3633
  402YOPC   C4B 4958  13.052   3.823   7.956 -0.0914  0.1771 -0.0769
  403YOPC   NC3 4959   3.767  11.626  10.678  0.1473 -0.0993 -0.0052
  403YOPC   PO4 4960   4.264  11.641  10.461 -0.0814  0.0946  0.2609
  403YOPC   GL1 4961   4.217  11.486  10.109 -0.0246  0.2137 -0.1119
  403YOPC   GL2 4962   4.650  11.447   9.991  0.2384  0.3722 -0.0708
  403YOPC   C1A 4963   4.321  11.415   9.621 -0.1696  0.0287 -0.0599
  403YOPC   D2A 4964   4.472  11.596   9.258  0.0755  0.0829  0.0928
  403YOPC   C3A 4965   4.680  11.565   8.821 -0.1125  0.0394 -0.0664
  403YOPC   C4A 4966   4.848  11.547   8.361 -0.2750  0.0680  0.2222
  403YOPC   C1B 4967   4.885  11.314   9.729 -0.2155 -0.4070 -0.1799
  403YOPC   C2B 4968   4.852  11.287   9.307 -0.1240  0.1596  0.0477
  403YOPC   D3B 4969   5.139  11.408   9.137 -0.1536  0.1330  0.1176
  403YOPC   C4B 4970   5.229  11.690   8.856 -0.1742 -0.3278  0.0454
  404YOPC   NC3 4971   3.045  18.104  11.076  0.1598  0.1084 -0.3221
  404YOPC   PO4 4972   3.221  18.108  10.722 -0.1287 -0.2406  0.2245
  404YOPC   GL1 4973   3.174  18.270  10.332 -0.1973  0.0202 -0.2018
  404YOPC   GL2 4974   2.817  18.095  10.210 -0.3144 -0.2036 -0.0856
  404YOPC   C1A 4975   3.148  18.280   9.840 -0.1462 -0.0963 -0.0527
  404YOPC   D2A 4976   2.907  18.329   9.521  0.1262  0.0157  0.0605
  404YOPC   C3A 4977   2.926  18.168   9.114  0.0810 -0.0938 -0.0892
  404YOPC   C4A 4978   2.999  18.092   8.670 -0.0157  0.0428  0.2052
  404YOPC   C1B 4979   2.560  18.044   9.819 -0.0022 -0.2178 -0.0198
  404YOPC   C2B 4980   2.402  17.861   9.593 -0.0161 -0.2181 -0.1278
  404YOPC   D3B 4981   2.348  17.933   9.130 -0.5081 -0.0493 -0.0283
  404YOPC   C4B 4982   2.523  18.152   8.760  0.2557 -0.3373  0.1418
  405YOPC   NC3 4983   0.155   6.323  10.845 -0.4479  0.0738 -0.0939
  405YOPC   PO4 4984  -0.117   6.469  10.575 -0.1149  0.2432  0.1013
  405YOPC   GL1 4985  -0.165   6.137  10.186  0.1061 -0.0938  0.0609
  405YOPC   GL2 4986  -0.245   6.366   9.921  0.2227 -0.0601 -0.4240
  405YOPC   C1A 4987  -0.242   5.847   9.807 -0.1332 -0.1693 -0.0566
  405YOPC   D2A 4988  -0.149   5.707   9.447  0.1726  0.3337 -0.1837
  405YOPC   C3A 4989   0.094   5.849   9.171 -0.2319  0.0987  0.0516
  405YOPC   C4A 4990  -0.024   6.002   8.725  0.1432  0.1000 -0.1854
  405YOPC   C1B 4991  -0.197   6.765   9.692 -0.0564  0.0881 -0.2753
  405YOPC   C2B 4992  -0.342   6.980   9.297  0.0176 -0.1390  0.0092
  405YOPC   D3B 4993  -0.415   6.921   8.912 -0.1335  0.2483  0.0889
  405YOPC   C4B 4994  -0.689   7.060   8.630 -0.1707 -0.0257 -0.1282
  406YOPC   NC3 4995  12.350   5.616  10.412 -0.0195 -0.1968  0.5070
  406YOPC   PO4 4996  12.722   5.765  10.219 -0.0945 -0.3191  0.1031
  406YOPC   GL1 4997  12.428   5.934   9.885  0.0149 -0.3482 -0.2048
  406YOPC   GL2 4998  12.607   6.181   9.646  0.0533 -0.0915  0.1295
  406YOPC   C1A 4999  12.092   5.961   9.608  0.2307 -0.0965 -0.4324
  406YOPC   D2A 5000  11.707   5.821   9.279 -0.1732  0.1205  0.0122
  406YOPC   C3A 5001  11.600   5.447   9.115  0.0757 -0.0268 -0.0052
  406YOPC   C4A 5002  11.687   5.279   8.722  0.0845  0.1890  0.0199
  406YOPC   C1B 5003  12.396   6.193   9.321  0.1602  0.0602  0.1702
  406YOPC   C2B 5004  12.149   6.008   9.023  0.4645 -0.0809 -0.1086
  406YOPC   D3B 5005  12.388   5.920   8.596 -0.0344  0.0836  0.0244
  406YOPC   C4B 5006  12.393   5.988   8.149 -0.3778  0.1062  0.4035
  407YOPC   NC3 5007  11.112  17.755   9.839  0.0119  0.1198  0.4886
  407YOPC   PO4 5008  11.231  17.280   9.770  0.1369  0.2170 -0.4221
  407YOPC   GL1 5009  11.226  17.457   9.387 -0.1437 -0.0073  0.0038
  407YOPC   GL2 5010  11.637  17.492   9.385 -0.2012  0.1782 -0.0845
  407YOPC   C1A 5011  11.148  17.448   8.866 -0.0377 -0.0292 -0.1410
  407YOPC   D2A 5012  11.190  17.427   8.579 -0.0256  0.0968  0.1280
  407YOPC   C3A 5013  10.892  17.212   8.392  0.0527 -0.1139  0.0821
  407YOPC   C4A 5014  10.797  16.799   8.179 -0.0302 -0.0646  0.0414
  407YOPC   C1B 5015  11.676  17.550   8.952 -0.1842  0.2673  0.0272
  407YOPC   C2B 5016  11.691  17.469   8.449 -0.0909 -0.2325  0.0733
  407YOPC   D3B 5017  11.714  17.386   8.002  0.3476 -0.0255 -0.1491
  407YOPC   C4B 5018  11.872  17.069   7.743  0.2786  0.0802 -0.3298
  408YOPC   NC3 5019   7.582   2.774  10.094  0.0995  0.0919 -0.0458
  408YOPC   PO4 5020   7.718   3.233   9.868 -0.0769 -0.0769 -0.0674
  408YOPC   GL1 5021   7.559   2.959   9.595 -0.1294  0.0350 -0.1071
  408YOPC   GL2 5022   7.769   2.749   9.656 -0.0957 -0.1503 -0.2716
  408YOPC   C1A 5023   7.587   3.030   9.118  0.2709  0.0446  0.0557
  408YOPC   D2A 5024   7.468   2.794   8.781  0.1276  0.1324  0.1265
  408YOPC   C3A 5025   7.399   2.878   8.350 -0.1351 -0.0908 -0.1537
  408YOPC   C4A 5026   7.259   3.138   8.000 -0.4443 -0.0036  0.0200
  408YOPC   C1B 5027   7.985   2.752   9.204 -0.3235  0.2089  0.0146
  408YOPC   C2B 5028   8.050   3.164   8.977 -0.2092  0.1776 -0.1281
  408YOPC   D3B 5029   7.780   3.226   8.716  0.0060  0.0019 -0.0173
  408YOPC   C4B 5030   7.613   3.339   8.262 -0.1002  0.0849 -0.1319
  409YOPC   NC3 5031  17.772   8.175  10.529 -0.4115 -0.0728 -0.2420
  409YOPC   PO4 5032  17.716   7.772  10.607 -0.0657  0.0576  0.1297
  409YOPC   GL1 5033  17.780   7.781  10.134  0.1610 -0.0395  0.0202
  409YOPC   GL2 5034  18.119   7.748  10.214 -0.0863 -0.0830  0.2218
  409YOPC   C1A 5035  17.705   7.747   9.790 -0.1368  0.1647  0.0822
  409YOPC   D2A 5036  17.651   7.694   9.419  0.0955  0.4163 -0.0774
  409YOPC   C3A 5037  18.010   7.612   9.174  0.2344  0.2112  0.1215
  409YOPC   C4A 5038  18.272   7.203   8.998  0.0692 -0.0567 -0.0275
  409YOPC   C1B 5039  18.464   7.888  10.117  0.0341 -0.2761  0.2037
  409YOPC   C2B 5040  18.852   7.944   9.845 -0.4822  0.0600 -0.0430
  409YOPC   D3B 5041  19.240   7.678   9.764  0.1022  0.0030 -0.1720
  409YOPC   C4B 5042  19.501   7.246   9.790 -0.0636  0.0277 -0.2021
  410YOPC   NC3 5043   2.834   5.030  10.671  0.0068  0.2147 -0.1212
  410YOPC   PO4 5044   3.046   4.597  10.452  0.0362 -0.0102  0.0307
  410YOPC   GL1 5045   2.989   4.716  10.053  0.2903  0.3710 -0.2624
  410YOPC   GL2 5046   3.290   4.501  10.008  0.0074  0.0918 -0.0694
  410YOPC   C1A 5047   3.218   4.848   9.661  0.0328 -0.3210 -0.0306
  410YOPC   D2A 5048   3.232   4.810   9.216 -0.3429 -0.0852 -0.0764
  410YOPC   C3A 5049   3.007   4.523   9.059 -0.1099  0.4022 -0.3459
  410YOPC   C4A 5050   2.832   4.334   8.729  0.0396  0.0312  0.0275
  410YOPC   C1B 5051   3.000   4.388   9.532  0.1651 -0.1345 -0.1178
  410YOPC   C2B 5052   2.592   4.400   9.277 -0.2003 -0.2521 -0.2357
  410YOPC   D3B 5053   2.388   4.515   8.878 -0.2965  0.0461  0.1334
  410YOPC   C4B 5054   2.076   4.753   8.502 -0.0603 -0.2488 -0.2457
  411YOPC   NC3 5055   7.034   5.474   9.933 -0.1651  0.1647 -0.2461
  411YOPC   PO4 5056   7.486   5.634   9.762  0.1185 -0.2147  0.1430
  411YOPC   GL1 5057   7.818   5.617   9.445  0.2788  0.0622 -0.1386
  411YOPC   GL2 5058   8.122   5.381   9.423  0.2099 -0.0525 -0.3031
  411YOPC   C1A 5059   8.115   5.773   9.048 -0.2046 -0.0307 -0.2713
  411YOPC   D2A 5060   8.100   5.643   8.556  0.0997  0.0083 -0.2867
  411YOPC   C3A 5061   8.169   5.284   8.292  0.0020  0.0529 -0.3189
  411YOPC   C4A 5062   7.984   4.913   8.094 -0.0763 -0.1059 -0.2668
  411YOPC   C1B 5063   7.848   5.353   9.023  0.0828 -0.0428 -0.0891
  411YOPC   C2B 5064   7.771   5.207   8.608 -0.1964 -0.1040 -0.2662
  411YOPC   D3B 5065   7.683   5.456   8.306  0.1126 -0.4414 -0.0362
  411YOPC   C4B 5066   7.819   5.589   7.885 -0.0952  0.0063 -0.2710
  412YOPC   NC3 5067   6.915   3.471  10.084 -0.2165 -0.2567  0.1927
  412YOPC   PO4 5068   7.245   3.171  10.055  0.3231 -0.1049  0.0135
  412YOPC   GL1 5069   7.093   3.100   9.698  0.1170  0.0123 -0.1768
  412YOPC   GL2 5070   6.818   3.098   9.681  0.0823  0.0277 -0.2000
  412YOPC   C1A 5071   7.159   2.920   9.277  0.0969 -0.2844 -0.0305
  412YOPC   D2A 5072   6.936   2.906   8.868  0.1415  0.0192  0.1181
  412YOPC   C3A 5073   6.611   2.718   8.686 -0.3162  0.0187  0.0559
  412YOPC   C4A 5074   6.410   2.411   8.309 -0.0899 -0.3823  0.1171
  412YOPC   C1B 5075   6.763   3.301   9.244 -0.1508 -0.1726  0.4814
  412YOPC   C2B 5076   6.602   3.359   8.792 -0.1978  0.0983  0.2440
  412YOPC   D3B 5077   6.541   3.268   8.342 -0.0738 -0.0099 -0.0211
  412YOPC   C4B 5078   6.712   3.194   7.915 -0.2291  0.1990 -0.0527
  413YOPC   NC3 5079  13.437   7.378  10.475  0.0765 -0.0859 -0.0148
  413YOPC   PO4 5080  13.107   7.135  10.166 -0.2651 -0.1871  0.0723
  413YOPC   GL1 5081  13.068   7.143   9.683  0.3285  0.1448 -0.2576
  413YOPC   GL2 5082  13.263   6.835   9.652 -0.0913 -0.5935  0.2167
  413YOPC   C1A 5083  13.136   7.374   9.209 -0.0274  0.0612 -0.2499
  413YOPC   D2A 5084  13.324   7.231   8.895 -0.2022  0.3857 -0.0103
  413YOPC   C3A 5085  13.276   6.834   8.628 -0.0974  0.2413  0.2341
  413YOPC   C4A 5086  13.148   6.665   8.204  0.0100  0.2681  0.0546
  413YOPC   C1B 5087  13.449   7.037   9.353  0.0073  0.1448  0.0804
  413YOPC   C2B 5088  13.703   7.345   9.137  0.1581 -0.2534  0.1466
  413YOPC   D3B 5089  13.779   7.364   8.687 -0.1189  0.1218 -0.2820
  413YOPC   C4B 5090  14.004   7.283   8.340 -0.0469  0.1405 -0.1948
  414YOPC   NC3 5091  13.458   4.713  10.508 -0.0103 -0.0110  0.2126
  414YOPC   PO4 5092  13.566   4.837  10.055 -0.0298 -0.1149  0.5560
  414YOPC   GL1 5093  13.632   4.690   9.640  0.0547  0.3524  0.2268
  414YOPC   GL2 5094  13.430   4.379   9.523 -0.0588 -0.0356  0.1758
  414YOPC   C1A 5095  13.699   4.721   9.194 -0.0388 -0.2021 -0.0918
  414YOPC   D2A 5096  13.613   4.657   8.806  0.3860  0.1072  0.0535
  414YOPC   C3A 5097  13.543   4.963   8.544 -0.0594  0.1460  0.1717
  414YOPC   C4A 5098  13.488   5.148   8.109  0.0624 -0.4293 -0.5464
  414YOPC   C1B 5099  13.466   4.279   9.172 -0.3764  0.2017  0.0304
  414YOPC   C2B 5100  13.641   4.148   8.725 -0.0881 -0.0865 -0.0816
  414YOPC   D3B 5101  14.066   4.188   8.550 -0.0400  0.0415 -0.1832
  414YOPC   C4B 5102  14.178   4.180   8.125  0.1680  0.1840 -0.3382
  415YOPC   NC3 5103  12.008  10.651  10.032 -0.0880  0.0796 -0.1171
  415YOPC   PO4 5104  12.393  10.471  10.127  0.2030  0.1239 -0.0312
  415YOPC   GL1 5105  12.436  10.625   9.783 -0.0625  0.1396  0.1948
  415YOPC   GL2 5106  12.237  10.842   9.657 -0.0086 -0.2828 -0.0825
  415YOPC   C1A 5107  12.671  10.770   9.505 -0.2184  0.2106 -0.2517
  415YOPC   D2A 5108  12.866  10.895   9.148  0.0638  0.0828  0.2974
  415YOPC   C3A 5109  12.928  11.360   9.058  0.1204  0.0604 -0.0446
  415YOPC   C4A 5110  12.693  11.792   8.911 -0.0862 -0.1662  0.0461
  415YOPC   C1B 5111  12.243  10.901   9.205 -0.2585 -0.0213  0.3032
  415YOPC   C2B 5112  12.402  10.842   8.864  0.1558 -0.1286  0.0219
  415YOPC   D3B 5113  12.207  10.962   8.429 -0.4282 -0.1730  0.0611
  415YOPC   C4B 5114  12.226  11.372   8.102  0.0513  0.2969 -0.1779
  416YOPC   NC3 5115   6.403   2.074  10.286  0.1082 -0.0434 -0.2117
  416YOPC   PO4 5116   6.577   2.398  10.171  0.1645  0.0612  0.0511
  416YOPC   GL1 5117   6.656   2.597   9.769 -0.1560 -0.0246 -0.1932
  416YOPC   GL2 5118   6.884   2.277   9.747  0.0702 -0.1230 -0.2453
  416YOPC   C1A 5119   6.711   2.680   9.273  0.0945 -0.0546 -0.0775
  416YOPC   D2A 5120   6.813   2.387   8.981  0.1712 -0.2966 -0.3832
  416YOPC   C3A 5121   7.077   2.499   8.624 -0.1592 -0.1442 -0.0196
  416YOPC   C4A 5122   7.398   2.398   8.468  0.0319 -0.1672  0.0842
  416YOPC   C1B 5123   6.942   2.102   9.364 -0.2235  0.0959 -0.0569
  416YOPC   C2B 5124   7.137   1.926   8.980 -0.0921 -0.1153  0.1472
  416YOPC   D3B 5125   6.952   1.985   8.567 -0.1837  0.4928 -0.1214
  416YOPC   C4B 5126   6.732   1.867   8.290  0.1172  0.0501 -0.0573
  417YOPC   NC3 5127  11.203   1.320  10.203 -0.2230 -0.0289 -0.0149
  417YOPC   PO4 5128  10.746   1.372  10.275 -0.0186  0.1465  0.0627
  417YOPC   GL1 5129  10.820   1.496   9.862 -0.2053  0.1420 -0.1763
  417YOPC   GL2 5130  11.083   1.468   9.707  0.0946 -0.2961  0.0894
  417YOPC   C1A 5131  10.731   1.935   9.674  0.0076  0.1339  0.2164
  417YOPC   D2A 5132  10.623   2.230   9.311 -0.3947  0.0436  0.0634
  417YOPC   C3A 5133  10.494   2.250   8.854 -0.2180  0.0917 -0.1671
  417YOPC   C4A 5134  10.388   2.047   8.599  0.0313  0.0473 -0.1644
  417YOPC   C1B 5135  11.002   1.338   9.265 -0.1996 -0.1752 -0.0044
  417YOPC   C2B 5136  11.157   1.387   8.745 -0.2650 -0.0491  0.0289
  417YOPC   D3B 5137  11.241   1.831   8.516 -0.1546 -0.3879 -0.0693
  417YOPC   C4B 5138  11.433   2.250   8.440  0.1164 -0.0392 -0.1178
  418YOPC   NC3 5139   0.636   8.063  10.986  0.1560  0.0881 -0.1841
  418YOPC   PO4 5140   0.889   7.728  10.642  0.0281 -0.1472  0.2323
  418YOPC   GL1 5141   0.563   7.599  10.356 -0.1599 -0.0571 -0.0474
  418YOPC   GL2 5142   0.195   7.454  10.431 -0.0133  0.1810  0.1153
  418YOPC   C1A 5143   0.672   7.364   9.968 -0.1976 -0.0482  0.1082
  418YOPC   D2A 5144   0.663   7.388   9.483 -0.0761  0.3098  0.0354
  418YOPC   C3A 5145   1.001   7.546   9.248 -0.2791 -0.0625  0.1490
  418YOPC   C4A 5146   1.105   7.657   8.952 -0.2893 -0.0396 -0.1688
  418YOPC   C1B 5147   0.076   7.328   9.975  0.1424 -0.2496 -0.0606
  418YOPC   C2B 5148   0.133   7.165   9.540  0.2445  0.0405  0.1116
  418YOPC   D3B 5149   0.234   7.525   9.305 -0.1395 -0.1638 -0.0003
  418YOPC   C4B 5150   0.091   8.002   9.027  0.1260  0.3549  0.3277
  419YOPC   NC3 5151   0.161   1.705  10.840 -0.1127  0.0566  0.2719
  419YOPC   PO4 5152   0.067   1.351  10.472  0.4050 -0.0144 -0.1140
  419YOPC   GL1 5153   0.226   1.279  10.088 -0.1988 -0.1549 -0.0661
  419YOPC   GL2 5154   0.093   1.551   9.878  0.0452 -0.1793  0.3120
  419YOPC   C1A 5155   0.256   1.005   9.772 -0.2583  0.1888  0.2558
  419YOPC   D2A 5156   0.227   0.968   9.361 -0.0385 -0.2762 -0.2497
  419YOPC   C3A 5157  -0.165   0.738   9.394 -0.3203 -0.1306 -0.0579
  419YOPC   C4A 5158  -0.509   0.830   9.504 -0.1149 -0.0110 -0.0613
  419YOPC   C1B 5159   0.045   1.560   9.492 -0.1957  0.0726 -0.1137
  419YOPC   C2B 5160   0.044   1.419   9.137 -0.0684 -0.0802  0.1547
  419YOPC   D3B 5161  -0.151   1.092   9.008 -0.0906 -0.1718  0.0407
  419YOPC   C4B 5162  -0.577   0.865   8.960  0.1182  0.0920 -0.0136
  420YOPC   NC3 5163   0.307  14.945  10.901 -0.3348 -0.0105 -0.0264
  420YOPC   PO4 5164   0.529  15.205  10.679  0.1430  0.0661 -0.2378
  420YOPC   GL1 5165   0.455  15.366  10.255 -0.0969  0.1014  0.2297
  420YOPC   GL2 5166   0.417  15.267   9.885 -0.2175 -0.0957  0.0087
  420YOPC   C1A 5167   0.612  15.723  10.097 -0.1377  0.0287  0.1001
  420YOPC   D2A 5168   0.599  16.171   9.858 -0.0381 -0.2649  0.1436
  420YOPC   C3A 5169   0.712  16.581  10.045 -0.0680 -0.4562  0.1068
  420YOPC   C4A 5170   0.889  16.873   9.823 -0.1793  0.3152  0.0672
  420YOPC   C1B 5171   0.423  15.400   9.488  0.2253  0.0413 -0.0645
  420YOPC   C2B 5172   0.544  15.157   9.103  0.3792  0.0217  0.0259
  420YOPC   D3B 5173   0.384  15.019   8.774 -0.0822 -0.0572 -0.0417
  420YOPC   C4B 5174   0.208  14.870   8.520  0.1930 -0.1237 -0.0515
  421YOPC   NC3 5175   3.536  12.531  10.680  0.1749  0.0422  0.0031
  421YOPC   PO4 5176   3.287  12.921  10.611 -0.0018  0.0272  0.5011
  421YOPC   GL1 5177   3.242  12.961  10.177 -0.2600  0.1427  0.0201
  421YOPC   GL2 5178   2.978  13.063  10.050 -0.0628 -0.2648 -0.0474
  421YOPC   C1A 5179   3.334  12.602   9.839  0.0240  0.0576  0.0306
  421YOPC   D2A 5180   3.228  12.388   9.528 -0.1767 -0.0442 -0.1355
  421YOPC   C3A 5181   2.954  12.099   9.842  0.2229 -0.2663 -0.0442
  421YOPC   C4A 5182   2.577  12.257   9.832  0.1293  0.1217  0.2221
  421YOPC   C1B 5183   2.978  12.893   9.709 -0.0392  0.0169  0.1433
  421YOPC   C2B 5184   2.916  12.838   9.307 -0.2285 -0.1187  0.1133
  421YOPC   D3B 5185   2.896  12.432   9.053  0.1193 -0.0124 -0.1112
  421YOPC   C4B 5186   2.603  12.343   8.677 -0.1552  0.1164 -0.1704
  422YOPC   NC3 5187   8.161   9.768  10.632 -0.0659 -0.1719 -0.1894
  422YOPC   PO4 5188   7.694   9.723  10.543  0.2220  0.1863  0.2725
  422YOPC   GL1 5189   7.904   9.721  10.126  0.0683 -0.1829  0.1381
  422YOPC   GL2 5190   8.154   9.792  10.075  0.3165  0.3004  0.1093
  422YOPC   C1A 5191   7.806   9.393   9.834  0.2116  0.0868  0.1911
  422YOPC   D2A 5192   7.591   9.164   9.478 -0.1222 -0.2282 -0.0946
  422YOPC   C3A 5193   7.547   9.296   9.149  0.3175  0.0016  0.0792
  422YOPC   C4A 5194   7.701   9.612   8.851 -0.0550 -0.2049 -0.0924
  422YOPC   C1B 5195   8.267   9.596   9.607  0.1235 -0.1666 -0.0716
  422YOPC   C2B 5196   8.257   9.763   9.194 -0.0975 -0.0218 -0.0170
  422YOPC   D3B 5197   8.557   9.908   8.973 -0.2274 -0.1979  0.0611
  422YOPC   C4B 5198   8.886  10.132   8.716 -0.3104 -0.0145 -0.0618
  423YOPC   NC3 5199   6.350  15.722  10.200 -0.0557 -0.2104  0.0340
  423YOPC   PO4 5200   6.803  15.857  10.034  0.2596 -0.0733  0.0282
  423YOPC   GL1 5201   6.666  15.903   9.585  0.1368 -0.4876  0.1666
  423YOPC   GL2 5202   6.518  16.124   9.757 -0.1731 -0.0846  0.2087
  423YOPC   C1A 5203   6.625  15.720   9.210 -0.1833 -0.0789  0.0703
  423YOPC   D2A 5204   6.630  15.960   8.848  0.1874  0.0689 -0.1788
  423YOPC   C3A 5205   6.462  16.143   8.497 -0.0523  0.0521 -0.0034
  423YOPC   C4A 5206   6.125  16.137   8.161  0.0746 -0.2052 -0.0935
  423YOPC   C1B 5207   6.329  16.085   9.264  0.1551 -0.1435 -0.0148
  423YOPC   C2B 5208   6.286  16.447   8.962  0.0147  0.2643 -0.1790
  423YOPC   D3B 5209   6.008  16.448   8.634 -0.2835  0.0855  0.1578
  423YOPC   C4B 5210   5.864  16.540   8.213  0.3021  0.0172  0.5923
  424YOPC   NC3 5211   1.741  16.649  10.521  0.1519  0.0789  0.1980
  424YOPC   PO4 5212   1.541  16.174  10.623  0.0680 -0.2479 -0.1744
  424YOPC   GL1 5213   1.467  15.910  10.300 -0.0086  0.0672  0.1363
  424YOPC   GL2 5214   1.105  15.984  10.325 -0.1397 -0.0199  0.2554
  424YOPC   C1A 5215   1.639  15.789   9.886 -0.0958  0.2466 -0.0236
  424YOPC   D2A 5216   1.781  15.861   9.531 -0.0893  0.4258 -0.0975
  424YOPC   C3A 5217   1.731  15.930   9.104  0.0336 -0.0206  0.3630
  424YOPC   C4A 5218   1.883  15.897   8.699 -0.0307 -0.3388 -0.1253
  424YOPC   C1B 5219   1.104  15.948   9.941 -0.1853 -0.0952  0.1420
  424YOPC   C2B 5220   0.971  15.821   9.514  0.2635  0.0253  0.0130
  424YOPC   D3B 5221   1.220  15.834   9.166 -0.0176 -0.2242  0.4572
  424YOPC   C4B 5222   1.392  16.052   8.785 -0.1073 -0.1125 -0.0035
  425YOPC   NC3 5223  14.276   8.039  10.498  0.1692  0.1079  0.2491
  425YOPC   PO4 5224  13.856   8.228  10.303 -0.1772  0.0658 -0.1610
  425YOPC   GL1 5225  14.098   8.318   9.851  0.2959  0.1653  0.4397
  425YOPC   GL2 5226  14.314   8.337   9.990  0.2136 -0.1592 -0.2944
  425YOPC   C1A 5227  14.067   8.294   9.550 -0.0338 -0.0987 -0.2176
  425YOPC   D2A 5228  14.125   8.538   9.171  0.2577 -0.1577 -0.5455
  425YOPC   C3A 5229  14.031   8.255   8.727  0.2290  0.1785  0.2271
  425YOPC   C4A 5230  13.638   8.189   8.561  0.5656  0.1013  0.3958
  425YOPC   C1B 5231  14.367   8.710   9.675  0.2535 -0.0719  0.2016
  425YOPC   C2B 5232  14.586   8.736   9.294  0.2640  0.0159 -0.0980
  425YOPC   D3B 5233  14.694   8.985   8.863  0.1562 -0.2210  0.0117
  425YOPC   C4B 5234  14.914   9.096   8.541 -0.4351 -0.0197 -0.0655
  426YOPC   NC3 5235  13.705   7.950   9.922  0.0701  0.0930  0.3341
  426YOPC   PO4 5236  13.312   8.023   9.847  0.0746 -0.1877 -0.4093
  426YOPC   GL1 5237  13.474   8.260   9.550 -0.0742  0.1202 -0.3649
  426YOPC   GL2 5238  13.264   8.432   9.463  0.1959  0.0233 -0.1906
  426YOPC   C1A 5239  13.713   8.270   9.143 -0.4090 -0.0464 -0.3547
  426YOPC   D2A 5240  13.676   8.637   8.921 -0.4593  0.1297  0.0284
  426YOPC   C3A 5241  14.056   8.790   8.689 -0.4266  0.2500 -0.2271
  426YOPC   C4A 5242  14.493   8.634   8.529  0.1385 -0.0462 -0.0475
  426YOPC   C1B 5243  13.207   8.387   9.069 -0.5140  0.3982  0.0274
  426YOPC   C2B 5244  13.194   8.583   8.661  0.4649  0.0985 -0.1548
  426YOPC   D3B 5245  13.555   8.683   8.303  0.0054  0.1200  0.0301
  426YOPC   C4B 5246  13.713   8.711   7.927  0.0119  0.1156  0.0002
  427YOPC   NC3 5247   3.300   5.654  10.344 -0.1851 -0.2691  0.0198
  427YOPC   PO4 5248   3.716   5.832  10.395 -0.1781 -0.3233 -0.2216
  427YOPC   GL1 5249   3.898   5.931   9.945  0.1629 -0.0711 -0.1783
  427YOPC   GL2 5250   3.993   6.172   9.749 -0.0555 -0.0090  0.0961
  427YOPC   C1A 5251   4.013   5.737   9.545  0.1072 -0.2223 -0.1303
  427YOPC   D2A 5252   3.934   5.461   9.291 -0.1768  0.1549  0.1134
  427YOPC   C3A 5253   3.769   5.582   8.874 -0.1021  0.0266  0.0903
  427YOPC   C4A 5254   3.885   5.614   8.452 -0.0053  0.1691  0.0688
  427YOPC   C1B 5255   4.140   6.206   9.329  0.2590 -0.0653  0.2950
  427YOPC   C2B 5256   4.279   6.423   9.045 -0.3067  0.0995  0.0282
  427YOPC   D3B 5257   4.133   6.492   8.650 -0.2028  0.0660 -0.3150
  427YOPC   C4B 5258   4.259   6.750   8.281 -0.0308  0.1479  0.2450
  428YOPC   NC3 5259  16.650   6.823  10.081 -0.2911  0.2705  0.1701
  428YOPC   PO4 5260  16.486   6.440   9.897  0.1144  0.1921  0.1097
  428YOPC   GL1 5261  16.372   6.344   9.449 -0.1980 -0.0790  0.2900
  428YOPC   GL2 5262  16.444   6.062   9.311 -0.0517  0.0986  0.3561
  428YOPC   C1A 5263  16.384   6.506   9.057 -0.3789  0.0108  0.0596
  428YOPC   D2A 5264  16.175   6.739   8.847 -0.0782 -0.0249  0.0186
  428YOPC   C3A 5265  15.921   6.713   8.527 -0.3422 -0.0787 -0.1093
  428YOPC   C4A 5266  15.725   6.627   8.167  0.1530  0.0163  0.0262
  428YOPC   C1B 5267  16.519   5.977   8.825 -0.1233 -0.0067  0.0375
  428YOPC   C2B 5268  16.457   6.032   8.412 -0.0492  0.1525  0.1768
  428YOPC   D3B 5269  16.149   6.317   8.176 -0.1755 -0.2468 -0.1957
  428YOPC   C4B 5270  16.060   6.477   7.757 -0.1358  0.1869  0.2828
  429YOPC   NC3 5271   6.335   7.893  10.825 -0.0470  0.0387  0.0559
  429YOPC   PO4 5272   6.190   8.219  10.622 -0.1204  0.3217 -0.1108
  429YOPC   GL1 5273   6.342   8.404  10.203  0.0071  0.2066  0.2354
  429YOPC   GL2 5274   6.645   8.273  10.216 -0.3618 -0.1851 -0.0436
  429YOPC   C1A 5275   6.440   8.695   9.840  0.1106 -0.3527  0.1272
  429YOPC   D2A 5276   6.093   8.588   9.494  0.3071  0.1192 -0.0493
  429YOPC   C3A 5277   6.130   8.796   9.108 -0.2818  0.2140  0.0792
  429YOPC   C4A 5278   6.396   8.638   8.767 -0.1472 -0.2334 -0.1152
  429YOPC   C1B 5279   6.841   8.410   9.851 -0.0723 -0.0568  0.4677
  429YOPC   C2B 5280   6.714   8.595   9.378  0.0561  0.1255 -0.2102
  429YOPC   D3B 5281   7.129   8.472   9.159  0.1252  0.1650 -0.1111
  429YOPC   C4B 5282   7.280   8.206   8.836  0.0677  0.0529 -0.4065
  430YOPC   NC3 5283  12.537   0.594  10.628  0.0095  0.1171 -0.1316
  430YOPC   PO4 5284  12.266   0.509  10.267  0.1729  0.1179 -0.1336
  430YOPC   GL1 5285  12.304   0.444   9.770 -0.2109  0.3059  0.1481
  430YOPC   GL2 5286  12.196   0.117   9.559  0.0654  0.0025 -0.0319
  430YOPC   C1A 5287  12.397   0.637   9.360 -0.2589  0.0173  0.2503
  430YOPC   D2A 5288  12.427   0.936   9.083  0.2384 -0.3855  0.0003
  430YOPC   C3A 5289  12.423   0.996   8.618  0.1078  0.0988  0.1160
  430YOPC   C4A 5290  12.538   1.410   8.552 -0.0947  0.0079 -0.2634
  430YOPC   C1B 5291  12.529   0.205   9.191  0.2823 -0.3466  0.0783
  430YOPC   C2B 5292  12.773   0.081   8.881 -0.1350 -0.2479  0.0706
  430YOPC   D3B 5293  12.449  -0.037   8.637  0.0555  0.1418  0.0800
  430YOPC   C4B 5294  12.200   0.146   8.377  0.1566  0.1652  0.3100
  431YOPC   NC3 5295   0.985  17.127  10.843 -0.1555  0.0713 -0.0826
  431YOPC   PO4 5296   1.458  17.228  10.637  0.0646 -0.0278 -0.3144
  431YOPC   GL1 5297   1.557  17.043  10.336 -0.0053  0.4280  0.0813
  431YOPC   GL2 5298   1.283  16.943  10.174 -0.1965 -0.0419 -0.0712
  431YOPC   C1A 5299   1.816  17.097   9.843  0.2414 -0.1897 -0.0819
  431YOPC   D2A 5300   2.018  17.181   9.450 -0.0678  0.2154  0.2487
  431YOPC   C3A 5301   2.102  17.455   8.986  0.2536  0.1344 -0.1902
  431YOPC   C4A 5302   2.101  17.859   8.712  0.2879  0.0678  0.0442
  431YOPC   C1B 5303   1.369  16.830   9.856 -0.0295  0.4624  0.1716
  431YOPC   C2B 5304   1.344  16.826   9.371  0.0091 -0.1575  0.1411
  431YOPC   D3B 5305   1.138  17.093   9.103  0.0693  0.1218 -0.2698
  431YOPC   C4B 5306   1.190  17.169   8.638  0.1129  0.3474 -0.0391
  432YOPC   NC3 5307   4.378  10.919  10.685  0.1740 -0.1569 -0.3198
  432YOPC   PO4 5308   4.854  10.925  10.652 -0.1189 -0.0285  0.1091
  432YOPC   GL1 5309   5.308  10.908  10.400  0.0429  0.2086 -0.1741
  432YOPC   GL2 5310   5.348  11.189  10.354  0.0572  0.1348 -0.0356
  432YOPC   C1A 5311   5.639  10.740  10.086  0.1983  0.0833 -0.1802
  432YOPC   D2A 5312   5.626  10.507   9.725 -0.2408  0.1621 -0.0975
  432YOPC   C3A 5313   5.878  10.522   9.326 -0.0492 -0.2102  0.2459
  432YOPC   C4A 5314   5.926  10.750   8.888  0.0229 -0.0951 -0.1916
  432YOPC   C1B 5315   5.255  10.986   9.906 -0.0828 -0.0012  0.0533
  432YOPC   C2B 5316   5.331  11.077   9.479 -0.2452  0.0458 -0.1117
  432YOPC   D3B 5317   5.400  10.733   9.111  0.2646  0.1123  0.1399
  432YOPC   C4B 5318   5.488  10.335   8.774 -0.2070 -0.0601 -0.1958
  433YOPC   NC3 5319  15.753  12.738  10.447  0.1034  0.0757  0.1480
  433YOPC   PO4 5320  16.009  13.096  10.347 -0.3246  0.2855 -0.2640
  433YOPC   GL1 5321  16.245  13.144  10.012 -0.4138 -0.0533 -0.0136
  433YOPC   GL2 5322  16.347  13.412   9.984 -0.0166 -0.1423 -0.2069
  433YOPC   C1A 5323  16.418  13.147   9.534  0.3015 -0.0225  0.1191
  433YOPC   D2A 5324  16.357  13.165   9.015  0.1939  0.0987 -0.3615
  433YOPC   C3A 5325  16.569  13.381   8.760  0.3703  0.1033  0.0658
  433YOPC   C4A 5326  16.888  13.423   8.480 -0.2434  0.2442  0.2542
  433YOPC   C1B 5327  15.943  13.676   9.779  0.1458 -0.1465 -0.0828
  433YOPC   C2B 5328  15.490  13.672   9.547 -0.2210 -0.1091 -0.1988
  433YOPC   D3B 5329  15.489  13.678   9.080 -0.1154 -0.1255 -0.5313
  433YOPC   C4B 5330  15.570  13.747   8.614  0.1777  0.0803  0.4041
  434YOPC   NC3 5331  11.595   5.400  10.119  0.4633 -0.4586  0.0753
  434YOPC   PO4 5332  11.846   5.280   9.703  0.4544 -0.1450 -0.0136
  434YOPC   GL1 5333  12.131   5.465   9.405 -0.0799 -0.0176 -0.1532
  434YOPC   GL2 5334  12.406   5.274   9.241  0.0420  0.1948  0.0869
  434YOPC   C1A 5335  12.081   5.549   8.979 -0.2542 -0.0171  0.2722
  434YOPC   D2A 5336  11.983   5.694   8.642  0.0561  0.2443 -0.1620
  434YOPC   C3A 5337  11.871   6.030   8.391 -0.3951  0.2260  0.3063
  434YOPC   C4A 5338  12.065   6.404   8.109  0.0375 -0.0275 -0.0093
  434YOPC   C1B 5339  12.267   5.106   8.844  0.1221  0.0251  0.0255
  434YOPC   C2B 5340  12.185   5.224   8.460 -0.0753 -0.3482  0.1125
  434YOPC   D3B 5341  11.823   5.090   8.250  0.1847  0.1672  0.0099
  434YOPC   C4B 5342  11.356   4.948   8.066 -0.0746 -0.2157  0.2180
  435YOPC   NC3 5343   3.461  16.797  10.590 -0.0997  0.0356 -0.2693
  435YOPC   PO4 5344   3.128  17.109  10.784 -0.3271  0.0242 -0.2032
  435YOPC   GL1 5345   3.184  17.188  10.422 -0.0274 -0.0905  0.0393
  435YOPC   GL2 5346   3.211  16.945  10.175  0.0587 -0.1623  0.0189
  435YOPC   C1A 5347   3.326  17.430   9.977  0.0022  0.1073 -0.1140
  435YOPC   D2A 5348   3.442  17.384   9.568 -0.1398  0.0591 -0.1070
  435YOPC   C3A 5349   3.717  17.702   9.401 -0.0478 -0.1594  0.1370
  435YOPC   C4A 5350   3.834  17.706   8.959 -0.2409 -0.0094 -0.0827
  435YOPC   C1B 5351   3.469  16.927   9.770  0.3941 -0.1768 -0.2766
  435YOPC   C2B 5352   3.464  16.933   9.357  0.3672 -0.1498 -0.1584
  435YOPC   D3B 5353   3.626  17.263   9.100 -0.2569 -0.0661  0.1724
  435YOPC   C4B 5354   3.505  17.344   8.686  0.0899  0.1558 -0.1948
  436YOPC   NC3 5355   5.640   8.282  10.653  0.4961  0.0267 -0.0157
  436YOPC   PO4 5356   5.389   8.541  10.666  0.1662  0.0273 -0.1205
  436YOPC   GL1 5357   5.387   8.586  10.253  0.2083 -0.0509 -0.1497
  436YOPC   GL2 5358   5.108   8.716  10.142 -0.0578  0.1589 -0.1002
  436YOPC   C1A 5359   5.678   8.669   9.954 -0.0252  0.4509  0.2493
  436YOPC   D2A 5360   5.691   8.909   9.483  0.0771  0.1256  0.4624
  436YOPC   C3A 5361   5.920   9.265   9.339 -0.0435 -0.1066 -0.0397
  436YOPC   C4A 5362   6.073   9.248   8.987 -0.0265 -0.2155 -0.1534
  436YOPC   C1B 5363   5.220   8.962   9.694 -0.0570  0.1938 -0.1778
  436YOPC   C2B 5364   5.187   8.804   9.326  0.3518  0.1641  0.1068
  436YOPC   D3B 5365   5.219   8.571   8.985 -0.1098  0.1941  0.4504
  436YOPC   C4B 5366   5.414   8.509   8.568  0.0169 -0.1520  0.0122
  437YOPC   NC3 5367   5.027   1.533  10.312  0.2492  0.1405  0.0407
  437YOPC   PO4 5368   5.318   1.936  10.314  0.0848  0.2421 -0.3887
  437YOPC   GL1 5369   5.304   2.091   9.888 -0.0164 -0.0913  0.0062
  437YOPC   GL2 5370   5.098   2.241   9.836  0.0112  0.0273 -0.0619
  437YOPC   C1A 5371   5.326   1.834   9.606 -0.0893  0.0027  0.1625
  437YOPC   D2A 5372   5.371   1.647   9.279 -0.0642 -0.0562  0.0391
  437YOPC   C3A 5373   5.258   1.735   8.884  0.0979  0.1122  0.1990
  437YOPC   C4A 5374   5.204   1.587   8.461  0.1818  0.1124 -0.0261
  437YOPC   C1B 5375   4.942   2.181   9.440 -0.2908  0.1025  0.2388
  437YOPC   C2B 5376   4.848   2.071   8.982  0.0446 -0.1875  0.1645
  437YOPC   D3B 5377   4.644   2.328   8.833 -0.1551 -0.1206 -0.0524
  437YOPC   C4B 5378   4.635   2.262   8.404 -0.2852 -0.3754 -0.0064
  438YOPC   NC3 5379  17.539  17.473  11.123 -0.1303  0.1496  0.0978
  438YOPC   PO4 5380  17.517  17.369  10.762 -0.1365  0.2749 -0.2099
  438YOPC   GL1 5381  17.724  17.476  10.387 -0.1854 -0.3329  0.2663
  438YOPC   GL2 5382  17.998  17.264  10.217 -0.0289 -0.2582  0.3204
  438YOPC   C1A 5383  17.793  17.563   9.919 -0.0253 -0.1164  0.2412
  438YOPC   D2A 5384  17.658  17.558   9.474  0.0421 -0.1185 -0.1079
  438YOPC   C3A 5385  17.278  17.306   9.383  0.1313 -0.0160 -0.0680
  438YOPC   C4A 5386  17.276  16.801   9.155  0.2156  0.2859  0.2216
  438YOPC   C1B 5387  18.341  17.374   9.907  0.1282 -0.1020 -0.0004
  438YOPC   C2B 5388  18.134  17.439   9.481  0.0575 -0.1242  0.4036
  438YOPC   D3B 5389  17.804  17.252   9.132  0.1137  0.0999  0.0425
  438YOPC   C4B 5390  17.539  17.077   8.740  0.1787 -0.0041 -0.0083
  439YOPC   NC3 5391  13.005   4.536   9.778 -0.1553  0.1357 -0.0268
  439YOPC   PO4 5392  13.048   4.065   9.754 -0.1426 -0.3778 -0.2390
  439YOPC   GL1 5393  13.270   3.887   9.415  0.1988  0.1894  0.0800
  439YOPC   GL2 5394  13.412   3.646   9.537  0.3132  0.3681  0.0515
  439YOPC   C1A 5395  13.353   3.782   9.030  0.2108  0.0727 -0.2945
  439YOPC   D2A 5396  13.203   3.928   8.734 -0.0218 -0.1721  0.0310
  439YOPC   C3A 5397  13.374   3.975   8.347  0.0408  0.0325  0.0167
  439YOPC   C4A 5398  13.622   4.117   8.064 -0.0285  0.1856  0.1696
  439YOPC   C1B 5399  13.639   3.459   9.290 -0.1537  0.1003 -0.2253
  439YOPC   C2B 5400  13.506   3.386   8.822 -0.1363 -0.0635  0.1928
  439YOPC   D3B 5401  13.600   3.557   8.307  0.2694  0.0783 -0.0197
  439YOPC   C4B 5402  13.961   3.707   8.082  0.0183 -0.1028 -0.1961
  440YOPC   NC3 5403  14.785   4.619  10.201  0.1017  0.0714 -0.0008
  440YOPC   PO4 5404  14.952   4.216   9.926 -0.1294 -0.0170  0.1097
  440YOPC   GL1 5405  14.985   4.143   9.523 -0.0098  0.2635 -0.1530
  440YOPC   GL2 5406  15.214   3.964   9.426 -0.1055 -0.0009  0.2142
  440YOPC   C1A 5407  14.932   4.215   9.119 -0.1341  0.0538 -0.0034
  440YOPC   D2A 5408  14.996   4.105   8.711 -0.0443 -0.2353 -0.2585
  440YOPC   C3A 5409  15.385   4.037   8.495  0.3911  0.3533 -0.5453
  440YOPC   C4A 5410  15.674   3.820   8.185 -0.1277 -0.0391 -0.1469
  440YOPC   C1B 5411  15.265   3.531   9.376  0.0926 -0.1668  0.0928
  440YOPC   C2B 5412  15.425   3.179   9.069  0.1820 -0.1004  0.0745
  440YOPC   D3B 5413  15.457   3.285   8.758  0.0069  0.0811  0.1642
  440YOPC   C4B 5414  15.378   3.200   8.285  0.2418 -0.2925 -0.2041
  441YOPC   NC3 5415  15.047  10.631  10.286  0.2776  0.0009 -0.2213
  441YOPC   PO4 5416  15.348  10.852  10.563 -0.0786 -0.2173  0.1542
  441YOPC   GL1 5417  15.555  10.904  10.218 -0.1196  0.2637  0.3325
  441YOPC   GL2 5418  15.386  10.811   9.953 -0.3197 -0.0509 -0.3214
  441YOPC   C1A 5419  15.521  11.277   9.886 -0.3024  0.0262 -0.1401
  441YOPC   D2A 5420  15.700  11.398   9.524  0.2087  0.1568  0.1023
  441YOPC   C3A 5421  15.901  11.338   9.138 -0.0530  0.2025  0.0367
  441YOPC   C4A 5422  16.178  11.227   8.883 -0.1356 -0.0145 -0.0703
  441YOPC   C1B 5423  15.232  10.821   9.628  0.0271 -0.3220 -0.3188
  441YOPC   C2B 5424  15.252  11.187   9.373  0.2436  0.2462 -0.4148
  441YOPC   D3B 5425  15.413  11.142   9.080 -0.1287  0.1639  0.0100
  441YOPC   C4B 5426  15.646  11.050   8.737 -0.0059  0.2294 -0.1890
  442YOPC   NC3 5427  14.913  12.594  10.476 -0.2690  0.0438  0.2675
  442YOPC   PO4 5428  15.217  12.718  10.374  0.0180 -0.1031 -0.0715
  442YOPC   GL1 5429  15.366  12.584  10.077  0.2380  0.0082 -0.1394
  442YOPC   GL2 5430  15.171  12.404   9.805  0.0803  0.0063 -0.1908
  442YOPC   C1A 5431  15.685  12.618   9.765  0.1235  0.1085  0.0741
  442YOPC   D2A 5432  15.864  12.370   9.426 -0.2268  0.0906  0.1604
  442YOPC   C3A 5433  15.775  12.289   9.022  0.0666  0.1016 -0.0823
  442YOPC   C4A 5434  15.434  12.189   8.625  0.4635 -0.0524 -0.3953
  442YOPC   C1B 5435  14.933  12.567   9.412  0.0052 -0.0180 -0.0168
  442YOPC   C2B 5436  15.045  12.804   8.975 -0.0009 -0.2304  0.0128
  442YOPC   D3B 5437  14.963  12.516   8.567 -0.1869 -0.0513 -0.0447
  442YOPC   C4B 5438  15.058  12.302   8.241 -0.0885 -0.0166  0.3281
  443YOPC   NC3 5439  16.409   9.862  10.735  0.1576  0.0093  0.0773
  443YOPC   PO4 5440  16.154   9.950  10.371 -0.1456 -0.0900  0.1824
  443YOPC   GL1 5441  15.958  10.159  10.022 -0.0790  0.1710 -0.0523
  443YOPC   GL2 5442  15.984  10.530  10.019  0.0456  0.1418 -0.2816
  443YOPC   C1A 5443  15.610  10.285   9.729  0.0683 -0.0873 -0.2978
  443YOPC   D2A 5444  15.464  10.069   9.392 -0.1464 -0.0757 -0.1232
  443YOPC   C3A 5445  15.791   9.777   9.225 -0.1130 -0.3769  0.2507
  443YOPC   C4A 5446  16.022   9.716   8.744 -0.0763  0.3662  0.2351
  443YOPC   C1B 5447  16.008  10.398   9.581  0.2002 -0.0835  0.3004
  443YOPC   C2B 5448  15.994  10.264   9.159 -0.0587  0.0717 -0.1324
  443YOPC   D3B 5449  15.856  10.200   8.748  0.0687  0.0851  0.1278
  443YOPC   C4B 5450  15.618  10.209   8.418 -0.0268 -0.0935 -0.0808
  444YOPC   NC3 5451   4.964   3.699  10.373 -0.1441 -0.3411 -0.2349
  444YOPC   PO4 5452   4.801   3.957   9.993  0.1675 -0.0284  0.0392
  444YOPC   GL1 5453   4.985   4.125   9.726 -0.0375 -0.1439  0.0731
  444YOPC   GL2 5454   5.294   3.996   9.551  0.0919 -0.0159  0.0629
  444YOPC   C1A 5455   4.934   4.377   9.400 -0.1175 -0.0179 -0.1573
  444YOPC   D2A 5456   5.005   4.377   8.968 -0.1321 -0.1232  0.3540
  444YOPC   C3A 5457   4.907   4.457   8.572  0.1644  0.1587  0.0186
  444YOPC   C4A 5458   4.760   4.555   8.176 -0.2166  0.0523 -0.2408
  444YOPC   C1B 5459   5.229   4.015   9.153 -0.0922 -0.0231 -0.1290
  444YOPC   C2B 5460   5.246   4.052   8.673 -0.5967  0.1701  0.0028
  444YOPC   D3B 5461   5.290   3.774   8.331  0.1549 -0.2091  0.0216
  444YOPC   C4B 5462   5.521   3.734   7.851 -0.1831 -0.0929  0.3469
  445YOPC   NC3 5463  11.774  12.239  10.347 -0.3557 -0.2568 -0.0266
  445YOPC   PO4 5464  11.729  12.682  10.205 -0.0773  0.2452  0.1064
  445YOPC   GL1 5465  11.890  12.825   9.821  0.1065 -0.0474 -0.0008
  445YOPC   GL2 5466  12.032  12.548   9.744 -0.1403 -0.0793 -0.2347
  445YOPC   C1A 5467  11.954  13.023   9.451 -0.2585  0.2007  0.0968
  445YOPC   D2A 5468  12.129  12.938   9.048  0.1027 -0.1898 -0.1129
  445YOPC   C3A 5469  12.421  13.264   8.801 -0.1103 -0.0206 -0.1767
  445YOPC   C4A 5470  12.553  13.507   8.538 -0.0208 -0.4551 -0.0708
  445YOPC   C1B 5471  12.122  12.480   9.319 -0.2107  0.1500  0.0966
  445YOPC   C2B 5472  12.091  12.409   8.917 -0.3605  0.2553  0.0921
  445YOPC   D3B 5473  12.207  12.646   8.618 -0.0222 -0.2244  0.1063
  445YOPC   C4B 5474  12.071  12.991   8.382  0.0874  0.1088  0.0126
  446YOPC   NC3 5475  18.217  12.301  10.683 -0.2185 -0.0303 -0.3058
  446YOPC   PO4 5476  18.374  12.757  10.762  0.2659 -0.2237 -0.3248
  446YOPC   GL1 5477  18.225  12.740  10.372 -0.2720 -0.1556  0.2905
  446YOPC   GL2 5478  18.073  13.044  10.330  0.0675 -0.0999  0.0297
  446YOPC   C1A 5479  17.975  12.656  10.071 -0.0669  0.0204  0.0664
  446YOPC   D2A 5480  17.662  12.564   9.876  0.0448  0.1134  0.1210
  446YOPC   C3A 5481  17.772  12.559   9.434 -0.0273 -0.0141 -0.1282
  446YOPC   C4A 5482  17.731  12.509   8.947  0.2501 -0.0649 -0.0186
  446YOPC   C1B 5483  17.825  13.193   9.925  0.1294 -0.1529  0.0397
  446YOPC   C2B 5484  17.679  13.080   9.539 -0.5424  0.0355  0.2292
  446YOPC   D3B 5485  17.709  13.329   9.131 -0.2997 -0.1817 -0.1549
  446YOPC   C4B 5486  17.837  13.533   8.854  0.1810 -0.2702 -0.1358
  447YOPC   NC3 5487   5.950   9.926  11.041 -0.2844  0.2996  0.0778
  447YOPC   PO4 5488   5.742   9.621  10.853 -0.0148  0.0741  0.1352
  447YOPC   GL1 5489   5.653   9.567  10.424  0.0628 -0.0680  0.1711
  447YOPC   GL2 5490   5.362   9.574  10.323  0.0547  0.2745  0.2621
  447YOPC   C1A 5491   5.571  10.004  10.168 -0.0709  0.0885 -0.0388
  447YOPC   D2A 5492   5.330  10.096   9.821  0.1577 -0.1895 -0.3211
  447YOPC   C3A 5493   5.589  10.140   9.262 -0.1579  0.0601  0.0967
  447YOPC   C4A 5494   5.883  10.119   8.959 -0.2181  0.2546  0.1879
  447YOPC   C1B 5495   5.278   9.623   9.954  0.2318 -0.1271 -0.0448
  447YOPC   C2B 5496   5.468   9.699   9.569  0.1171  0.1668 -0.1874
  447YOPC   D3B 5497   5.095   9.862   9.466 -0.3755 -0.0066  0.1985
  447YOPC   C4B 5498   4.746   9.724   9.058  0.1082  0.1762 -0.0011
  448YOPC   NC3 5499  15.973   8.675  10.482 -0.0159  0.0381  0.0005
  448YOPC   PO4 5500  15.817   9.079  10.401  0.0548 -0.0857  0.0511
  448YOPC   GL1 5501  16.175   9.115  10.191  0.0770  0.1223  0.1821
  448YOPC   GL2 5502  16.460   9.016  10.225 -0.1007  0.0012 -0.0258
  448YOPC   C1A 5503  16.253   9.364   9.757  0.2579 -0.1672  0.1575
  448YOPC   D2A 5504  16.010   9.352   9.355 -0.1720  0.4396 -0.0128
  448YOPC   C3A 5505  16.223   9.299   8.914  0.1171 -0.0727  0.1733
  448YOPC   C4A 5506  16.250   8.903   8.725 -0.0251  0.0631  0.0240
  448YOPC   C1B 5507  16.562   8.886   9.809  0.4391 -0.0745 -0.0085
  448YOPC   C2B 5508  16.697   8.718   9.535  0.3070 -0.1498  0.4219
  448YOPC   D3B 5509  17.046   8.909   9.210 -0.0427 -0.2939 -0.0121
  448YOPC   C4B 5510  17.064   8.906   8.800  0.0104 -0.1280  0.0032
  449YOPC   NC3 5511   1.070   8.783  10.897 -0.1483 -0.0380  0.2872
  449YOPC   PO4 5512   0.672   8.688  10.601  0.0644  0.3007 -0.3424
  449YOPC   GL1 5513   0.704   8.497  10.151 -0.0042 -0.0939  0.0151
  449YOPC   GL2 5514   0.381   8.379  10.043  0.1476  0.0505  0.1807
  449YOPC   C1A 5515   0.772   8.499   9.774  0.0037 -0.1409  0.0201
  449YOPC   D2A 5516   1.028   8.167   9.613 -0.1447 -0.3160 -0.0712
  449YOPC   C3A 5517   0.882   8.075   9.264 -0.1540 -0.1631 -0.1259
  449YOPC   C4A 5518   0.557   7.900   9.266  0.1462  0.0566  0.1165
  449YOPC   C1B 5519   0.323   8.254   9.549  0.2469 -0.1136 -0.2311
  449YOPC   C2B 5520   0.495   8.446   9.228 -0.0962  0.1126  0.2031
  449YOPC   D3B 5521   0.190   8.512   8.870 -0.1120 -0.0446 -0.0369
  449YOPC   C4B 5522   0.079   8.567   8.460 -0.0607 -0.0231 -0.0276
  450YOPC   NC3 5523  16.909   9.062  10.950  0.0968  0.0656  0.1742
  450YOPC   PO4 5524  16.619   8.789  10.647  0.1439  0.1960 -0.2029
  450YOPC   GL1 5525  16.421   8.505  10.274 -0.0304  0.1617 -0.1513
  450YOPC   GL2 5526  16.490   8.110  10.152  0.0122 -0.1819  0.1997
  450YOPC   C1A 5527  16.418   8.420   9.838 -0.1308  0.1601 -0.1817
  450YOPC   D2A 5528  16.430   8.190   9.492  0.2460  0.1402  0.0609
  450YOPC   C3A 5529  16.338   8.234   9.024  0.0804 -0.1491  0.0893
  450YOPC   C4A 5530  16.029   8.447   8.759  0.1400  0.1752  0.0131
  450YOPC   C1B 5531  16.250   7.864   9.891 -0.0104 -0.0305  0.1319
  450YOPC   C2B 5532  16.002   7.569   9.546 -0.0540  0.3144 -0.1442
  450YOPC   D3B 5533  15.885   7.814   9.167 -0.2145  0.0588  0.0836
  450YOPC   C4B 5534  15.859   8.000   8.842 -0.0853  0.1133 -0.1316
  451YOPC   NC3 5535   9.965   2.973  10.525 -0.0307 -0.0097 -0.0332
  451YOPC   PO4 5536  10.051   2.622  10.404 -0.0753 -0.0284 -0.0877
  451YOPC   GL1 5537  10.229   2.472  10.029  0.2972  0.0059 -0.3359
  451YOPC   GL2 5538  10.499   2.275  10.073  0.1023  0.0595  0.1609
  451YOPC   C1A 5539  10.395   2.601   9.584  0.0690  0.1397  0.2029
  451YOPC   D2A 5540  10.340   2.642   9.154 -0.1891 -0.0456 -0.1986
  451YOPC   C3A 5541  10.070   2.449   8.966 -0.0253  0.0548  0.1647
  451YOPC   C4A 5542   9.878   2.276   8.609 -0.3042 -0.3704 -0.0691
  451YOPC   C1B 5543  10.251   2.166   9.641  0.1403  0.1427 -0.1149
  451YOPC   C2B 5544   9.892   2.267   9.512  0.0171 -0.0990 -0.0171
  451YOPC   D3B 5545   9.733   1.838   9.625 -0.0590 -0.0920  0.0705
  451YOPC   C4B 5546   9.814   1.414   9.421 -0.0690  0.2088  0.0651
  452YOPC   NC3 5547   2.364   8.502  10.662  0.0260  0.5458  0.0524
  452YOPC   PO4 5548   2.006   8.319  10.563 -0.0614  0.1826 -0.0771
  452YOPC   GL1 5549   1.951   8.745  10.363 -0.1336 -0.4117 -0.1604
  452YOPC   GL2 5550   1.814   8.784  10.140 -0.1375 -0.1604  0.1989
  452YOPC   C1A 5551   2.222   9.110  10.148  0.3272 -0.0361  0.1372
  452YOPC   D2A 5552   2.248   9.238   9.800 -0.0901  0.0345  0.0338
  452YOPC   C3A 5553   2.088   9.111   9.448  0.0558 -0.0121 -0.0577
  452YOPC   C4A 5554   1.837   9.095   9.129 -0.1899  0.2391 -0.1084
  452YOPC   C1B 5555   1.473   9.143  10.202 -0.0127 -0.1311 -0.0775
  452YOPC   C2B 5556   1.234   9.267   9.889  0.2020 -0.0929  0.2049
  452YOPC   D3B 5557   1.026   8.946   9.618  0.0363  0.2492  0.0496
  452YOPC   C4B 5558   0.969   8.577   9.310  0.0304 -0.2817  0.0450
  453YOPC   NC3 5559  16.733  13.182  10.724 -0.1317 -0.0690  0.0156
  453YOPC   PO4 5560  16.545  13.232  10.463 -0.0082  0.0496  0.4020
  453YOPC   GL1 5561  16.956  13.391  10.139  0.0527 -0.0023  0.1491
  453YOPC   GL2 5562  17.225  13.342  10.146  0.2713  0.0595  0.0273
  453YOPC   C1A 5563  16.833  13.415   9.658 -0.1051 -0.1622  0.3036
  453YOPC   D2A 5564  16.794  13.393   9.187  0.0501  0.1377  0.1952
  453YOPC   C3A 5565  17.113  13.295   8.915 -0.1092 -0.3138 -0.0700
  453YOPC   C4A 5566  17.393  13.397   8.682  0.0209 -0.0635 -0.2054
  453YOPC   C1B 5567  17.326  13.402   9.681  0.0027  0.1865 -0.1905
  453YOPC   C2B 5568  17.223  13.529   9.291 -0.2070  0.1189  0.0077
  453YOPC   D3B 5569  17.410  13.734   9.029  0.1926  0.2231 -0.2507
  453YOPC   C4B 5570  17.601  14.025   8.771  0.0601  0.2723 -0.0785
  454YOPC   NC3 5571   1.421   6.843  10.779  0.1241  0.1961 -0.1396
  454YOPC   PO4 5572   1.479   6.644  10.359 -0.1056  0.1725 -0.1516
  454YOPC   GL1 5573   1.338   6.375  10.025 -0.0164 -0.0402 -0.1076
  454YOPC   GL2 5574   1.477   6.044   9.836  0.1993 -0.0829  0.2082
  454YOPC   C1A 5575   1.108   6.353   9.647  0.0104 -0.2164  0.2172
  454YOPC   D2A 5576   1.045   6.409   9.214 -0.0984 -0.0357  0.0451
  454YOPC   C3A 5577   0.752   6.652   9.104 -0.3083 -0.2406 -0.3574
  454YOPC   C4A 5578   0.506   6.734   8.709  0.0726 -0.0325  0.0210
  454YOPC   C1B 5579   1.430   6.123   9.337  0.1808  0.2118 -0.0057
  454YOPC   C2B 5580   1.455   6.330   8.940 -0.2647  0.0133  0.0156
  454YOPC   D3B 5581   1.429   6.183   8.605 -0.3497 -0.0990  0.0166
  454YOPC   C4B 5582   1.076   6.297   8.339  0.2965  0.1594  0.1189
  455YOPC   NC3 5583   1.859  11.478  10.312 -0.0452  0.0638 -0.7207
  455YOPC   PO4 5584   1.749  11.898  10.262 -0.3448  0.2128  0.0816
  455YOPC   GL1 5585   2.008  11.930   9.858  0.1461  0.0320 -0.2606
  455YOPC   GL2 5586   2.037  11.633   9.844 -0.1104  0.2642 -0.0303
  455YOPC   C1A 5587   2.343  11.945   9.591 -0.0181 -0.2765  0.1368
  455YOPC   D2A 5588   2.593  12.182   9.329  0.0875 -0.1671  0.0163
  455YOPC   C3A 5589   2.400  12.450   9.138 -0.0014 -0.0927 -0.2650
  455YOPC   C4A 5590   2.118  12.305   8.813  0.0850  0.0690 -0.0886
  455YOPC   C1B 5591   2.240  11.490   9.431 -0.0122  0.0544  0.2068
  455YOPC   C2B 5592   2.435  11.450   9.070  0.1855 -0.1463  0.0683
  455YOPC   D3B 5593   2.576  11.834   8.771  0.2700  0.1894  0.2109
  455YOPC   C4B 5594   2.898  11.853   8.418 -0.2455 -0.0920 -0.0847
  456YOPC   NC3 5595  14.376   5.852  10.052 -0.2206 -0.0658  0.0544
  456YOPC   PO4 5596  14.613   6.133   9.947 -0.1006  0.2171 -0.1587
  456YOPC   GL1 5597  14.551   5.884   9.578 -0.0766 -0.3214  0.0307
  456YOPC   GL2 5598  14.518   5.611   9.599  0.1868 -0.5063  0.0522
  456YOPC   C1A 5599  14.271   5.938   9.363  0.2485  0.1101 -0.0802
  456YOPC   D2A 5600  14.126   5.956   8.974  0.2450 -0.2307 -0.0195
  456YOPC   C3A 5601  13.971   5.632   8.628  0.2543  0.2894  0.0239
  456YOPC   C4A 5602  13.620   5.477   8.488  0.5916 -0.0282 -0.0535
  456YOPC   C1B 5603  14.678   5.772   9.114 -0.2645  0.0580 -0.1815
  456YOPC   C2B 5604  14.884   5.893   8.721  0.3605  0.3233 -0.1705
  456YOPC   D3B 5605  14.863   5.686   8.269 -0.3317  0.1481  0.0473
  456YOPC   C4B 5606  14.878   5.376   8.009 -0.1875 -0.3146 -0.0689
  457YOPC   NC3 5607   0.462   9.240  10.552  0.1138 -0.0977  0.1062
  457YOPC   PO4 5608   0.574   9.795  10.610  0.2996  0.0953  0.0215
  457YOPC   GL1 5609   0.419   9.837  10.201  0.1424 -0.0882 -0.2784
  457YOPC   GL2 5610   0.305   9.552  10.146  0.1446 -0.2314  0.1097
  457YOPC   C1A 5611   0.442   9.816   9.799 -0.2619 -0.0187  0.0375
  457YOPC   D2A 5612   0.432   9.633   9.463  0.0985  0.1992 -0.0611
  457YOPC   C3A 5613   0.233   9.765   9.140 -0.2566  0.1984  0.1136
  457YOPC   C4A 5614   0.047   9.848   8.726  0.1549 -0.1676  0.1518
  457YOPC   C1B 5615   0.084   9.444   9.822  0.0297 -0.0339 -0.1899
  457YOPC   C2B 5616  -0.063   9.440   9.410 -0.0048  0.4221  0.1769
  457YOPC   D3B 5617   0.004   9.337   9.022 -0.0653  0.0333  0.0772
  457YOPC   C4B 5618  -0.147   8.965   8.780 -0.1385 -0.2290  0.0652
  458YOPC   NC3 5619   4.753   7.716  10.256 -0.0444  0.1200  0.1716
  458YOPC   PO4 5620   4.884   7.278  10.213  0.1491  0.0496 -0.0522
  458YOPC   GL1 5621   4.981   7.440   9.826  0.0692  0.1715 -0.2674
  458YOPC   GL2 5622   5.211   7.172   9.828  0.0674  0.0956 -0.0186
  458YOPC   C1A 5623   5.274   7.537   9.506 -0.0479 -0.2365 -0.2409
  458YOPC   D2A 5624   5.437   7.611   9.198 -0.1823 -0.0656 -0.1261
  458YOPC   C3A 5625   5.184   7.504   8.792  0.0734  0.0971 -0.1007
  458YOPC   C4A 5626   5.185   7.287   8.364 -0.1695 -0.0705  0.2277
  458YOPC   C1B 5627   5.308   7.007   9.327  0.2191 -0.2301 -0.1558
  458YOPC   C2B 5628   5.290   6.952   8.822  0.0352 -0.1047  0.2087
  458YOPC   D3B 5629   5.532   6.966   8.553 -0.0868  0.3162  0.0480
  458YOPC   C4B 5630   5.837   7.138   8.338 -0.1701  0.2599  0.3000
  459YOPC   NC3 5631   7.253   1.090  10.272  0.0580  0.2183 -0.2426
  459YOPC   PO4 5632   6.758   1.121  10.371  0.0565 -0.1451  0.1152
  459YOPC   GL1 5633   6.485   1.092   9.957 -0.1252 -0.2367 -0.0555
  459YOPC   GL2 5634   6.573   1.390   9.763 -0.1183 -0.0265 -0.1466
  459YOPC   C1A 5635   6.191   1.068   9.639  0.1234 -0.1365  0.2325
  459YOPC   D2A 5636   6.230   1.050   9.183 -0.0772  0.0174  0.0319
  459YOPC   C3A 5637   6.071   1.117   8.796 -0.3049 -0.3075 -0.0934
  459YOPC   C4A 5638   6.082   1.050   8.415  0.0868  0.0455 -0.1387
  459YOPC   C1B 5639   6.281   1.552   9.436  0.2181 -0.3771  0.3003
  459YOPC   C2B 5640   6.250   1.640   9.022 -0.2923  0.1642 -0.0004
  459YOPC   D3B 5641   6.102   1.629   8.681 -0.0173 -0.3471  0.0817
  459YOPC   C4B 5642   6.217   1.565   8.383 -0.2348  0.0646  0.0374
  460YOPC   NC3 5643  14.144  16.836  10.283  0.1183 -0.1453 -0.2392
  460YOPC   PO4 5644  13.745  16.630  10.379 -0.0130 -0.0889  0.2921
  460YOPC   GL1 5645  13.706  16.800   9.975  0.0558  0.0282 -0.0597
  460YOPC   GL2 5646  13.957  17.022   9.800 -0.0540  0.3145 -0.3209
  460YOPC   C1A 5647  13.426  16.835   9.709 -0.1116 -0.0072  0.0525
  460YOPC   D2A 5648  13.376  16.626   9.234 -0.2851  0.3733 -0.3078
  460YOPC   C3A 5649  13.175  16.437   8.897 -0.1748 -0.2289 -0.2068
  460YOPC   C4A 5650  13.068  16.359   8.522 -0.1464  0.2053 -0.0221
  460YOPC   C1B 5651  13.734  17.144   9.463 -0.3334  0.2610  0.0593
  460YOPC   C2B 5652  13.708  17.019   9.087  0.0668  0.4406 -0.1703
  460YOPC   D3B 5653  13.538  17.212   8.756 -0.3562  0.0928 -0.1280
  460YOPC   C4B 5654  13.515  17.532   8.400 -0.1004 -0.0761 -0.0508
  461YOPC   NC3 5655   9.603   1.556  10.315 -0.2957 -0.0305  0.1812
  461YOPC   PO4 5656   9.495   1.965  10.081  0.2130  0.0358  0.2146
  461YOPC   GL1 5657   9.122   1.965   9.732  0.1878  0.3479 -0.1375
  461YOPC   GL2 5658   9.090   1.663   9.620  0.0400 -0.3057  0.0280
  461YOPC   C1A 5659   8.982   2.034   9.247 -0.3558 -0.0780 -0.1252
  461YOPC   D2A 5660   8.895   2.131   8.878 -0.0399  0.0479  0.2692
  461YOPC   C3A 5661   8.827   2.026   8.458  0.1181  0.0858  0.2488
  461YOPC   C4A 5662   8.706   1.845   8.136  0.5106  0.0060 -0.1477
  461YOPC   C1B 5663   9.418   1.749   9.190  0.2607 -0.2406 -0.1303
  461YOPC   C2B 5664   9.215   1.746   8.728  0.0903  0.0604 -0.1587
  461YOPC   D3B 5665   9.345   1.408   8.611 -0.1454  0.0200  0.1353
  461YOPC   C4B 5666   9.740   1.320   8.396  0.1608  0.1374 -0.1579
  462YOPC   NC3 5667  15.093  16.864  10.600 -0.0156  0.0261  0.2161
  462YOPC   PO4 5668  14.644  16.873  10.382 -0.3276 -0.1059  0.0261
  462YOPC   GL1 5669  14.905  16.714  10.078 -0.1931 -0.0226  0.2681
  462YOPC   GL2 5670  15.039  16.414  10.036  0.3393  0.2332 -0.0193
  462YOPC   C1A 5671  14.946  16.810   9.667 -0.1135  0.1904 -0.0210
  462YOPC   D2A 5672  14.988  17.051   9.241  0.0311 -0.2959  0.1278
  462YOPC   C3A 5673  14.970  17.511   9.217  0.0320  0.2221  0.2217
  462YOPC   C4A 5674  15.063  17.807   9.132 -0.0955  0.1804 -0.0595
  462YOPC   C1B 5675  14.869  16.265   9.666 -0.1884  0.1476  0.0766
  462YOPC   C2B 5676  14.994  16.117   9.334  0.2005 -0.3282  0.5568
  462YOPC   D3B 5677  14.815  16.204   8.900  0.0354  0.2638  0.0193
  462YOPC   C4B 5678  14.549  16.462   8.628 -0.1281 -0.2298 -0.0888
  463YOPC   NC3 5679   4.317   9.259  10.908 -0.1272 -0.0169  0.1638
  463YOPC   PO4 5680   4.201   9.243  10.513 -0.2236  0.0630 -0.3300
  463YOPC   GL1 5681   3.926   9.176  10.180 -0.1696  0.0041 -0.1114
  463YOPC   GL2 5682   3.957   9.313  10.005 -0.0835  0.0309 -0.1371
  463YOPC   C1A 5683   3.492   9.187  10.064 -0.4310  0.2148  0.0766
  463YOPC   D2A 5684   3.258   8.902   9.916 -0.1095 -0.1999  0.1345
  463YOPC   C3A 5685   3.185   9.034   9.544  0.0070  0.0819  0.2462
  463YOPC   C4A 5686   2.946   8.938   9.199 -0.0637 -0.0877  0.2171
  463YOPC   C1B 5687   4.069   9.533   9.644 -0.0117 -0.0845  0.2025
  463YOPC   C2B 5688   3.973   9.762   9.343 -0.2882 -0.1336  0.1631
  463YOPC   D3B 5689   4.335   9.968   9.211  0.1953 -0.0814 -0.1610
  463YOPC   C4B 5690   4.596  10.051   8.730 -0.3408 -0.2132 -0.0500
  464YOPC   NC3 5691  13.403  14.110  10.387 -0.0432 -0.0580  0.0205
  464YOPC   PO4 5692  13.055  13.972  10.446 -0.0665 -0.0555 -0.2104
  464YOPC   GL1 5693  13.149  13.806  10.045  0.2314  0.3037  0.0906
  464YOPC   GL2 5694  13.286  14.189   9.904  0.1127 -0.0679 -0.0665
  464YOPC   C1A 5695  13.146  13.499   9.715 -0.0649  0.1799 -0.0743
  464YOPC   D2A 5696  13.379  13.516   9.370  0.1058 -0.2601 -0.2616
  464YOPC   C3A 5697  13.272  13.637   9.001  0.3048 -0.1819 -0.0470
  464YOPC   C4A 5698  12.972  13.811   8.860  0.0516  0.0124 -0.2931
  464YOPC   C1B 5699  13.046  14.022   9.627  0.4258 -0.1365 -0.3442
  464YOPC   C2B 5700  12.934  13.777   9.328 -0.0661  0.1134  0.1851
  464YOPC   D3B 5701  12.626  13.718   9.599 -0.0252 -0.2016  0.1320
  464YOPC   C4B 5702  12.316  13.765   9.554 -0.0198  0.1337 -0.0777
  465YOPC   NC3 5703  12.393  16.338  10.403 -0.0868  0.1298 -0.0374
  465YOPC   PO4 5704  12.173  16.480  10.171 -0.0139  0.0377  0.0377
  465YOPC   GL1 5705  12.144  16.715   9.707  0.2564  0.2093  0.0912
  465YOPC   GL2 5706  12.254  17.072   9.717  0.0942  0.0605  0.1818
  465YOPC   C1A 5707  12.485  16.665   9.422  0.2000  0.1894  0.0698
  465YOPC   D2A 5708  12.644  16.582   8.996  0.2372 -0.0727 -0.0940
  465YOPC   C3A 5709  12.609  16.297   8.651  0.0336 -0.0350 -0.4385
  465YOPC   C4A 5710  12.310  16.113   8.364 -0.1532 -0.0564 -0.0578
  465YOPC   C1B 5711  12.136  17.023   9.313 -0.0275  0.0169  0.0497
  465YOPC   C2B 5712  12.476  17.066   9.001  0.0385 -0.0309  0.2964
  465YOPC   D3B 5713  12.463  16.789   8.620 -0.0471  0.0558 -0.0207
  465YOPC   C4B 5714  12.779  16.735   8.335  0.1298 -0.1210 -0.1138
  466YOPC   NC3 5715  11.312   4.872  10.233  0.2560  0.0817 -0.0192
  466YOPC   PO4 5716  11.673   4.847  10.086  0.1180  0.1037  0.1771
  466YOPC   GL1 5717  11.500   4.909   9.643 -0.3577  0.0357 -0.1118
  466YOPC   GL2 5718  11.299   5.185   9.685  0.0576  0.2433 -0.0917
  466YOPC   C1A 5719  11.412   5.041   9.257 -0.0992 -0.2433 -0.0000
  466YOPC   D2A 5720  11.151   5.182   8.926 -0.0969 -0.1589  0.1612
  466YOPC   C3A 5721  11.227   5.006   8.552 -0.0442 -0.0767 -0.1128
  466YOPC   C4A 5722  10.960   5.220   8.291 -0.3944 -0.2736 -0.1310
  466YOPC   C1B 5723  11.258   5.465   9.457 -0.1265  0.1587 -0.0973
  466YOPC   C2B 5724  11.176   5.701   9.160  0.4052  0.1075  0.0427
  466YOPC   D3B 5725  11.296   5.634   8.738 -0.1657 -0.1711  0.3127
  466YOPC   C4B 5726  11.585   5.584   8.331  0.1115 -0.0160 -0.0130
  467YOPC   NC3 5727   0.316  10.669  10.420  0.2996 -0.0128 -0.3254
  467YOPC   PO4 5728   0.060  10.861  10.550 -0.1101  0.1036  0.0076
  467YOPC   GL1 5729  -0.128  11.118  10.265 -0.0723  0.4052  0.0087
  467YOPC   GL2 5730  -0.312  10.904  10.074 -0.3061  0.1854 -0.0095
  467YOPC   C1A 5731  -0.088  11.347   9.840  0.0718 -0.2538  0.1688
  467YOPC   D2A 5732  -0.320  11.654   9.517  0.1943  0.1518  0.0324
  467YOPC   C3A 5733  -0.711  11.807   9.548 -0.1436 -0.1690 -0.4575
  467YOPC   C4A 5734  -1.107  11.758   9.564 -0.2988 -0.1659 -0.0246
  467YOPC   C1B 5735  -0.397  10.974   9.685  0.1669  0.0466 -0.0470
  467YOPC   C2B 5736  -0.481  11.166   9.231 -0.1139 -0.2394  0.0467
  467YOPC   D3B 5737  -0.185  11.204   8.899 -0.0741 -0.2519 -0.1049
  467YOPC   C4B 5738   0.158  11.360   8.600  0.0805 -0.1654 -0.0763
  468YOPC   NC3 5739   6.967  14.831  10.084 -0.0430 -0.1464  0.1887
  468YOPC   PO4 5740   6.808  14.495   9.867  0.1528  0.2594 -0.0019
  468YOPC   GL1 5741   6.799  14.306   9.509  0.0220 -0.1351 -0.0899
  468YOPC   GL2 5742   6.623  14.103   9.644 -0.2336 -0.1384  0.2575
  468YOPC   C1A 5743   6.939  14.254   9.090 -0.0158 -0.2278  0.3038
  468YOPC   D2A 5744   7.070  14.387   8.742 -0.1738  0.2883  0.0865
  468YOPC   C3A 5745   7.559  14.435   8.513  0.1498  0.1146 -0.1608
  468YOPC   C4A 5746   7.856  14.072   8.290 -0.1143  0.3420 -0.1244
  468YOPC   C1B 5747   6.589  13.916   9.301 -0.2072 -0.0596  0.2572
  468YOPC   C2B 5748   6.643  13.766   8.812 -0.0416  0.3371  0.2308
  468YOPC   D3B 5749   6.194  13.941   8.524 -0.0733 -0.2101 -0.2116
  468YOPC   C4B 5750   6.179  14.365   8.411 -0.0722 -0.0699 -0.0330
  469YOPC   NC3 5751   6.780  11.312  10.731 -0.2472  0.3663  0.2786
  469YOPC   PO4 5752   6.291  11.186  10.585 -0.2135 -0.3554  0.3368
  469YOPC   GL1 5753   6.553  11.052  10.246 -0.4692 -0.1710  0.0225
  469YOPC   GL2 5754   6.362  11.212   9.958  0.0250 -0.3535  0.0885
  469YOPC   C1A 5755   6.797  11.286   9.900 -0.1106  0.2294  0.0014
  469YOPC   D2A 5756   6.676  11.471   9.415  0.2274 -0.0514 -0.0286
  469YOPC   C3A 5757   6.673  11.236   9.072  0.4643  0.0902  0.1211
  469YOPC   C4A 5758   6.435  10.896   8.910 -0.0647 -0.2163 -0.0621
  469YOPC   C1B 5759   6.315  11.218   9.625  0.0209  0.1809  0.0897
  469YOPC   C2B 5760   6.105  11.025   9.257  0.1357  0.1224 -0.1272
  469YOPC   D3B 5761   5.697  11.139   9.083  0.0266 -0.0163 -0.4158
  469YOPC   C4B 5762   5.641  11.437   8.820 -0.2608 -0.1541 -0.1613
  470ERGO   ROH 5763   1.093   7.876  10.233  0.0323 -0.0459 -0.0294
  470ERGO    R1 5764   1.056   8.142  10.144  0.0263  0.0056  0.1249
  470ERGO    R2 5765   1.208   8.353  10.238  0.2744 -0.1067 -0.0214
  470ERGO    R3 5766   1.257   8.393   9.974 -0.1034 -0.0298 -0.0864
  470ERGO    R4 5767   1.347   8.639  10.103  0.1736 -0.1028 -0.1203
  470ERGO    R5 5768   1.207   8.624   9.938 -0.0829  0.0041  0.0750
  470ERGO    C1 5769   1.475   8.843   9.777 -0.2396 -0.0283 -0.2388
  470ERGO    C2 5770   1.709   8.995   9.710  0.0708  0.0991 -0.4065
  471ERGO   ROH 5771   8.984  11.087  10.025  0.0893 -0.2609  0.0188
  471ERGO    R1 5772   9.006  10.998   9.757  0.0432 -0.1513 -0.0223
  471ERGO    R2 5773   8.795  10.885   9.620  0.0384 -0.1617 -0.0089
  471ERGO    R3 5774   8.850  11.078   9.438 -0.0682 -0.0732  0.0514
  471ERGO    R4 5775   8.737  10.857   9.281  0.0680 -0.0896 -0.0200
  471ERGO    R5 5776   8.928  10.957   9.246  0.0097  0.0325  0.0169
  471ERGO    C1 5777   8.755  11.023   8.912 -0.0147  0.0355  0.0303
  471ERGO    C2 5778   8.511  10.950   8.703 -0.2466 -0.1140 -0.3244
  472ERGO   ROH 5779  12.952  16.857   9.519  0.1662 -0.0781 -0.0088
  472ERGO    R1 5780  12.948  16.877   9.237  0.0478 -0.1694 -0.0146
  472ERGO    R2 5781  12.953  17.120   9.105 -0.2025 -0.2037 -0.0942
  472ERGO    R3 5782  13.167  17.010   8.978 -0.1544 -0.0653 -0.1341
  472ERGO    R4 5783  13.005  17.127   8.763 -0.3145 -0.2535 -0.1129
  472ERGO    R5 5784  13.077  16.922   8.775 -0.1462 -0.1922 -0.0815
  472ERGO    C1 5785  13.236  17.029   8.445 -0.3346 -0.1528 -0.1615
  472ERGO    C2 5786  13.467  17.022   8.248 -0.0003  0.0761 -0.0677
  473ERGO   ROH 5787   2.787  17.456  10.190 -0.0091 -0.2672 -0.1319
  473ERGO    R1 5788   2.765  17.619   9.960 -0.0214 -0.1355 -0.0383
  473ERGO    R2 5789   2.977  17.767   9.862 -0.0086 -0.1264 -0.0006
  473ERGO    R3 5790   2.921  17.636   9.631 -0.0849  0.0108 -0.0614
  473ERGO    R4 5791   3.157  17.797   9.569  0.1685 -0.2969  0.0885
  473ERGO    R5 5792   2.969  17.794   9.459  0.2131 -0.0089  0.0006
  473ERGO    C1 5793   3.209  17.690   9.181  0.2000 -0.2674  0.0834
  473ERGO    C2 5794   3.330  17.811   8.916  0.0913 -0.0129 -0.1073
  474ERGO   ROH 5795  17.133   3.758   9.442 -0.0393  0.0430 -0.2573
  474ERGO    R1 5796  17.375   3.775   9.296  0.0847 -0.0671 -0.0683
  474ERGO    R2 5797  17.550   3.562   9.272 -0.0383 -0.1764 -0.0069
  474ERGO    R3 5798  17.521   3.609   9.006  0.1948 -0.0647 -0.0147
  474ERGO    R4 5799  17.798   3.520   9.036  0.0937 -0.3295  0.1558
  474ERGO    R5 5800  17.731   3.703   8.940  0.3308 -0.2356  0.1632
  474ERGO    C1 5801  17.916   3.540   8.649  0.3891 -0.3139  0.2433
  474ERGO    C2 5802  18.210   3.570   8.368  0.3809  0.0534 -0.0425
  475ERGO   ROH 5803   4.579   7.095   9.802  0.0984 -0.1305 -0.0352
  475ERGO    R1 5804   4.599   7.202   9.540  0.0391 -0.0425 -0.0024
  475ERGO    R2 5805   4.838   7.212   9.402 -0.0082 -0.0382 -0.0668
  475ERGO    R3 5806   4.696   7.080   9.211 -0.0841  0.0610 -0.0805
  475ERGO    R4 5807   4.899   7.230   9.062  0.2253 -0.2826 -0.0429
  475ERGO    R5 5808   4.683   7.234   9.029  0.2387  0.0002 -0.1678
  475ERGO    C1 5809   4.801   7.116   8.685  0.2899 -0.3318 -0.0418
  475ERGO    C2 5810   4.807   6.945   8.463 -0.0803  0.2235  0.2485
  476ERGO   ROH 5811  16.900   8.582  10.242  0.0831  0.0021  0.1378
  476ERGO    R1 5812  16.981   8.775  10.051  0.1658 -0.0572  0.1156
  476ERGO    R2 5813  17.207   8.931  10.083  0.2906 -0.2378  0.0418
  476ERGO    R3 5814  17.271   8.831   9.838  0.1361 -0.2713  0.0119
  476ERGO    R4 5815  17.426   9.078   9.860  0.3692 -0.3979  0.0091
  476ERGO    R5 5816  17.291   9.024   9.698  0.2703 -0.2612  0.0312
  476ERGO    C1 5817  17.613   9.069   9.500  0.2700 -0.5227 -0.0380
  476ERGO    C2 5818  17.710   9.126   9.223  0.2742 -0.1308  0.2713
  477ERGO   ROH 5819   1.154  12.991  10.134  0.2893  0.1429  0.0929
  477ERGO    R1 5820   1.298  13.001   9.890  0.1632  0.0661  0.0148
  477ERGO    R2 5821   1.332  12.779   9.728  0.0195  0.0322  0.0329
  477ERGO    R3 5822   1.226  12.942   9.538 -0.0374  0.0282  0.0604
  477ERGO    R4 5823   1.389  12.750   9.389  0.1607  0.2054  0.0399
  477ERGO    R5 5824   1.401  12.967   9.377  0.0027  0.2220  0.1296
  477ERGO    C1 5825   1.322  12.886   9.013  0.1894  0.3024  0.0698
  477ERGO    C2 5826   1.301  12.708   8.739  0.1920  0.1137 -0.0698
  478ERGO   ROH 5827   1.277   1.065  10.007 -0.1008 -0.0262  0.0056
  478ERGO    R1 5828   1.120   1.185   9.804 -0.0509  0.0721  0.0244
  478ERGO    R2 5829   1.156   1.448   9.723 -0.0010  0.0954  0.1284
  478ERGO    R3 5830   1.180   1.335   9.477  0.0213  0.1870  0.0883
  478ERGO    R4 5831   1.035   1.585   9.430 -0.2870  0.0508  0.2224
  478ERGO    R5 5832   0.973   1.386   9.368 -0.0918 -0.0098  0.1958
  478ERGO    C1 5833   0.988   1.559   9.028 -0.4327  0.1108  0.2397
  478ERGO    C2 5834   0.722   1.636   8.924 -0.1810  0.1446  0.2920
  479ERGO   ROH 5835   8.512  11.973  10.158  0.0863 -0.0557 -0.0766
  479ERGO    R1 5836   8.492  11.823   9.919 -0.0968 -0.1720  0.0091
  479ERGO    R2 5837   8.252  11.722   9.827 -0.2166  0.0190  0.0971
  479ERGO    R3 5838   8.319  11.857   9.600 -0.1045 -0.1730  0.0142
  479ERGO    R4 5839   8.171  11.622   9.506 -0.2767 -0.1151  0.1534
  479ERGO    R5 5840   8.370  11.685   9.442 -0.2287 -0.3072  0.1213
  479ERGO    C1 5841   8.188  11.690   9.107 -0.2065 -0.3734  0.1084
  479ERGO    C2 5842   8.071  11.734   8.819  0.2043 -0.0147  0.2683
  480ERGO   ROH 5843   4.903   1.759   9.854 -0.0457  0.2780 -0.0443
  480ERGO    R1 5844   4.847   1.619   9.615  0.1091  0.1208  0.0080
  480ERGO    R2 5845   4.650   1.698   9.438 -0.0908 -0.2501  0.0451
  480ERGO    R3 5846   4.854   1.692   9.258 -0.1283  0.0488 -0.0108
  480ERGO    R4 5847   4.616   1.612   9.105 -0.0329 -0.3876  0.0748
  480ERGO    R5 5848   4.804   1.503   9.120  0.1548 -0.0672  0.0483
  480ERGO    C1 5849   4.788   1.557   8.742 -0.0344 -0.1871  0.0395
  480ERGO    C2 5850   4.756   1.443   8.400 -0.1056  0.0304  0.0413
  481ERGO   ROH 5851   3.717  11.597  10.201 -0.1385  0.1564 -0.0938
  481ERGO    R1 5852   3.673  11.595   9.922  0.0625  0.2232 -0.1256
  481ERGO    R2 5853   3.874  11.649   9.740  0.2794 -0.0896  0.0243
  481ERGO    R3 5854   3.799  11.409   9.635 -0.0175  0.0231 -0.0356
  481ERGO    R4 5855   3.885  11.569   9.404  0.5688 -0.1319  0.0400
  481ERGO    R5 5856   3.693  11.466   9.428  0.3388  0.2031 -0.1841
  481ERGO    C1 5857   3.821  11.298   9.109  0.4586 -0.0508 -0.0072
  481ERGO    C2 5858   3.790  11.383   8.705  0.0301  0.1156 -0.2668
  482ERGO   ROH 5859   7.017   5.679   9.454 -0.0443 -0.0762 -0.1400
  482ERGO    R1 5860   7.071   5.721   9.179  0.0447  0.0723 -0.0999
  482ERGO    R2 5861   6.880   5.817   9.004  0.0635  0.0263 -0.1326
  482ERGO    R3 5862   7.071   6.004   8.950 -0.0306  0.1683  0.0126
  482ERGO    R4 5863   6.906   5.993   8.707  0.3158 -0.1865 -0.2410
  482ERGO    R5 5864   7.123   5.970   8.719  0.3389  0.0258  0.1012
  482ERGO    C1 5865   7.100   6.270   8.484  0.3745 -0.1771 -0.1678
  482ERGO    C2 5866   7.246   6.438   8.232  0.2046 -0.1941  0.1755
  483ERGO   ROH 5867   2.826   8.461  10.173 -0.0240  0.2485 -0.1812
  483ERGO    R1 5868   2.930   8.530   9.919  0.1282  0.0349 -0.1788
  483ERGO    R2 5869   3.187   8.464   9.841  0.0613 -0.3320 -0.1012
  483ERGO    R3 5870   3.059   8.352   9.630 -0.0397 -0.2250 -0.0976
  483ERGO    R4 5871   3.265   8.522   9.510 -0.2495  0.0278 -0.1180
  483ERGO    R5 5872   3.052   8.526   9.465 -0.2937 -0.0738  0.0640
  483ERGO    C1 5873   3.190   8.450   9.118 -0.5253  0.3377 -0.1245
  483ERGO    C2 5874   3.185   8.597   8.860  0.1437  0.0507  0.0361
  484ERGO   ROH 5875  12.524   9.888   9.683 -0.2128 -0.0349 -0.0626
  484ERGO    R1 5876  12.397  10.043   9.482 -0.1573 -0.0632 -0.1193
  484ERGO    R2 5877  12.515  10.266   9.370 -0.1659 -0.0240 -0.0496
  484ERGO    R3 5878  12.467  10.135   9.137 -0.0104 -0.0283 -0.0809
  484ERGO    R4 5879  12.472  10.419   9.063  0.1997 -0.0422 -0.1144
  484ERGO    R5 5880  12.313  10.277   9.020  0.1691  0.0326 -0.2470
  484ERGO    C1 5881  12.402  10.385   8.665  0.5585 -0.0569 -0.1815
  484ERGO    C2 5882  12.471  10.467   8.324  0.0032 -0.2060 -0.2396
  485ERGO   ROH 5883   9.926   9.645   9.564  0.0866  0.0359 -0.0154
  485ERGO    R1 5884  10.122   9.551   9.384 -0.0244  0.0044 -0.1212
  485ERGO    R2 5885  10.250   9.308   9.417  0.1368  0.0987 -0.0450
  485ERGO    R3 5886  10.163   9.264   9.163 -0.0710 -0.1470  0.0629
  485ERGO    R4 5887  10.346   9.041   9.220  0.3072  0.1327 -0.0096
  485ERGO    R5 5888  10.356   9.178   9.049 -0.0619  0.0679 -0.0928
  485ERGO    C1 5889  10.321   8.845   8.866  0.2114 -0.0781  0.1122
  485ERGO    C2 5890  10.366   8.621   8.589  0.4376 -0.1993 -0.0248
  486ERGO   ROH 5891   5.392  15.108   9.824 -0.0519 -0.0722  0.0993
  486ERGO    R1 5892   5.468  15.068   9.554 -0.0060  0.0508  0.0958
  486ERGO    R2 5893   5.542  14.822   9.455 -0.0010  0.1021 -0.0013
  486ERGO    R3 5894   5.349  14.873   9.271  0.0400  0.1889 -0.0238
  486ERGO    R4 5895   5.545  14.708   9.129 -0.1580 -0.1857  0.0923
  486ERGO    R5 5896   5.469  14.902   9.066  0.0717 -0.1304 -0.0645
  486ERGO    C1 5897   5.365  14.690   8.766 -0.2110 -0.2717  0.1258
  486ERGO    C2 5898   5.157  14.683   8.413 -0.0680  0.0402 -0.4563
  487ERGO   ROH 5899  12.403   3.321   9.382 -0.3289 -0.0075  0.0766
  487ERGO    R1 5900  12.447   3.128   9.179 -0.0404  0.0184  0.1102
  487ERGO    R2 5901  12.311   3.131   8.938 -0.0479 -0.2256  0.1103
  487ERGO    R3 5902  12.562   3.129   8.834 -0.0386  0.1291  0.1105
  487ERGO    R4 5903  12.388   3.052   8.611  0.0443  0.1590  0.0338
  487ERGO    R5 5904  12.562   2.943   8.683  0.1562  0.2663 -0.0655
  487ERGO    C1 5905  12.669   3.004   8.322  0.1067  0.7158 -0.0103
  487ERGO    C2 5906  12.670   2.987   7.958  0.2690  0.1534 -0.0814
  488ERGO   ROH 5907   1.642  10.736   9.943  0.1636  0.0641  0.0689
  488ERGO    R1 5908   1.609  10.596   9.699  0.1828 -0.0097  0.1077
  488ERGO    R2 5909   1.476  10.703   9.482  0.0055 -0.1581  0.1351
  488ERGO    R3 5910   1.706  10.643   9.352  0.0083  0.0091  0.0619
  488ERGO    R4 5911   1.500  10.633   9.145 -0.0260 -0.0479  0.1100
  488ERGO    R5 5912   1.644  10.476   9.192  0.0707  0.0219  0.0292
  488ERGO    C1 5913   1.731  10.535   8.826 -0.0418  0.1732  0.0264
  488ERGO    C2 5914   1.847  10.445   8.580  0.0779 -0.0472  0.0554
  489ERGO   ROH 5915   6.545  12.136  10.194  0.0308  0.0616  0.0695
  489ERGO    R1 5916   6.398  12.317  10.034 -0.0897 -0.0864  0.0112
  489ERGO    R2 5917   6.138  12.266   9.953 -0.1680 -0.1454  0.2897
  489ERGO    R3 5918   6.090  12.508  10.067 -0.0417 -0.0205  0.0859
  489ERGO    R4 5919   5.895  12.489   9.849  0.0024 -0.0663  0.0496
  489ERGO    R5 5920   6.036  12.651   9.883  0.0998 -0.1296 -0.0434
  489ERGO    C1 5921   5.707  12.845   9.896  0.2202  0.0969 -0.2814
  489ERGO    C2 5922   5.561  13.107   9.881  0.0735  0.2447  0.1532
  490ERGO   ROH 5923  17.593   5.106   9.652  0.3882  0.0526  0.0612
  490ERGO    R1 5924  17.772   5.259   9.495  0.1358  0.3214  0.0237
  490ERGO    R2 5925  17.869   5.171   9.252  0.5696  0.2463  0.2104
  490ERGO    R3 5926  17.772   5.409   9.163  0.0172 -0.0988 -0.1720
  490ERGO    R4 5927  17.962   5.324   8.956  0.6551  0.2525  0.2410
  490ERGO    R5 5928  17.961   5.515   9.061 -0.0943  0.3633  0.0799
  490ERGO    C1 5929  17.925   5.636   8.701  0.1863 -0.0678 -0.1001
  490ERGO    C2 5930  17.869   5.707   8.441 -0.2606  0.3608  0.0108
  491ERGO   ROH 5931   0.836  10.181  10.024  0.3032 -0.1508 -0.0170
  491ERGO    R1 5932   0.882  10.172   9.745  0.1712 -0.0872 -0.0405
  491ERGO    R2 5933   0.867   9.938   9.599 -0.0349 -0.0250 -0.1072
  491ERGO    R3 5934   0.692  10.082   9.448 -0.0155  0.1258  0.0090
  491ERGO    R4 5935   0.794   9.875   9.267 -0.4046 -0.0618 -0.0251
  491ERGO    R5 5936   0.794  10.090   9.232 -0.1938 -0.0624 -0.0917
  491ERGO    C1 5937   0.588   9.974   8.932 -0.6016  0.0582  0.1319
  491ERGO    C2 5938   0.510   9.929   8.565 -0.1936  0.0503 -0.0175
  492ERGO   ROH 5939  18.204   8.866   7.930 -0.1409  0.1469 -0.0045
  492ERGO    R1 5940  18.271   9.119   8.038 -0.1283  0.1398  0.0046
  492ERGO    R2 5941  18.188   9.200   8.289 -0.0406  0.0961  0.0494
  492ERGO    R3 5942  18.454   9.243   8.327 -0.0303  0.1201 -0.0489
  492ERGO    R4 5943  18.328   9.350   8.568  0.0505  0.1264 -0.0122
  492ERGO    R5 5944  18.466   9.455   8.437 -0.0058  0.1274 -0.0684
  492ERGO    C1 5945  18.658   9.477   8.766  0.1131  0.1665 -0.1403
  492ERGO    C2 5946  18.834   9.384   9.047  0.1743  0.4192  0.0761
  493ERGO   ROH 5947  16.718  12.943   9.871  0.0937  0.1219  0.0338
  493ERGO    R1 5948  16.817  12.871   9.616  0.0495  0.0541  0.0358
  493ERGO    R2 5949  16.717  12.657   9.472 -0.0346  0.0713  0.0733
  493ERGO    R3 5950  16.684  12.845   9.278  0.0162  0.0549  0.0477
  493ERGO    R4 5951  16.688  12.590   9.134 -0.4488 -0.0088  0.1195
  493ERGO    R5 5952  16.812  12.764   9.093 -0.2607 -0.1743 -0.0560
  493ERGO    C1 5953  16.639  12.728   8.756 -0.6423 -0.0709  0.1224
  493ERGO    C2 5954  16.439  12.600   8.500  0.1691  0.1425  0.2293
  494ERGO   ROH 5955  17.692   4.636   9.553 -0.3511 -0.1988 -0.2495
  494ERGO    R1 5956  17.887   4.749   9.381 -0.2682 -0.0838 -0.0824
  494ERGO    R2 5957  18.040   4.597   9.209 -0.1204  0.0212 -0.0438
  494ERGO    R3 5958  17.943   4.769   9.022 -0.0423  0.0689 -0.0412
  494ERGO    R4 5959  18.213   4.703   8.929 -0.0655 -0.0487 -0.0364
  494ERGO    R5 5960  18.132   4.903   8.960  0.0201 -0.0121 -0.0325
  494ERGO    C1 5961  18.222   4.926   8.590  0.0400 -0.0447 -0.0297
  494ERGO    C2 5962  18.277   5.042   8.289 -0.1921 -0.3438  0.0733
  495ERGO   ROH 5963  16.320  14.863  10.479 -0.1480  0.1194 -0.0708
  495ERGO    R1 5964  16.327  14.842  10.197 -0.1822 -0.0130 -0.0630
  495ERGO    R2 5965  16.099  14.850  10.041 -0.1868  0.1078 -0.0525
  495ERGO    R3 5966  16.231  15.050   9.913 -0.0268 -0.0582 -0.1503
  495ERGO    R4 5967  16.012  14.977   9.732 -0.2179  0.1636 -0.0200
  495ERGO    R5 5968  16.224  14.987   9.682 -0.2288 -0.0850 -0.1399
  495ERGO    C1 5969  16.085  15.239   9.432 -0.0857  0.0404 -0.0930
  495ERGO    C2 5970  16.074  15.281   9.033  0.1374  0.0542  0.0830
  496ERGO   ROH 5971   7.679   6.177   9.789 -0.2089 -0.0501 -0.0597
  496ERGO    R1 5972   7.860   6.142   9.574 -0.1796 -0.0859 -0.0299
  496ERGO    R2 5973   7.828   6.269   9.331 -0.2043 -0.2055 -0.0925
  496ERGO    R3 5974   8.082   6.354   9.378 -0.2377 -0.0969 -0.1069
  496ERGO    R4 5975   8.060   6.344   9.086 -0.2069 -0.2260 -0.1009
  496ERGO    R5 5976   8.213   6.247   9.208 -0.1848 -0.1205 -0.0490
  496ERGO    C1 5977   8.433   6.467   8.987 -0.2398 -0.1360 -0.1194
  496ERGO    C2 5978   8.669   6.676   8.924 -0.0071  0.1211  0.0974
  497ERGO   ROH 5979  12.135   1.180   9.694  0.2603  0.2095 -0.1017
  497ERGO    R1 5980  12.040   1.299   9.455  0.0292  0.0612 -0.0877
  497ERGO    R2 5981  12.206   1.363   9.244 -0.0856  0.4098 -0.0864
  497ERGO    R3 5982  12.031   1.212   9.102  0.1981  0.0820 -0.0960
  497ERGO    R4 5983  12.162   1.382   8.902 -0.0507  0.2588 -0.0985
  497ERGO    R5 5984  11.947   1.360   8.934 -0.0204 -0.0977 -0.1431
  497ERGO    C1 5985  11.971   1.250   8.569  0.2358 -0.1368 -0.1145
  497ERGO    C2 5986  12.094   1.246   8.294  0.1981  0.0933  0.3117
  498ERGO   ROH 5987  11.909   4.931   9.324 -0.0039  0.1006  0.0215
  498ERGO    R1 5988  11.881   4.902   9.044  0.0757 -0.0214  0.0246
  498ERGO    R2 5989  11.848   4.656   8.922 -0.0324 -0.0674  0.1318
  498ERGO    R3 5990  11.629   4.776   8.815  0.0763  0.0180  0.0050
  498ERGO    R4 5991  11.655   4.524   8.668 -0.0064 -0.0310  0.0943
  498ERGO    R5 5992  11.640   4.724   8.582  0.1368 -0.0551  0.0291
  498ERGO    C1 5993  11.337   4.560   8.418  0.1108  0.0704 -0.0465
  498ERGO    C2 5994  11.136   4.453   8.187  0.1613 -0.1623  0.2473
  499ERGO   ROH 5995  14.436   5.104   9.484  0.1204 -0.1933  0.1386
  499ERGO    R1 5996  14.607   5.209   9.284  0.0259 -0.1595  0.0748
  499ERGO    R2 5997  14.779   5.051   9.137 -0.0018 -0.1265  0.0059
  499ERGO    R3 5998  14.653   5.166   8.926 -0.1030 -0.1450  0.0559
  499ERGO    R4 5999  14.882   5.024   8.809  0.0403  0.1281 -0.0039
  499ERGO    R5 6000  14.831   5.234   8.781 -0.1602  0.0953  0.0950
  499ERGO    C1 6001  14.823   5.116   8.418 -0.0300  0.2591  0.0374
  499ERGO    C2 6002  14.800   4.871   8.165  0.0055 -0.1766  0.4000
  500ERGO   ROH 6003  15.997  17.816  10.266  0.0018  0.1279  0.0355
  500ERGO    R1 6004  16.017  17.922  10.005 -0.0026 -0.0277 -0.0290
  500ERGO    R2 6005  16.259  17.988   9.890 -0.0206  0.1415  0.0247
  500ERGO    R3 6006  16.173  17.823   9.691  0.2249 -0.0845  0.0999
  500ERGO    R4 6007  16.310  18.043   9.552 -0.2393  0.1448 -0.0089
  500ERGO    R5 6008  16.106  17.973   9.515 -0.1223 -0.2572  0.0776
  500ERGO    C1 6009  16.258  17.921   9.169 -0.1360 -0.0655  0.0421
  500ERGO    C2 6010  16.435  17.776   8.973 -0.0798 -0.1229  0.4139
  501ERGO   ROH 6011  16.322   6.839   9.627 -0.0075  0.0693  0.1669
  501ERGO    R1 6012  16.236   6.912   9.367 -0.1220 -0.0388  0.1742
  501ERGO    R2 6013  16.051   7.112   9.322  0.0570  0.1237  0.1627
  501ERGO    R3 6014  16.246   7.211   9.160  0.0440 -0.2034 -0.0622
  501ERGO    R4 6015  16.003   7.357   9.084  0.2195  0.3390  0.3461
  501ERGO    R5 6016  16.135   7.246   8.950 -0.1874  0.1177  0.1035
  501ERGO    C1 6017  16.158   7.593   8.792  0.3018  0.1574  0.2419
  501ERGO    C2 6018  16.293   7.827   8.722 -0.1226 -0.2997  0.0231
  502ERGO   ROH 6019  13.777   8.655   9.534 -0.0062  0.3824  0.2014
  502ERGO    R1 6020  13.837   8.907   9.419  0.0857  0.2809  0.0242
  502ERGO    R2 6021  14.095   9.006   9.405  0.1130  0.2008  0.0059
  502ERGO    R3 6022  14.037   9.029   9.141  0.1796  0.0201 -0.0267
  502ERGO    R4 6023  14.283   9.184   9.177  0.0943  0.1656 -0.0382
  502ERGO    R5 6024  14.098   9.254   9.086  0.0839  0.0222 -0.1357
  502ERGO    C1 6025  14.339   9.310   8.796  0.1460 -0.0247 -0.0944
  502ERGO    C2 6026  14.618   9.541   8.543 -0.0290  0.2090  0.1007
  503ERGO   ROH 6027  11.622  10.993   9.652 -0.1724 -0.0371  0.2041
  503ERGO    R1 6028  11.486  11.197   9.511 -0.1793 -0.0146  0.2423
  503ERGO    R2 6029  11.464  11.198   9.236 -0.0033  0.1443  0.2252
  503ERGO    R3 6030  11.198  11.218   9.290 -0.0480 -0.0177  0.0703
  503ERGO    R4 6031  11.226  11.317   9.015  0.0592  0.0522  0.1078
  503ERGO    R5 6032  11.130  11.421   9.181 -0.0996 -0.0354  0.0714
  503ERGO    C1 6033  10.838  11.405   8.937  0.0536 -0.1535 -0.1059
  503ERGO    C2 6034  10.749  11.471   8.653 -0.2200 -0.0358  0.0015
  504ERGO   ROH 6035   2.697   6.942   9.900 -0.1923 -0.2806 -0.0139
  504ERGO    R1 6036   2.588   7.123   9.711 -0.3182 -0.2595  0.0781
  504ERGO    R2 6037   2.725   7.203   9.485 -0.2542  0.1739  0.2636
  504ERGO    R3 6038   2.501   7.116   9.357 -0.0241 -0.0471 -0.0026
  504ERGO    R4 6039   2.599   7.339   9.193 -0.2642  0.3345  0.3416
  504ERGO    R5 6040   2.399   7.317   9.275 -0.2969 -0.1049  0.1776
  504ERGO    C1 6041   2.316   7.337   8.903 -0.0539  0.2204  0.1371
  504ERGO    C2 6042   2.336   7.557   8.722  0.2345  0.0947  0.2695
  505ERGO   ROH 6043   2.883   2.996  10.033 -0.2934  0.1799 -0.1786
  505ERGO    R1 6044   3.001   3.042   9.780 -0.1540  0.0679 -0.1350
  505ERGO    R2 6045   3.099   2.837   9.622 -0.2167 -0.0185 -0.0618
  505ERGO    R3 6046   2.933   2.945   9.436 -0.0677  0.0618 -0.1505
  505ERGO    R4 6047   3.134   2.800   9.280 -0.2977 -0.3984 -0.0343
  505ERGO    R5 6048   3.078   3.009   9.256  0.0201 -0.3286 -0.2275
  505ERGO    C1 6049   3.000   2.880   8.906 -0.2049 -0.5443 -0.1015
  505ERGO    C2 6050   3.016   2.779   8.688  0.1837 -0.0024  0.0982
  506ERGO   ROH 6051  12.881   6.624   9.579  0.0501  0.0128 -0.0018
  506ERGO    R1 6052  12.756   6.726   9.347 -0.0020  0.0396  0.0370
  506ERGO    R2 6053  12.870   6.925   9.192 -0.0323  0.0550  0.0285
  506ERGO    R3 6054  12.834   6.745   8.992 -0.0821  0.0730  0.0219
  506ERGO    R4 6055  12.850   7.005   8.857 -0.0155  0.0676  0.0309
  506ERGO    R5 6056  12.691   6.857   8.836 -0.0521  0.1129  0.0270
  506ERGO    C1 6057  12.804   6.882   8.473 -0.0524  0.0919  0.0262
  506ERGO    C2 6058  12.814   7.020   8.153 -0.0665  0.0381 -0.0161
  507ERGO   ROH 6059  16.392  10.887   9.892 -0.0670  0.0516 -0.0431
  507ERGO    R1 6060  16.446  10.894   9.615  0.0937 -0.0643 -0.0159
  507ERGO    R2 6061  16.423  10.670   9.454  0.0274 -0.0946  0.0345
  507ERGO    R3 6062  16.261  10.832   9.308  0.2215 -0.0200 -0.1029
  507ERGO    R4 6063  16.338  10.618   9.123  0.0288 -0.2342  0.0559
  507ERGO    R5 6064  16.358  10.833   9.089  0.2616 -0.2744 -0.0891
  507ERGO    C1 6065  16.136  10.739   8.793  0.2120 -0.2457 -0.0607
  507ERGO    C2 6066  15.898  10.668   8.584 -0.3435 -0.0739 -0.2136
  508ERGO   ROH 6067   2.445   8.699  10.236 -0.1340  0.1649 -0.0855
  508ERGO    R1 6068   2.387   8.627   9.968 -0.1813  0.0552 -0.0471
  508ERGO    R2 6069   2.160   8.488   9.898 -0.2266  0.0720  0.0425
  508ERGO    R3 6070   2.123   8.696   9.727 -0.1944  0.0083 -0.0436
  508ERGO    R4 6071   2.017   8.463   9.584 -0.0623 -0.0507 -0.0242
  508ERGO    R5 6072   2.167   8.604   9.510 -0.0649 -0.0411  0.0077
  508ERGO    C1 6073   1.899   8.644   9.242  0.0637 -0.1819 -0.1438
  508ERGO    C2 6074   1.685   8.540   8.989 -0.0108  0.0505 -0.3096
  509ERGO   ROH 6075  13.983  12.306   9.433 -0.2003 -0.1532  0.0428
  509ERGO    R1 6076  13.971  12.115   9.224  0.0139 -0.1348  0.0112
  509ERGO    R2 6077  13.824  12.156   8.993 -0.0542 -0.2708  0.0317
  509ERGO    R3 6078  14.061  12.103   8.872  0.0037  0.0336  0.0010
  509ERGO    R4 6079  13.868  12.109   8.653 -0.0598 -0.3318  0.0391
  509ERGO    R5 6080  14.007  11.948   8.698  0.1906 -0.1147  0.0700
  509ERGO    C1 6081  14.117  12.032   8.342 -0.0089 -0.0815  0.0145
  509ERGO    C2 6082  14.189  11.995   8.035 -0.1224 -0.1045 -0.1919
  510ERGO   ROH 6083   4.436   4.646   9.347 -0.1251  0.1313  0.0294
  510ERGO    R1 6084   4.576   4.719   9.112 -0.0337  0.0819  0.0685
  510ERGO    R2 6085   4.499   4.635   8.861  0.0346  0.0714  0.0539
  510ERGO    R3 6086   4.501   4.901   8.806  0.1030  0.0656  0.0241
  510ERGO    R4 6087   4.501   4.772   8.543 -0.0406  0.0316  0.0357
  510ERGO    R5 6088   4.643   4.921   8.614  0.0387 -0.0057 -0.0338
  510ERGO    C1 6089   4.504   5.101   8.307 -0.0201  0.0030 -0.0031
  510ERGO    C2 6090   4.397   5.390   7.981 -0.1177  0.0608 -0.1463
  511ERGO   ROH 6091   7.053   1.342   9.719 -0.0063  0.1388 -0.0752
  511ERGO    R1 6092   7.009   1.119   9.551 -0.1358  0.0776  0.0360
  511ERGO    R2 6093   6.769   1.074   9.420 -0.1099  0.2449 -0.0804
  511ERGO    R3 6094   6.928   1.063   9.200  0.0158 -0.0489  0.0209
  511ERGO    R4 6095   6.675   0.945   9.114 -0.0883  0.2633 -0.0940
  511ERGO    R5 6096   6.873   0.855   9.096 -0.1978 -0.0104  0.0610
  511ERGO    C1 6097   6.770   0.860   8.729  0.0423 -0.0017 -0.0068
  511ERGO    C2 6098   6.808   0.715   8.380 -0.0480  0.2913  0.2447
  512ERGO   ROH 6099   2.884   1.906   9.925 -0.0521 -0.0660 -0.0717
  512ERGO    R1 6100   2.783   1.982   9.672  0.0341 -0.2356 -0.1586
  512ERGO    R2 6101   2.727   1.798   9.473 -0.1777 -0.4037  0.0482
  512ERGO    R3 6102   2.482   1.916   9.477 -0.0445 -0.1140 -0.0782
  512ERGO    R4 6103   2.530   1.851   9.194 -0.0139 -0.2404 -0.0392
  512ERGO    R5 6104   2.477   2.047   9.276  0.1830 -0.1570 -0.1130
  512ERGO    C1 6105   2.185   1.993   9.036  0.2065  0.1266 -0.2087
  512ERGO    C2 6106   1.973   1.855   8.764  0.3250 -0.0159  0.0761
  513ERGO   ROH 6107  11.620   0.221   9.570  0.0884  0.0075 -0.1058
  513ERGO    R1 6108  11.778   0.259   9.338  0.0186  0.0802 -0.1413
  513ERGO    R2 6109  11.805   0.065   9.144  0.1688  0.0421 -0.0803
  513ERGO    R3 6110  11.722   0.265   8.979 -0.0413 -0.0866 -0.1365
  513ERGO    R4 6111  11.793   0.044   8.799 -0.0398 -0.1506 -0.0648
  513ERGO    R5 6112  11.868   0.249   8.789 -0.1506 -0.1128 -0.2219
  513ERGO    C1 6113  11.710   0.219   8.443 -0.3585 -0.3837 -0.1083
  513ERGO    C2 6114  11.745   0.199   8.071  0.1234 -0.1714  0.0571
  514ERGO   ROH 6115   5.480   6.477   9.795 -0.0706  0.2452 -0.1809
  514ERGO    R1 6116   5.434   6.528   9.521  0.0717  0.2096 -0.2131
  514ERGO    R2 6117   5.623   6.647   9.358  0.2054  0.0790 -0.1632
  514ERGO    R3 6118   5.583   6.426   9.204  0.1563  0.0633 -0.1261
  514ERGO    R4 6119   5.629   6.642   9.012  0.0562  0.0423 -0.1651
  514ERGO    R5 6120   5.459   6.506   9.016  0.0710  0.0322 -0.0799
  514ERGO    C1 6121   5.594   6.432   8.667 -0.0768  0.0063 -0.1314
  514ERGO    C2 6122   5.711   6.502   8.439 -0.0275 -0.2772 -0.1105
  515ERGO   ROH 6123  18.163   2.710   9.374  0.2328  0.1879 -0.1516
  515ERGO    R1 6124  17.929   2.562   9.317  0.2330  0.1078  0.0474
  515ERGO    R2 6125  17.826   2.538   9.062 -0.0309  0.1542  0.1446
  515ERGO    R3 6126  17.842   2.272   9.115  0.1426  0.1414  0.0381
  515ERGO    R4 6127  17.759   2.287   8.834  0.1054  0.1985  0.0546
  515ERGO    R5 6128  17.659   2.176   8.993  0.1917  0.0725  0.0206
  515ERGO    C1 6129  17.735   1.891   8.751  0.3478  0.2123 -0.0978
  515ERGO    C2 6130  17.708   1.734   8.539  0.2195  0.1389  0.2014
  516ERGO   ROH 6131   9.044  16.881   9.393 -0.3481  0.1674  0.2385
  516ERGO    R1 6132   8.966  17.023   9.161 -0.0542  0.0179  0.0441
  516ERGO    R2 6133   9.026  17.290   9.122 -0.0053 -0.0150 -0.0519
  516ERGO    R3 6134   9.134  17.199   8.890  0.2880 -0.1590  0.1314
  516ERGO    R4 6135   9.152  17.491   8.871 -0.2959 -0.1181 -0.2876
  516ERGO    R5 6136   9.061  17.357   8.725  0.0324 -0.5351 -0.1433
  516ERGO    C1 6137   9.326  17.523   8.506 -0.1898 -0.3132 -0.2527
  516ERGO    C2 6138   9.628  17.587   8.240  0.0403  0.2831 -0.0245
  517ERGO   ROH 6139   9.910   7.552  10.183 -0.1442  0.1239  0.0850
  517ERGO    R1 6140   9.917   7.378   9.960  0.1370  0.1569  0.0652
  517ERGO    R2 6141   9.688   7.287   9.834  0.2792 -0.1802  0.0406
  517ERGO    R3 6142   9.809   7.388   9.613  0.1418  0.0315  0.0592
  517ERGO    R4 6143   9.640   7.171   9.512  0.2460 -0.0196 -0.0134
  517ERGO    R5 6144   9.854   7.197   9.476  0.2200  0.1390 -0.0704
  517ERGO    C1 6145   9.726   7.199   9.117  0.0977  0.2727 -0.0274
  517ERGO    C2 6146   9.552   7.021   8.818 -0.1736 -0.0996  0.0703
  518ERGO   ROH 6147   6.890   7.519  10.201  0.0061  0.1054  0.0849
  518ERGO    R1 6148   6.779   7.597   9.953 -0.0182 -0.0210  0.0569
  518ERGO    R2 6149   6.728   7.861   9.889 -0.1699 -0.0716 -0.0085
  518ERGO    R3 6150   6.880   7.804   9.672 -0.1197 -0.0275  0.0129
  518ERGO    R4 6151   6.710   8.027   9.587 -0.3643 -0.2384 -0.0919
  518ERGO    R5 6152   6.733   7.835   9.486 -0.1705 -0.2746  0.0031
  518ERGO    C1 6153   6.843   8.070   9.206 -0.4304 -0.2940 -0.1204
  518ERGO    C2 6154   6.772   8.248   8.888 -0.1451  0.1697 -0.2357
  519ERGO   ROH 6155  16.767   4.046   9.217  0.1951  0.1482  0.1505
  519ERGO    R1 6156  16.722   3.991   8.942  0.0809 -0.0255  0.2025
  519ERGO    R2 6157  16.815   4.156   8.740 -0.1693 -0.0500  0.0663
  519ERGO    R3 6158  16.928   3.926   8.649 -0.0343 -0.0047  0.1157
  519ERGO    R4 6159  16.919   4.102   8.416 -0.3007 -0.1158  0.0340
  519ERGO    R5 6160  16.840   3.900   8.428 -0.1346 -0.1771  0.1727
  519ERGO    C1 6161  17.086   3.855   8.141 -0.2505 -0.1117  0.0615
  519ERGO    C2 6162  17.387   3.835   8.012 -0.1242  0.2215  0.0563
  520ERGO   ROH 6163   6.350   2.980   9.664 -0.2397 -0.0747  0.0440
  520ERGO    R1 6164   6.220   2.982   9.412 -0.0429 -0.0049 -0.0584
  520ERGO    R2 6165   6.330   3.102   9.189  0.1691 -0.0152  0.0429
  520ERGO    R3 6166   6.290   2.857   9.078  0.1774  0.0118 -0.0215
  520ERGO    R4 6167   6.203   3.048   8.872 -0.1833  0.0679  0.1651
  520ERGO    R5 6168   6.087   2.881   8.953  0.0060 -0.0406  0.2326
  520ERGO    C1 6169   6.091   2.787   8.583 -0.3807  0.1417  0.1759
  520ERGO    C2 6170   5.916   2.643   8.248  0.4769  0.0825  0.2958
  521ERGO   ROH 6171  18.207   9.905  10.155  0.0812  0.0077  0.1303
  521ERGO    R1 6172  18.225  10.030   9.901  0.0382 -0.0923  0.0761
  521ERGO    R2 6173  18.231   9.887   9.665 -0.0684 -0.1857  0.1230
  521ERGO    R3 6174  18.022  10.047   9.600 -0.0479 -0.1577  0.1317
  521ERGO    R4 6175  18.109   9.933   9.345 -0.1338 -0.2295  0.1427
  521ERGO    R5 6176  18.084  10.144   9.390 -0.0793 -0.2185  0.0984
  521ERGO    C1 6177  17.840  10.110   9.098 -0.1528 -0.2286  0.1624
  521ERGO    C2 6178  17.862  10.027   8.781 -0.0949  0.3092 -0.1215
  522ERGO   ROH 6179   5.122   0.662   9.989 -0.0303 -0.2183  0.0389
  522ERGO    R1 6180   5.077   0.662   9.710  0.1687  0.0888  0.0016
  522ERGO    R2 6181   5.260   0.762   9.529  0.4348  0.0105  0.2208
  522ERGO    R3 6182   5.234   0.516   9.416  0.1894  0.1383 -0.0118
  522ERGO    R4 6183   5.409   0.664   9.233  0.3463  0.1348  0.1345
  522ERGO    R5 6184   5.225   0.559   9.181  0.2410  0.3682  0.0269
  522ERGO    C1 6185   5.471   0.376   8.954  0.0645  0.3271 -0.1342
  522ERGO    C2 6186   5.633   0.324   8.623  0.1701 -0.0465  0.0550
  523ERGO   ROH 6187  12.932   4.313   9.268  0.0981 -0.3895 -0.0326
  523ERGO    R1 6188  12.952   4.325   8.986  0.0845 -0.2696 -0.0291
  523ERGO    R2 6189  13.019   4.557   8.851  0.0302 -0.1979  0.0610
  523ERGO    R3 6190  13.212   4.399   8.742  0.0592 -0.1137 -0.0082
  523ERGO    R4 6191  13.202   4.634   8.568  0.0682 -0.0213  0.1321
  523ERGO    R5 6192  13.184   4.426   8.506  0.0965  0.0202  0.0067
  523ERGO    C1 6193  13.488   4.531   8.300  0.1175  0.1606  0.1086
  523ERGO    C2 6194  13.810   4.576   8.265  0.5132 -0.1640  0.0554
  524ERGO   ROH 6195  10.928  13.193  10.107 -0.0834  0.4086  0.0009
  524ERGO    R1 6196  11.137  13.127   9.928 -0.0592  0.1876  0.1053
  524ERGO    R2 6197  11.093  12.991   9.692 -0.0561  0.0624  0.1707
  524ERGO    R3 6198  11.223  13.204   9.582  0.0873 -0.0679  0.0847
  524ERGO    R4 6199  11.311  12.973   9.424 -0.1181 -0.1695  0.1340
  524ERGO    R5 6200  11.439  13.118   9.525  0.0097 -0.2421  0.0648
  524ERGO    C1 6201  11.560  13.162   9.165 -0.0196 -0.4266  0.0319
  524ERGO    C2 6202  11.766  13.155   8.859  0.0059  0.1658  0.2350
  525ERGO   ROH 6203   8.704  17.256   9.413 -0.2659  0.0479  0.0795
  525ERGO    R1 6204   8.556  17.225   9.174 -0.1104  0.0362 -0.0173
  525ERGO    R2 6205   8.567  17.408   8.967  0.0279  0.0261 -0.0239
  525ERGO    R3 6206   8.630  17.189   8.820  0.1239  0.0151  0.0336
  525ERGO    R4 6207   8.582  17.400   8.622 -0.0369 -0.0835 -0.0243
  525ERGO    R5 6208   8.488  17.203   8.628  0.0793 -0.1329  0.0581
  525ERGO    C1 6209   8.650  17.189   8.283  0.0156 -0.1574  0.0295
  525ERGO    C2 6210   8.585  17.299   7.901  0.4932 -0.3795  0.1320
  526ERGO   ROH 6211   1.813  10.360  10.120  0.0454  0.0032  0.0123
  526ERGO    R1 6212   1.903  10.232   9.884 -0.0426 -0.1127  0.0416
  526ERGO    R2 6213   1.734  10.086   9.721 -0.1898  0.1390 -0.0335
  526ERGO    R3 6214   1.830  10.252   9.528  0.1298  0.0157  0.0125
  526ERGO    R4 6215   1.731  10.018   9.382 -0.1687  0.1696 -0.0406
  526ERGO    R5 6216   1.931  10.105   9.368 -0.0282 -0.1242  0.0382
  526ERGO    C1 6217   1.820  10.134   9.004  0.1435  0.0715 -0.0016
  526ERGO    C2 6218   1.657  10.000   8.749  0.2920 -0.1168 -0.1068
  527ERGO   ROH 6219   2.095  15.456   9.648 -0.1501 -0.1407 -0.0340
  527ERGO    R1 6220   2.322  15.475   9.479 -0.1243  0.0020  0.0154
  527ERGO    R2 6221   2.534  15.299   9.495 -0.0430  0.0995  0.0227
  527ERGO    R3 6222   2.484  15.265   9.230  0.0265  0.1294  0.0048
  527ERGO    R4 6223   2.769  15.201   9.261  0.0631  0.3079  0.0394
  527ERGO    R5 6224   2.683  15.345   9.122 -0.0058  0.2851  0.0584
  527ERGO    C1 6225   2.859  15.112   8.876  0.1902  0.4571  0.0324
  527ERGO    C2 6226   3.069  15.009   8.792 -0.0402 -0.0930 -0.0587
  528ERGO   ROH 6227  10.164  14.371   9.844 -0.0483 -0.1586  0.0693
  528ERGO    R1 6228  10.281  14.460   9.602  0.0319 -0.1383  0.1161
  528ERGO    R2 6229  10.390  14.286   9.417 -0.1039 -0.1385  0.0404
  528ERGO    R3 6230  10.220  14.413   9.246  0.0063  0.0807  0.0894
  528ERGO    R4 6231  10.405  14.267   9.072 -0.2668 -0.2220  0.0364
  528ERGO    R5 6232  10.359  14.480   9.063  0.0355 -0.1496  0.0217
  528ERGO    C1 6233  10.255  14.375   8.711 -0.2583 -0.0649  0.0800
  528ERGO    C2 6234  10.244  14.503   8.343 -0.1163 -0.0170 -0.1106
  529ERGO   ROH 6235  17.709  15.488  10.303  0.1886  0.0269  0.0961
  529ERGO    R1 6236  17.618  15.341  10.079  0.0866  0.1430  0.0602
  529ERGO    R2 6237  17.534  15.463   9.845  0.0673  0.2618  0.1254
  529ERGO    R3 6238  17.718  15.298   9.732 -0.0112  0.2474  0.0189
  529ERGO    R4 6239  17.551  15.388   9.509 -0.1431  0.2419  0.1186
  529ERGO    R5 6240  17.597  15.181   9.562 -0.1204  0.2445  0.1002
  529ERGO    C1 6241  17.733  15.189   9.206 -0.3393  0.2168  0.0148
  529ERGO    C2 6242  17.580  15.098   8.892 -0.4732  0.0615  0.3053
  530ERGO   ROH 6243  13.064  13.030   9.901  0.1629  0.1526  0.0082
  530ERGO    R1 6244  12.977  12.996   9.634  0.1644 -0.0297  0.0299
  530ERGO    R2 6245  12.854  13.197   9.491  0.0658 -0.1624 -0.0710
  530ERGO    R3 6246  13.050  13.146   9.311  0.0785 -0.1687 -0.0557
  530ERGO    R4 6247  12.849  13.297   9.160  0.1468 -0.0520 -0.0398
  530ERGO    R5 6248  12.933  13.103   9.106  0.0935 -0.0649 -0.0888
  530ERGO    C1 6249  13.030  13.307   8.798  0.2062  0.0063 -0.0074
  530ERGO    C2 6250  13.085  13.558   8.425  0.0277  0.0457  0.1473
  531ERGO   ROH 6251   8.740   2.905   9.657  0.0125 -0.3760 -0.1035
  531ERGO    R1 6252   8.654   2.864   9.391  0.0300 -0.1520 -0.1452
  531ERGO    R2 6253   8.574   3.071   9.226  0.0838 -0.0107  0.0118
  531ERGO    R3 6254   8.762   2.967   9.059  0.0773  0.0877 -0.0590
  531ERGO    R4 6255   8.562   3.087   8.881 -0.1764 -0.1990  0.0091
  531ERGO    R5 6256   8.636   2.882   8.874  0.0260 -0.1369  0.0700
  531ERGO    C1 6257   8.730   2.999   8.523 -0.3340 -0.2163 -0.0589
  531ERGO    C2 6258   8.892   3.111   8.227 -0.2474  0.0373 -0.3864
  532ERGO   ROH 6259  13.475  16.342   9.981  0.2150 -0.0600 -0.0425
  532ERGO    R1 6260  13.478  16.174   9.753  0.1233 -0.0825 -0.0276
  532ERGO    R2 6261  13.338  16.234   9.522 -0.0083 -0.1295  0.0392
  532ERGO    R3 6262  13.581  16.202   9.405 -0.0644 -0.1004 -0.0860
  532ERGO    R4 6263  13.387  16.121   9.199 -0.1588 -0.2902  0.0710
  532ERGO    R5 6264  13.557  16.004   9.272 -0.0695 -0.1854  0.0380
  532ERGO    C1 6265  13.644  16.026   8.901 -0.2991 -0.3561 -0.0282
  532ERGO    C2 6266  13.593  16.167   8.608  0.4717  0.0925  0.0739
  533ERGO   ROH 6267   4.848  10.986  10.142 -0.1040  0.0698 -0.1415
  533ERGO    R1 6268   4.740  10.825   9.936 -0.2437  0.2174 -0.1865
  533ERGO    R2 6269   4.559  10.921   9.750  0.0678  0.5115 -0.3499
  533ERGO    R3 6270   4.741  10.826   9.572  0.0385  0.1395 -0.1886
  533ERGO    R4 6271   4.531  10.948   9.407  0.2314  0.2079 -0.3903
  533ERGO    R5 6272   4.607  10.745   9.390  0.0216  0.1040 -0.1606
  533ERGO    C1 6273   4.684  10.874   9.039  0.2992 -0.3182 -0.2624
  533ERGO    C2 6274   4.689  11.066   8.771 -0.0045  0.5882 -0.0258
  534ERGO   ROH 6275   9.713  11.363   9.641 -0.0608 -0.1691 -0.0111
  534ERGO    R1 6276   9.830  11.380   9.385  0.0272 -0.1933  0.0283
  534ERGO    R2 6277   9.948  11.164   9.261 -0.2189 -0.2838 -0.0417
  534ERGO    R3 6278   9.778  11.227   9.059 -0.0859  0.0322 -0.0638
  534ERGO    R4 6279   9.946  11.012   8.950 -0.1832  0.0018 -0.1854
  534ERGO    R5 6280   9.911  11.208   8.860 -0.0012  0.1209 -0.0223
  534ERGO    C1 6281   9.784  10.983   8.579 -0.0377  0.4647 -0.2899
  534ERGO    C2 6282   9.720  10.781   8.292 -0.2505 -0.1697 -0.3291
  535ERGO   ROH 6283  10.506   4.702   9.391  0.0685 -0.1974 -0.0189
  535ERGO    R1 6284  10.524   4.894   9.184  0.0119 -0.0746  0.0868
  535ERGO    R2 6285  10.720   4.886   8.990  0.1172  0.1827  0.1669
  535ERGO    R3 6286  10.508   4.894   8.821  0.1834  0.0913  0.0797
  535ERGO    R4 6287  10.690   5.101   8.721  0.0525  0.2713  0.2455
  535ERGO    R5 6288  10.479   5.126   8.771  0.0171  0.0843  0.1657
  535ERGO    C1 6289  10.473   5.232   8.405  0.0770  0.2370  0.2095
  535ERGO    C2 6290  10.521   5.300   8.089  0.1194  0.2172 -0.0236
  536ERGO   ROH 6291   7.930  11.454  10.232 -0.2154  0.1091  0.0605
  536ERGO    R1 6292   7.992  11.349   9.977 -0.0281  0.2351  0.0521
  536ERGO    R2 6293   7.854  11.137   9.866  0.2502  0.0903 -0.0250
  536ERGO    R3 6294   7.820  11.309   9.658  0.0924  0.0950  0.0031
  536ERGO    R4 6295   7.763  11.045   9.545  0.0689  0.0891  0.0258
  536ERGO    R5 6296   7.905  11.191   9.468 -0.0029  0.1183 -0.0554
  536ERGO    C1 6297   7.678  11.153   9.164 -0.1848  0.0927  0.0815
  536ERGO    C2 6298   7.650  10.960   8.839  0.0507 -0.3855  0.3708
  537ERGO   ROH 6299  15.835   2.476   9.612  0.2218 -0.0719  0.1054
  537ERGO    R1 6300  15.960   2.613   9.398  0.0104 -0.1175 -0.0498
  537ERGO    R2 6301  16.217   2.714   9.415 -0.0613  0.0977 -0.2424
  537ERGO    R3 6302  16.254   2.567   9.190 -0.0514 -0.0236 -0.1622
  537ERGO    R4 6303  16.483   2.748   9.198 -0.0971  0.0574 -0.2928
  537ERGO    R5 6304  16.346   2.721   9.032 -0.1169 -0.0803 -0.2626
  537ERGO    C1 6305  16.674   2.629   8.860 -0.1088 -0.0801 -0.2467
  537ERGO    C2 6306  16.849   2.524   8.773  0.0287  0.1593 -0.1754
  538ERGO   ROH 6307  10.401  12.492   9.513  0.0028 -0.1010 -0.1498
  538ERGO    R1 6308  10.188  12.517   9.328  0.0528 -0.1996 -0.2222
  538ERGO    R2 6309  10.051  12.754   9.290 -0.1630 -0.3071 -0.1370
  538ERGO    R3 6310  10.119  12.714   9.030 -0.0143 -0.0895 -0.1346
  538ERGO    R4 6311   9.833  12.776   9.023 -0.0086 -0.0724 -0.2472
  538ERGO    R5 6312   9.929  12.602   8.936  0.0340 -0.0032 -0.3399
  538ERGO    C1 6313   9.769  12.751   8.623  0.2209  0.2684 -0.3092
  538ERGO    C2 6314   9.548  12.688   8.276 -0.0461  0.1718  0.3270
  539ERGO   ROH 6315   9.354   3.861   9.717  0.1004 -0.0070  0.0204
  539ERGO    R1 6316   9.327   3.726   9.470 -0.0127 -0.0313  0.0440
  539ERGO    R2 6317   9.241   3.852   9.240  0.0161 -0.0180  0.0350
  539ERGO    R3 6318   9.472   3.753   9.137 -0.0513 -0.1569  0.0178
  539ERGO    R4 6319   9.304   3.808   8.903 -0.0702 -0.1632  0.0381
  539ERGO    R5 6320   9.402   3.619   8.951 -0.1466 -0.1874  0.0797
  539ERGO    C1 6321   9.558   3.688   8.610 -0.1839 -0.3781  0.0239
  539ERGO    C2 6322   9.478   3.645   8.305 -0.0749  0.0880 -0.1150
  540ERGO   ROH 6323   6.270  14.457   9.660 -0.0361 -0.3966  0.0576
  540ERGO    R1 6324   6.243  14.370   9.392  0.0287 -0.2190 -0.0073
  540ERGO    R2 6325   6.302  14.533   9.176  0.2086 -0.1194  0.1173
  540ERGO    R3 6326   6.463  14.326   9.105  0.1248 -0.1656  0.0569
  540ERGO    R4 6327   6.401  14.461   8.853  0.1275 -0.1011  0.0874
  540ERGO    R5 6328   6.374  14.249   8.897  0.0604 -0.1007  0.0584
  540ERGO    C1 6329   6.611  14.225   8.599  0.0016 -0.1337  0.0131
  540ERGO    C2 6330   6.704  14.452   8.412  0.0624  0.0935 -0.2013
  541ERGO   ROH 6331  13.820   3.939   9.447  0.1438  0.0105  0.0495
  541ERGO    R1 6332  13.807   3.939   9.164  0.1564 -0.0470  0.0487
  541ERGO    R2 6333  14.031   3.916   9.005  0.1649 -0.0775  0.0621
  541ERGO    R3 6334  13.894   3.709   8.896  0.1708 -0.1013  0.1001
  541ERGO    R4 6335  14.144   3.720   8.743  0.0715  0.0208 -0.0528
  541ERGO    R5 6336  13.942   3.722   8.661  0.0205 -0.0316  0.0730
  541ERGO    C1 6337  14.080   3.411   8.489  0.0227  0.0559 -0.0840
  541ERGO    C2 6338  14.178   3.197   8.297  0.3086 -0.0854  0.0549
  542ERGO   ROH 6339   7.882  11.887   9.974 -0.1379  0.0869  0.0041
  542ERGO    R1 6340   7.763  11.731   9.770 -0.1185 -0.0212  0.0728
  542ERGO    R2 6341   7.562  11.829   9.607 -0.0970 -0.1014 -0.0097
  542ERGO    R3 6342   7.731  11.751   9.408 -0.0709 -0.2153  0.0580
  542ERGO    R4 6343   7.462  11.692   9.305 -0.0566 -0.2038  0.0241
  542ERGO    R5 6344   7.629  11.553   9.318 -0.0887 -0.2298  0.1160
  542ERGO    C1 6345   7.561  11.539   8.943 -0.0086 -0.3703  0.1074
  542ERGO    C2 6346   7.345  11.466   8.608 -0.1143 -0.0923  0.2401
  543ERGO   ROH 6347  15.883  10.953   9.698 -0.0828 -0.0495 -0.0019
  543ERGO    R1 6348  15.718  10.911   9.472 -0.1509 -0.0524  0.0482
  543ERGO    R2 6349  15.811  10.794   9.239 -0.1760  0.1014 -0.0393
  543ERGO    R3 6350  15.603  10.625   9.279 -0.0594 -0.0408 -0.0240
  543ERGO    R4 6351  15.657  10.609   8.991 -0.0632 -0.0123 -0.0259
  543ERGO    R5 6352  15.465  10.653   9.085 -0.0891 -0.1402 -0.0179
  543ERGO    C1 6353  15.371  10.342   8.885  0.1120 -0.2119 -0.0039
  543ERGO    C2 6354  15.160  10.222   8.650 -0.3144  0.1779 -0.0336
  544ERGO   ROH 6355   5.027   3.572   9.739  0.1249  0.2528 -0.0723
  544ERGO    R1 6356   4.859   3.559   9.511  0.0381  0.1293 -0.0042
  544ERGO    R2 6357   4.842   3.765   9.327 -0.1012  0.0743 -0.0637
  544ERGO    R3 6358   4.903   3.568   9.150 -0.1008  0.0366 -0.0229
  544ERGO    R4 6359   4.843   3.801   8.983 -0.3131 -0.0655 -0.0797
  544ERGO    R5 6360   4.753   3.603   8.967 -0.2202 -0.1155  0.0478
  544ERGO    C1 6361   4.901   3.636   8.617 -0.4361 -0.1823 -0.0507
  544ERGO    C2 6362   4.835   3.554   8.318 -0.0189  0.0301 -0.1559
  545ERGO   ROH 6363  15.977  16.052  10.217 -0.0374  0.0574 -0.0868
  545ERGO    R1 6364  15.992  16.019   9.936 -0.1808  0.0095 -0.0908
  545ERGO    R2 6365  15.790  16.101   9.766 -0.1456  0.2534 -0.0292
  545ERGO    R3 6366  15.991  16.236   9.644 -0.0100 -0.0136 -0.1070
  545ERGO    R4 6367  15.784  16.212   9.439 -0.0490  0.1304 -0.0725
  545ERGO    R5 6368  15.993  16.153   9.420 -0.1184 -0.1020 -0.0707
  545ERGO    C1 6369  15.970  16.404   9.134  0.1347 -0.1917 -0.1707
  545ERGO    C2 6370  15.860  16.402   8.896  0.2865  0.2025 -0.1231
  546ERGO   ROH 6371   0.187  13.947  10.062 -0.2243 -0.0653 -0.0052
  546ERGO    R1 6372   0.194  13.843   9.799 -0.3181 -0.0020 -0.0329
  546ERGO    R2 6373   0.037  13.944   9.594 -0.1196  0.2954 -0.0437
  546ERGO    R3 6374   0.275  13.968   9.467 -0.0474 -0.0278  0.0209
  546ERGO    R4 6375   0.080  13.930   9.252 -0.0758  0.3990 -0.0427
  546ERGO    R5 6376   0.261  13.814   9.284 -0.2654  0.0822 -0.0610
  546ERGO    C1 6377   0.329  13.944   8.932  0.0174  0.1559  0.0184
  546ERGO    C2 6378   0.388  13.923   8.722  0.1450 -0.0608 -0.0231
  547ERGO   ROH 6379  14.230  14.145   9.849 -0.3268 -0.1436 -0.0204
  547ERGO    R1 6380  14.221  14.058   9.580 -0.2139 -0.0219 -0.0656
  547ERGO    R2 6381  14.052  14.170   9.393 -0.2989 -0.0834 -0.0332
  547ERGO    R3 6382  14.282  14.204   9.252 -0.3080  0.1988  0.0150
  547ERGO    R4 6383  14.069  14.207   9.050 -0.2588 -0.0958 -0.0322
  547ERGO    R5 6384  14.246  14.080   9.050 -0.0965  0.1341  0.0204
  547ERGO    C1 6385  14.296  14.261   8.718 -0.2442  0.1620  0.0137
  547ERGO    C2 6386  14.350  14.426   8.508 -0.0160 -0.1215  0.3328
  548ERGO   ROH 6387   8.381  18.122   9.670 -0.1297  0.2926  0.0351
  548ERGO    R1 6388   8.360  18.208   9.401 -0.0284  0.2761  0.0229
  548ERGO    R2 6389   8.555  18.360   9.278  0.1637  0.0063 -0.0054
  548ERGO    R3 6390   8.549  18.161   9.093 -0.0963 -0.0163  0.0213
  548ERGO    R4 6391   8.603  18.405   8.938  0.2874 -0.1043 -0.0043
  548ERGO    R5 6392   8.443  18.260   8.902  0.0762  0.1181 -0.0106
  548ERGO    C1 6393   8.626  18.244   8.567  0.1153 -0.1898  0.0213
  548ERGO    C2 6394   8.612  18.528   8.328  0.3219 -0.2779  0.0009
  549ERGO   ROH 6395   7.269  14.354   9.622  0.0234  0.2281  0.0144
  549ERGO    R1 6396   7.373  14.360   9.358  0.1213  0.0409  0.0443
  549ERGO    R2 6397   7.573  14.188   9.273  0.0840 -0.1107  0.2290
  549ERGO    R3 6398   7.393  14.130   9.077  0.1035 -0.1416  0.1809
  549ERGO    R4 6399   7.650  14.044   8.968  0.1376 -0.2455  0.3059
  549ERGO    R5 6400   7.509  14.179   8.874  0.1848 -0.2316  0.1941
  549ERGO    C1 6401   7.527  13.907   8.608  0.1872 -0.3530  0.3056
  549ERGO    C2 6402   7.436  13.841   8.292  0.0005 -0.2547 -0.0834
  550ERGO   ROH 6403  15.248  14.401  10.156  0.2858  0.0068 -0.0274
  550ERGO    R1 6404  15.297  14.459   9.884  0.1158  0.0785 -0.0430
  550ERGO    R2 6405  15.420  14.280   9.713  0.0801  0.1543 -0.1467
  550ERGO    R3 6406  15.198  14.321   9.562 -0.0170  0.1126 -0.0175
  550ERGO    R4 6407  15.393  14.203   9.377 -0.1426  0.0416 -0.1052
  550ERGO    R5 6408  15.282  14.389   9.349 -0.1525  0.0368 -0.0969
  550ERGO    C1 6409  15.168  14.196   9.040 -0.3634 -0.0633  0.0402
  550ERGO    C2 6410  15.133  14.126   8.703  0.0106 -0.0320  0.0364
  551ERGO   ROH 6411  14.855   9.566  10.055  0.1174 -0.3663  0.0599
  551ERGO    R1 6412  14.938   9.529   9.786  0.0782 -0.2779  0.0350
  551ERGO    R2 6413  15.135   9.682   9.668 -0.0028 -0.1773  0.0274
  551ERGO    R3 6414  15.246   9.440   9.614  0.0783 -0.1245 -0.0455
  551ERGO    R4 6415  15.327   9.611   9.390  0.0852 -0.0099  0.0440
  551ERGO    R5 6416  15.227   9.418   9.377  0.1426 -0.0328 -0.0596
  551ERGO    C1 6417  15.543   9.342   9.178  0.2126  0.1373 -0.0149
  551ERGO    C2 6418  15.747   9.324   8.920  0.3407 -0.0443 -0.1795
  552ERGO   ROH 6419   8.957  13.717   9.423 -0.1267  0.0869 -0.0580
  552ERGO    R1 6420   9.018  13.597   9.174 -0.0869 -0.0078 -0.0033
  552ERGO    R2 6421   8.885  13.662   8.940 -0.0373 -0.0819 -0.0553
  552ERGO    R3 6422   9.137  13.708   8.848 -0.0155 -0.1328 -0.0197
  552ERGO    R4 6423   8.977  13.667   8.607 -0.0027 -0.0129 -0.0444
  552ERGO    R5 6424   9.160  13.562   8.660 -0.0417 -0.0834 -0.0592
  552ERGO    C1 6425   9.267  13.713   8.327  0.0378 -0.0205 -0.0048
  552ERGO    C2 6426   9.624  13.764   8.143  0.1487  0.0481  0.1106
  553ERGO   ROH 6427  10.477  16.418   9.323 -0.1226 -0.0200 -0.1440
  553ERGO    R1 6428  10.574  16.276   9.098 -0.1491 -0.0644 -0.1281
  553ERGO    R2 6429  10.551  16.373   8.840 -0.0785 -0.0617 -0.1347
  553ERGO    R3 6430  10.820  16.333   8.835 -0.0931 -0.1668 -0.0985
  553ERGO    R4 6431  10.747  16.388   8.557 -0.0081  0.0446 -0.0803
  553ERGO    R5 6432  10.859  16.216   8.630 -0.0944 -0.0488 -0.1667
  553ERGO    C1 6433  11.114  16.360   8.387  0.0192  0.0079 -0.0148
  553ERGO    C2 6434  11.201  16.525   8.112 -0.0157 -0.2925 -0.1228
  554ERGO   ROH 6435  15.898   6.075   9.430  0.0426  0.1635 -0.1155
  554ERGO    R1 6436  15.860   6.079   9.149 -0.0483 -0.0782 -0.1091
  554ERGO    R2 6437  16.043   6.191   8.976 -0.3194  0.1988 -0.2268
  554ERGO    R3 6438  16.032   5.947   8.858  0.1429  0.0964 -0.0772
  554ERGO    R4 6439  16.026   6.137   8.635 -0.3292 -0.0379 -0.1898
  554ERGO    R5 6440  15.883   5.976   8.673  0.0093 -0.3178 -0.0461
  554ERGO    C1 6441  16.006   5.875   8.326  0.0991 -0.2719 -0.0277
  554ERGO    C2 6442  16.045   5.598   8.130 -0.0556 -0.4058  0.0288
  555ERGO   ROH 6443   4.699  14.524   9.991 -0.2572  0.1458 -0.0113
  555ERGO    R1 6444   4.772  14.409   9.744 -0.0553  0.1319  0.0530
  555ERGO    R2 6445   4.640  14.191   9.636  0.1004  0.0579  0.0077
  555ERGO    R3 6446   4.614  14.354   9.420  0.1668  0.0100 -0.0368
  555ERGO    R4 6447   4.550  14.086   9.319 -0.2405  0.0498  0.1044
  555ERGO    R5 6448   4.697  14.224   9.237 -0.1168 -0.1673 -0.0445
  555ERGO    C1 6449   4.472  14.179   8.932 -0.3767  0.0001  0.1189
  555ERGO    C2 6450   4.258  14.145   8.632  0.0233 -0.2260  0.0178
  556ERGO   ROH 6451  13.294  17.854   9.400  0.1148  0.1311 -0.0108
  556ERGO    R1 6452  13.515  17.821   9.227  0.1332  0.0302  0.0313
  556ERGO    R2 6453  13.741  17.680   9.300  0.0397 -0.1107  0.0566
  556ERGO    R3 6454  13.690  17.542   9.072  0.0071 -0.0458  0.0279
  556ERGO    R4 6455  13.973  17.489   9.129  0.0258 -0.0234 -0.0596
  556ERGO    R5 6456  13.890  17.565   8.942 -0.0292  0.0218 -0.0125
  556ERGO    C1 6457  14.060  17.248   8.815 -0.0129  0.0885 -0.1542
  556ERGO    C2 6458  14.316  17.162   8.773  0.2157 -0.1153  0.1693
  557ERGO   ROH 6459   6.011   3.750   9.818  0.1714 -0.1313 -0.0635
  557ERGO    R1 6460   5.911   3.740   9.553 -0.0690  0.0720  0.0165
  557ERGO    R2 6461   5.774   3.951   9.438  0.3599  0.4049  0.0984
  557ERGO    R3 6462   5.963   3.924   9.244  0.1518 -0.1018 -0.0545
  557ERGO    R4 6463   5.722   4.012   9.102  0.2056  0.3854  0.1176
  557ERGO    R5 6464   5.843   3.837   9.056 -0.2162  0.0803  0.0798
  557ERGO    C1 6465   5.869   4.023   8.724 -0.0796 -0.1016 -0.0148
  557ERGO    C2 6466   5.776   4.117   8.524 -0.3587  0.1365  0.0232
  558ERGO   ROH 6467  17.602   6.618   9.794  0.1007 -0.1123  0.1081
  558ERGO    R1 6468  17.533   6.771   9.566  0.1160 -0.1199  0.0988
  558ERGO    R2 6469  17.560   6.675   9.308  0.0312 -0.1674  0.1100
  558ERGO    R3 6470  17.297   6.743   9.290  0.0534 -0.0700  0.1458
  558ERGO    R4 6471  17.395   6.747   9.013  0.0713  0.0877  0.1479
  558ERGO    R5 6472  17.291   6.909   9.117  0.1176  0.0532  0.2563
  558ERGO    C1 6473  17.053   6.854   8.824  0.1155  0.3276  0.2036
  558ERGO    C2 6474  17.117   6.764   8.484 -0.0015 -0.0368 -0.3531
  559ERGO   ROH 6475  13.562   0.132  10.048 -0.1281  0.4383  0.0732
  559ERGO    R1 6476  13.689   0.299   9.858  0.1828  0.2427  0.1019
  559ERGO    R2 6477  13.951   0.262   9.778  0.0587 -0.3624 -0.0753
  559ERGO    R3 6478  13.840   0.259   9.530 -0.1034  0.0569 -0.0085
  559ERGO    R4 6479  14.127   0.298   9.483 -0.0540 -0.4489 -0.1536
  559ERGO    R5 6480  13.965   0.422   9.407  0.1322 -0.0760  0.0545
  559ERGO    C1 6481  14.126   0.316   9.078 -0.2717 -0.1056 -0.1367
  559ERGO    C2 6482  14.224   0.389   8.832  0.1623  0.0118 -0.0855
  560ERGO   ROH 6483   7.175   2.630   9.627 -0.0811  0.1158 -0.1773
  560ERGO    R1 6484   7.333   2.464   9.462 -0.0542  0.0650 -0.1019
  560ERGO    R2 6485   7.275   2.418   9.195 -0.0512 -0.0722 -0.0835
  560ERGO    R3 6486   7.530   2.503   9.158 -0.0680 -0.0415 -0.1238
  560ERGO    R4 6487   7.487   2.303   8.949 -0.0569 -0.0788 -0.0844
  560ERGO    R5 6488   7.649   2.305   9.094 -0.0445 -0.0312 -0.1037
  560ERGO    C1 6489   7.851   2.314   8.770 -0.0761 -0.0537 -0.1228
  560ERGO    C2 6490   8.113   2.160   8.542 -0.0752 -0.0266  0.2990
  561ERGO   ROH 6491  11.004   5.264  10.101  0.1616  0.0318 -0.0696
  561ERGO    R1 6492  10.804   5.375   9.934  0.0734 -0.1323 -0.0745
  561ERGO    R2 6493  10.791   5.644   9.876 -0.2200 -0.1202  0.0263
  561ERGO    R3 6494  10.793   5.556   9.619 -0.0557 -0.0230 -0.0079
  561ERGO    R4 6495  10.685   5.828   9.603 -0.1866 -0.0735  0.0444
  561ERGO    R5 6496  10.593   5.647   9.523 -0.0576 -0.0902 -0.0667
  561ERGO    C1 6497  10.625   5.852   9.202 -0.0128  0.0450  0.0229
  561ERGO    C2 6498  10.445   6.052   8.919 -0.1394 -0.0815  0.1146
  562ERGO   ROH 6499   0.330   8.903  10.216  0.1027 -0.2416  0.1070
  562ERGO    R1 6500   0.356   9.016   9.958  0.2410 -0.0338  0.2088
  562ERGO    R2 6501   0.559   8.946   9.785  0.0710 -0.2462  0.0884
  562ERGO    R3 6502   0.354   8.895   9.615 -0.0787  0.2987  0.0874
  562ERGO    R4 6503   0.582   8.954   9.440  0.1291 -0.4238  0.0866
  562ERGO    R5 6504   0.386   9.050   9.435  0.3949  0.1579  0.0391
  562ERGO    C1 6505   0.402   8.911   9.079  0.0224 -0.0154  0.0847
  562ERGO    C2 6506   0.375   8.968   8.761  0.1160 -0.0381 -0.3003
  563ERGO   ROH 6507   3.572  15.472  10.220  0.2498  0.0280  0.0547
  563ERGO    R1 6508   3.759  15.560  10.027  0.0996  0.0405 -0.0865
  563ERGO    R2 6509   3.981  15.411   9.956  0.1697  0.1519 -0.0937
  563ERGO    R3 6510   3.882  15.443   9.705  0.0333 -0.0729 -0.0719
  563ERGO    R4 6511   4.120  15.276   9.670  0.2355  0.2027 -0.0865
  563ERGO    R5 6512   4.076  15.463   9.566 -0.0357  0.1118 -0.1502
  563ERGO    C1 6513   4.108  15.227   9.268  0.1458  0.0212 -0.0619
  563ERGO    C2 6514   4.253  15.163   8.934  0.2584  0.1993 -0.0597
  564ERGO   ROH 6515   6.394  13.189  10.072 -0.2227 -0.2445  0.1204
  564ERGO    R1 6516   6.251  13.023   9.893 -0.1695 -0.1863  0.0226
  564ERGO    R2 6517   6.058  13.120   9.721 -0.0985 -0.1249 -0.0285
  564ERGO    R3 6518   6.210  12.998   9.532 -0.0335 -0.0876  0.0002
  564ERGO    R4 6519   5.934  12.940   9.454  0.0005 -0.1400 -0.0639
  564ERGO    R5 6520   6.093  12.795   9.484  0.0203 -0.1074 -0.0352
  564ERGO    C1 6521   6.004  12.721   9.120  0.1191 -0.1136 -0.0575
  564ERGO    C2 6522   5.917  12.447   8.889  0.2292  0.2389 -0.1124
  565ERGO   ROH 6523   4.875  18.026  10.025  0.2620 -0.1458 -0.1910
  565ERGO    R1 6524   4.746  17.967   9.779  0.0195  0.0500 -0.1153
  565ERGO    R2 6525   4.528  18.109   9.687  0.1992  0.4128  0.0018
  565ERGO    R3 6526   4.682  18.140   9.466  0.1298  0.1389 -0.0889
  565ERGO    R4 6527   4.411  18.195   9.374  0.1402  0.3586  0.0085
  565ERGO    R5 6528   4.550  18.052   9.287 -0.0405  0.1718  0.0193
  565ERGO    C1 6529   4.488  18.274   8.983  0.0408  0.0701 -0.0729
  565ERGO    C2 6530   4.312  18.419   8.769  0.0119  0.1580  0.0923
  566ERGO   ROH 6531   8.277   1.231   9.639  0.0019 -0.2940 -0.0345
  566ERGO    R1 6532   8.286   1.152   9.368  0.0489 -0.1372 -0.0808
  566ERGO    R2 6533   8.277   1.333   9.160  0.1594 -0.0082  0.0180
  566ERGO    R3 6534   8.506   1.207   9.083  0.1420 -0.0335  0.0126
  566ERGO    R4 6535   8.356   1.247   8.834  0.0721 -0.1771  0.0415
  566ERGO    R5 6536   8.437   1.059   8.909  0.1043 -0.1281  0.1133
  566ERGO    C1 6537   8.617   1.078   8.574  0.0050 -0.2993  0.0501
  566ERGO    C2 6538   8.675   0.853   8.180  0.2085  0.0547 -0.2801
  567ERGO   ROH 6539   8.158  15.410   9.640  0.1951  0.0643 -0.1005
  567ERGO    R1 6540   8.132  15.361   9.363  0.0997  0.1063 -0.0992
  567ERGO    R2 6541   7.931  15.201   9.259  0.1384  0.0213 -0.0426
  567ERGO    R3 6542   7.880  15.421   9.107 -0.0453  0.0252  0.0221
  567ERGO    R4 6543   7.826  15.195   8.929  0.0713  0.0282 -0.0216
  567ERGO    R5 6544   7.958  15.363   8.889 -0.0510  0.1310 -0.0096
  567ERGO    C1 6545   7.717  15.398   8.595 -0.1402  0.0359  0.0516
  567ERGO    C2 6546   7.761  15.673   8.358 -0.2587 -0.1393  0.2801
  568ERGO   ROH 6547  10.557   0.230   9.557  0.1353 -0.0763 -0.0847
  568ERGO    R1 6548  10.703   0.279   9.319  0.1196 -0.2352 -0.1284
  568ERGO    R2 6549  10.674   0.123   9.092 -0.3681 -0.0097 -0.2343
  568ERGO    R3 6550  10.625   0.363   8.974  0.1130  0.2032 -0.0252
  568ERGO    R4 6551  10.782   0.213   8.777 -0.2617  0.0158 -0.1904
  568ERGO    R5 6552  10.826   0.412   8.854  0.1924 -0.1333 -0.0383
  568ERGO    C1 6553  10.799   0.491   8.482  0.2517  0.2306  0.0316
  568ERGO    C2 6554  10.568   0.394   8.203 -0.4964 -0.1098  0.4102
  569ERGO   ROH 6555  12.689  17.264   9.449 -0.3700  0.3272  0.0523
  569ERGO    R1 6556  12.623  17.460   9.256 -0.2782  0.1784 -0.1323
  569ERGO    R2 6557  12.815  17.607   9.121 -0.2173  0.1355 -0.0879
  569ERGO    R3 6558  12.686  17.512   8.901 -0.0274 -0.0458 -0.1252
  569ERGO    R4 6559  12.775  17.781   8.825 -0.3610  0.0836 -0.0996
  569ERGO    R5 6560  12.572  17.703   8.812 -0.2601 -0.1934 -0.1590
  569ERGO    C1 6561  12.630  17.793   8.447 -0.2665 -0.1167 -0.1415
  569ERGO    C2 6562  12.542  18.072   8.120  0.0908  0.0733  0.1673
  570ERGO   ROH 6563   8.660   2.300   9.797  0.0313 -0.0495  0.0954
  570ERGO    R1 6564   8.633   2.300   9.515 -0.1595 -0.1715  0.1116
  570ERGO    R2 6565   8.393   2.246   9.389 -0.3416  0.1426  0.3053
  570ERGO    R3 6566   8.441   2.485   9.268 -0.0293  0.0021  0.1393
  570ERGO    R4 6567   8.264   2.342   9.083 -0.1723  0.0865  0.2150
  570ERGO    R5 6568   8.456   2.432   9.035 -0.0539 -0.1828  0.1800
  570ERGO    C1 6569   8.232   2.622   8.792  0.2196 -0.0782  0.0064
  570ERGO    C2 6570   8.022   2.776   8.666  0.2666  0.1626 -0.1456
  571ERGO   ROH 6571   4.425  17.754  10.056 -0.0891  0.1260 -0.0694
  571ERGO    R1 6572   4.386  17.614   9.813 -0.3362  0.0596  0.0048
  571ERGO    R2 6573   4.213  17.703   9.616 -0.1166  0.3170 -0.0818
  571ERGO    R3 6574   4.433  17.683   9.458 -0.1156 -0.2427 -0.0277
  571ERGO    R4 6575   4.213  17.733   9.272  0.0472  0.3539 -0.0789
  571ERGO    R5 6576   4.356  17.569   9.262 -0.3685 -0.0284 -0.0571
  571ERGO    C1 6577   4.419  17.732   8.923  0.1433 -0.1500 -0.0264
  571ERGO    C2 6578   4.432  17.624   8.539 -0.0501  0.2261 -0.2908
  572ERGO   ROH 6579  11.074   8.771   9.827  0.1709  0.1954  0.0143
  572ERGO    R1 6580  11.039   8.709   9.553  0.0984  0.0580  0.0537
  572ERGO    R2 6581  10.795   8.731   9.426  0.0535 -0.0535  0.1181
  572ERGO    R3 6582  10.935   8.887   9.253 -0.0320 -0.1054  0.0008
  572ERGO    R4 6583  10.699   8.802   9.101 -0.1263 -0.1199  0.1556
  572ERGO    R5 6584  10.907   8.780   9.040 -0.1632 -0.1514  0.0408
  572ERGO    C1 6585  10.775   8.990   8.750 -0.3113 -0.2072  0.0673
  572ERGO    C2 6586  10.615   9.074   8.475  0.0413  0.2993 -0.0832
  573ERGO   ROH 6587  16.462  10.061   9.941 -0.0658  0.2279 -0.1863
  573ERGO    R1 6588  16.443   9.851   9.752  0.1026  0.0923 -0.0555
  573ERGO    R2 6589  16.283   9.867   9.528  0.0063 -0.2190 -0.0131
  573ERGO    R3 6590  16.514   9.807   9.398  0.0311 -0.0386 -0.0543
  573ERGO    R4 6591  16.311   9.819   9.187  0.0021 -0.1050 -0.0299
  573ERGO    R5 6592  16.448   9.654   9.226  0.1092 -0.0316 -0.0909
  573ERGO    C1 6593  16.545   9.735   8.866  0.0228  0.1308 -0.0782
  573ERGO    C2 6594  16.558   9.827   8.541 -0.1372 -0.1293  0.0829
  574ERGO   ROH 6595  12.497  16.134   9.909  0.0300  0.1228 -0.0496
  574ERGO    R1 6596  12.546  16.184   9.635 -0.0638  0.0596 -0.0782
  574ERGO    R2 6597  12.516  15.990   9.440 -0.1925  0.0331 -0.0304
  574ERGO    R3 6598  12.354  16.176   9.326 -0.1869  0.0557 -0.0029
  574ERGO    R4 6599  12.343  15.947   9.144 -0.2511  0.0519  0.0002
  574ERGO    R5 6600  12.392  16.152   9.091 -0.2306  0.0464 -0.0107
  574ERGO    C1 6601  12.090  16.095   8.865 -0.2797  0.0842  0.0440
  574ERGO    C2 6602  11.854  16.102   8.619  0.0850  0.1583 -0.0654
  575ERGO   ROH 6603  11.310   1.886   6.567 -0.1237 -0.0663  0.0678
  575ERGO    R1 6604  11.363   2.062   6.783  0.1639 -0.1649  0.0809
  575ERGO    R2 6605  11.171   2.134   6.967  0.2318  0.2565 -0.0043
  575ERGO    R3 6606  11.356   2.045   7.146 -0.0256 -0.1340  0.0797
  575ERGO    R4 6607  11.188   2.232   7.298  0.3355  0.2926 -0.0202
  575ERGO    R5 6608  11.406   2.237   7.280  0.3673 -0.2085  0.0542
  575ERGO    C1 6609  11.371   2.206   7.659  0.1540 -0.0530  0.0495
  575ERGO    C2 6610  11.368   2.306   7.927 -0.3293 -0.1027  0.0397
  576ERGO   ROH 6611   2.947  16.509   9.977  0.0596  0.0346 -0.0618
  576ERGO    R1 6612   2.992  16.673   9.750 -0.0285  0.0534 -0.0662
  576ERGO    R2 6613   3.106  16.578   9.517  0.0976  0.1249 -0.0370
  576ERGO    R3 6614   2.882  16.682   9.404  0.0328 -0.0668 -0.0885
  576ERGO    R4 6615   3.037  16.578   9.178  0.1500  0.0316 -0.0483
  576ERGO    R5 6616   2.958  16.780   9.199 -0.0139 -0.0300 -0.0862
  576ERGO    C1 6617   2.786  16.676   8.875  0.1198 -0.2029 -0.1032
  576ERGO    C2 6618   2.776  16.727   8.493  0.2001 -0.0461 -0.5411
  577ERGO   ROH 6619  17.467  17.221  10.061 -0.0147 -0.0660  0.1579
  577ERGO    R1 6620  17.658  17.108   9.885 -0.0716  0.0274  0.0355
  577ERGO    R2 6621  17.632  16.854   9.781  0.0073  0.0006  0.0894
  577ERGO    R3 6622  17.662  16.982   9.544 -0.2390 -0.0145  0.0475
  577ERGO    R4 6623  17.701  16.698   9.480  0.2369  0.0200  0.1288
  577ERGO    R5 6624  17.837  16.862   9.432 -0.0415  0.2440  0.0647
  577ERGO    C1 6625  17.768  16.728   9.082  0.1391  0.0171  0.1123
  577ERGO    C2 6626  17.813  16.463   8.808 -0.1699 -0.0277 -0.1328
  578ERGO   ROH 6627   8.902  12.499   9.655 -0.0980 -0.1099 -0.0194
  578ERGO    R1 6628   8.959  12.534   9.380 -0.0372 -0.2316 -0.0238
  578ERGO    R2 6629   8.815  12.406   9.181 -0.1296 -0.1605 -0.0071
  578ERGO    R3 6630   8.782  12.659   9.087  0.1012 -0.1535 -0.0746
  578ERGO    R4 6631   8.732  12.486   8.856 -0.2405 -0.1826  0.0165
  578ERGO    R5 6632   8.872  12.652   8.866 -0.0423 -0.3374 -0.1299
  578ERGO    C1 6633   8.652  12.771   8.578 -0.0883 -0.1889 -0.0333
  578ERGO    C2 6634   8.487  13.003   8.368  0.0961  0.1596 -0.2380
  579ERGO   ROH 6635  15.074   3.080   9.568  0.1445  0.1008 -0.1040
  579ERGO    R1 6636  14.903   3.066   9.344  0.0720 -0.0308 -0.0405
  579ERGO    R2 6637  14.951   3.206   9.110 -0.0903 -0.0418 -0.0758
  579ERGO    R3 6638  14.930   2.960   8.996  0.0038 -0.0701 -0.0358
  579ERGO    R4 6639  14.947   3.146   8.770 -0.2024 -0.0745 -0.0699
  579ERGO    R5 6640  14.792   2.996   8.803 -0.1054 -0.1661  0.0173
  579ERGO    C1 6641  14.925   2.881   8.465 -0.1794 -0.1201 -0.0285
  579ERGO    C2 6642  14.939   2.760   8.207 -0.0591  0.4737  0.0469
  580ERGO   ROH 6643   7.056   3.700   9.651 -0.1226 -0.3355 -0.0891
  580ERGO    R1 6644   6.906   3.781   9.426 -0.0778 -0.3421 -0.1214
  580ERGO    R2 6645   7.016   3.925   9.217 -0.0674 -0.2317 -0.0399
  580ERGO    R3 6646   6.914   3.722   9.067  0.0815 -0.2368 -0.1361
  580ERGO    R4 6647   7.008   3.920   8.871 -0.1780 -0.0133 -0.0425
  580ERGO    R5 6648   6.809   3.833   8.882 -0.0908 -0.2181 -0.0295
  580ERGO    C1 6649   6.909   3.728   8.529 -0.1027  0.1091 -0.1341
  580ERGO    C2 6650   6.928   3.626   8.160  0.0213  0.2854 -0.3961
  581ERGO   ROH 6651   2.250   6.777   9.909 -0.1990 -0.0450 -0.0211
  581ERGO    R1 6652   2.260   6.813   9.629 -0.0975  0.1289  0.0040
  581ERGO    R2 6653   2.058   6.731   9.461  0.0846 -0.0193 -0.1466
  581ERGO    R3 6654   2.065   6.990   9.378 -0.1816  0.0417  0.0070
  581ERGO    R4 6655   1.968   6.839   9.145  0.5782 -0.0263 -0.2983
  581ERGO    R5 6656   2.137   6.977   9.149  0.3448  0.2746  0.1438
  581ERGO    C1 6657   1.922   7.145   8.883  0.6157  0.0269 -0.2423
  581ERGO    C2 6658   1.958   7.226   8.506  0.0187  0.1052 -0.2378
  582ERGO   ROH 6659   5.947   3.159   9.766  0.0736 -0.1643  0.1855
  582ERGO    R1 6660   5.792   3.206   9.533  0.0238 -0.2040  0.2099
  582ERGO    R2 6661   5.882   3.363   9.324 -0.0557 -0.1657  0.2018
  582ERGO    R3 6662   5.826   3.142   9.177 -0.0066 -0.1801  0.2029
  582ERGO    R4 6663   5.838   3.361   8.981 -0.0234 -0.1846  0.1981
  582ERGO    R5 6664   5.674   3.220   9.008 -0.0035 -0.2103  0.1866
  582ERGO    C1 6665   5.760   3.151   8.643  0.0415 -0.2092  0.1969
  582ERGO    C2 6666   5.952   3.207   8.383 -0.4816 -0.2651  0.4101
  583ERGO   ROH 6667  16.635   5.496   9.379  0.1664  0.3898 -0.0473
  583ERGO    R1 6668  16.791   5.483   9.143  0.0185  0.3730 -0.1461
  583ERGO    R2 6669  16.859   5.244   9.022  0.2876  0.3371  0.0643
  583ERGO    R3 6670  16.748   5.361   8.803 -0.0478 -0.0590  0.0115
  583ERGO    R4 6671  16.953   5.180   8.696  0.2436  0.2257  0.0734
  583ERGO    R5 6672  16.932   5.393   8.653 -0.1788  0.1587 -0.1077
  583ERGO    C1 6673  16.903   5.251   8.300 -0.0968 -0.2109  0.0292
  583ERGO    C2 6674  16.731   5.040   8.160 -0.0049 -0.1949  0.1811
  584ERGO   ROH 6675  14.659   1.421  10.192  0.0972 -0.0504  0.1940
  584ERGO    R1 6676  14.535   1.365   9.944 -0.0573 -0.0874  0.2781
  584ERGO    R2 6677  14.675   1.268   9.726 -0.1308  0.1689  0.1112
  584ERGO    R3 6678  14.486   1.072   9.732  0.1002 -0.0569  0.1983
  584ERGO    R4 6679  14.648   1.011   9.496 -0.0049  0.2043  0.0561
  584ERGO    R5 6680  14.431   1.034   9.502 -0.0309 -0.0509  0.2282
  584ERGO    C1 6681  14.455   0.678   9.369  0.2854  0.0129  0.1059
  584ERGO    C2 6682  14.594   0.417   9.364  0.0990 -0.0308  0.2997
  585ERGO   ROH 6683   9.397  18.178   9.589 -0.3047 -0.1224 -0.0988
  585ERGO    R1 6684   9.423  18.378   9.391  0.0068 -0.1491 -0.0904
  585ERGO    R2 6685   9.640  18.392   9.220  0.0371 -0.4793 -0.0843
  585ERGO    R3 6686   9.448  18.389   9.028  0.0283 -0.1754 -0.0914
  585ERGO    R4 6687   9.681  18.507   8.896  0.1361 -0.2563  0.0048
  585ERGO    R5 6688   9.481  18.592   8.906  0.1962 -0.0983  0.0690
  585ERGO    C1 6689   9.524  18.571   8.528  0.1855  0.1589  0.0500
  585ERGO    C2 6690   9.537  18.515   8.262  0.0215 -0.2496 -0.0745
  586ERGO   ROH 6691   9.389  15.677   9.422 -0.2776  0.0771 -0.0847
  586ERGO    R1 6692   9.504  15.545   9.200 -0.0079  0.2090 -0.0246
  586ERGO    R2 6693   9.353  15.412   9.010  0.2523 -0.0730 -0.0302
  586ERGO    R3 6694   9.486  15.574   8.837  0.0447  0.0984 -0.0383
  586ERGO    R4 6695   9.317  15.407   8.667  0.1995 -0.0884 -0.0268
  586ERGO    R5 6696   9.532  15.434   8.648  0.1744  0.1587 -0.0587
  586ERGO    C1 6697   9.421  15.555   8.304 -0.0262  0.0637 -0.0323
  586ERGO    C2 6698   9.399  15.532   7.974 -0.0895 -0.2312  0.2617
  587ERGO   ROH 6699   5.825   2.082   9.918  0.0827  0.1017  0.0728
  587ERGO    R1 6700   5.825   2.159   9.646  0.2570  0.0022  0.0433
  587ERGO    R2 6701   5.992   2.044   9.458  0.0278 -0.4315  0.0947
  587ERGO    R3 6702   5.759   1.998   9.326 -0.0757  0.0109  0.1023
  587ERGO    R4 6703   5.964   1.999   9.117 -0.0482 -0.4981  0.1088
  587ERGO    R5 6704   5.782   2.119   9.121  0.1934 -0.1041  0.0576
  587ERGO    C1 6705   5.729   1.929   8.794 -0.1898 -0.1216  0.1244
  587ERGO    C2 6706   5.633   1.812   8.574 -0.1265  0.0941 -0.1319
  588ERGO   ROH 6707   7.820   4.510   9.676  0.1801 -0.1397  0.0194
  588ERGO    R1 6708   7.950   4.405   9.448 -0.1209 -0.2362 -0.1126
  588ERGO    R2 6709   7.812   4.317   9.224 -0.3961  0.2526 -0.1474
  588ERGO    R3 6710   7.975   4.492   9.095 -0.0501  0.0135 -0.0487
  588ERGO    R4 6711   7.902   4.295   8.892 -0.4332  0.2527 -0.1576
  588ERGO    R5 6712   8.103   4.355   8.947 -0.3080 -0.1638 -0.1177
  588ERGO    C1 6713   8.107   4.446   8.577 -0.1299  0.0282 -0.0709
  588ERGO    C2 6714   8.081   4.443   8.307 -0.2555 -0.0156 -0.0727
  589ERGO   ROH 6715   2.171  16.387   9.934 -0.0071 -0.1457 -0.0956
  589ERGO    R1 6716   2.028  16.400   9.691 -0.0406 -0.0007 -0.0688
  589ERGO    R2 6717   1.936  16.638   9.585 -0.0279  0.0661  0.0698
  589ERGO    R3 6718   2.073  16.556   9.365 -0.0698  0.1660  0.0054
  589ERGO    R4 6719   1.792  16.558   9.281 -0.1363 -0.2126  0.1906
  589ERGO    R5 6720   1.931  16.391   9.265  0.0647 -0.0472  0.1550
  589ERGO    C1 6721   1.837  16.435   8.897 -0.2388 -0.2813  0.2006
  589ERGO    C2 6722   1.862  16.497   8.583  0.1141  0.0750  0.3535
  590ERGO   ROH 6723  11.235  16.922   9.409 -0.0094 -0.2263  0.0711
  590ERGO    R1 6724  11.360  17.036   9.182 -0.2315 -0.0963  0.0101
  590ERGO    R2 6725  11.635  17.048   9.154 -0.2465  0.3225 -0.0484
  590ERGO    R3 6726  11.584  16.922   8.918 -0.1050  0.1670  0.0006
  590ERGO    R4 6727  11.814  17.095   8.862 -0.2396  0.3314 -0.0427
  590ERGO    R5 6728  11.626  17.089   8.752 -0.2175  0.1234 -0.0719
  590ERGO    C1 6729  11.870  17.005   8.471 -0.1029  0.1906  0.0066
  590ERGO    C2 6730  12.029  16.885   8.176 -0.0491  0.4417  0.0114
  591ERGO   ROH 6731  12.441  11.956   9.691  0.0505  0.1402 -0.1241
  591ERGO    R1 6732  12.428  11.862   9.425  0.1722  0.1902 -0.1484
  591ERGO    R2 6733  12.197  11.754   9.316  0.3061 -0.0757 -0.1760
  591ERGO    R3 6734  12.238  11.943   9.125  0.0688  0.0285 -0.1284
  591ERGO    R4 6735  12.001  11.798   9.034  0.0067  0.0216  0.0413
  591ERGO    R5 6736  12.182  11.834   8.920 -0.1164  0.1177 -0.1275
  591ERGO    C1 6737  11.926  12.001   8.691 -0.3904  0.1762  0.2126
  591ERGO    C2 6738  11.925  12.136   8.377 -0.0128 -0.1035  0.1028
  592ERGO   ROH 6739   7.493  11.632  10.240  0.0638 -0.0931 -0.0694
  592ERGO    R1 6740   7.505  11.451  10.022  0.0402 -0.0669 -0.0934
  592ERGO    R2 6741   7.279  11.343   9.905  0.0260 -0.0490 -0.0876
  592ERGO    R3 6742   7.387  11.445   9.678  0.0077 -0.0214 -0.0829
  592ERGO    R4 6743   7.166  11.277   9.585  0.0818 -0.1124 -0.0936
  592ERGO    R5 6744   7.373  11.266   9.520  0.0917 -0.0360 -0.0729
  592ERGO    C1 6745   7.203  11.334   9.185  0.0972 -0.1234 -0.0927
  592ERGO    C2 6746   7.126  11.179   8.906  0.2888  0.2697 -0.1448
  593ERGO   ROH 6747  14.385   2.004   9.368 -0.1045  0.0907 -0.0982
  593ERGO    R1 6748  14.401   1.929   9.096 -0.0009  0.1817 -0.1176
  593ERGO    R2 6749  14.599   2.023   8.928  0.1958  0.0641  0.0451
  593ERGO    R3 6750  14.641   1.758   8.883 -0.0230  0.0399 -0.0298
  593ERGO    R4 6751  14.627   1.877   8.615  0.0384  0.1226  0.0026
  593ERGO    R5 6752  14.510   1.709   8.689 -0.0888  0.1966 -0.0268
  593ERGO    C1 6753  14.683   1.544   8.392 -0.2586  0.1340 -0.0926
  593ERGO    C2 6754  14.634   1.546   8.026 -0.0142  0.1829  0.3115
  594ERGO   ROH 6755   8.731  14.730   9.460 -0.3918 -0.3154  0.0523
  594ERGO    R1 6756   8.764  14.644   9.192 -0.2336 -0.2011  0.0340
  594ERGO    R2 6757   8.553  14.553   9.038 -0.1517 -0.0749 -0.1489
  594ERGO    R3 6758   8.640  14.744   8.865  0.0146 -0.0207 -0.0096
  594ERGO    R4 6759   8.518  14.540   8.694  0.0791  0.0681 -0.1805
  594ERGO    R5 6760   8.719  14.622   8.675  0.1184  0.0324 -0.0066
  594ERGO    C1 6761   8.578  14.711   8.332  0.3696  0.2023 -0.0684
  594ERGO    C2 6762   8.545  15.008   8.106  0.0484 -0.1227  0.3969
  595ERGO   ROH 6763   9.325   4.280   9.258 -0.0338 -0.1987 -0.0456
  595ERGO    R1 6764   9.287   4.234   8.981  0.0236 -0.1278 -0.0658
  595ERGO    R2 6765   9.104   4.376   8.830 -0.0637 -0.2026 -0.0331
  595ERGO    R3 6766   9.321   4.427   8.675 -0.0842  0.0050  0.0054
  595ERGO    R4 6767   9.091   4.488   8.504 -0.1107 -0.0614  0.0173
  595ERGO    R5 6768   9.256   4.355   8.456 -0.0226  0.0638 -0.0320
  595ERGO    C1 6769   9.288   4.602   8.168 -0.1574  0.2156  0.0828
  595ERGO    C2 6770   9.563   4.810   7.989  0.0447 -0.3226 -0.0253
  596ERGO   ROH 6771  10.593   1.567   9.423 -0.0598 -0.0290  0.2805
  596ERGO    R1 6772  10.360   1.703   9.336  0.0995  0.0967  0.0405
  596ERGO    R2 6773  10.341   1.820   9.087  0.2919 -0.2002 -0.1196
  596ERGO    R3 6774  10.118   1.666   9.067  0.1413 -0.0048  0.0163
  596ERGO    R4 6775  10.064   1.896   8.894  0.3948 -0.1377 -0.2450
  596ERGO    R5 6776   9.938   1.823   9.056  0.2954  0.1622 -0.1822
  596ERGO    C1 6777   9.694   1.796   8.764  0.3133  0.0821 -0.1905
  596ERGO    C2 6778   9.678   1.800   8.462  0.1616  0.2744 -0.2548
  597ERGO   ROH 6779   4.413  14.062  10.095  0.5229  0.1611  0.0485
  597ERGO    R1 6780   4.600  13.899   9.959  0.2126 -0.1718 -0.0022
  597ERGO    R2 6781   4.541  13.641   9.876 -0.3111 -0.0455 -0.1275
  597ERGO    R3 6782   4.621  13.736   9.634 -0.1037 -0.0744 -0.0677
  597ERGO    R4 6783   4.656  13.447   9.614 -0.2035 -0.0517 -0.0719
  597ERGO    R5 6784   4.806  13.598   9.574 -0.1283 -0.1271  0.0406
  597ERGO    C1 6785   4.798  13.422   9.235  0.0539 -0.0825  0.0167
  597ERGO    C2 6786   4.795  13.521   8.834 -0.0769  0.0132 -0.0005
  598ERGO   ROH 6787  11.565   7.837   9.511 -0.0611  0.0196  0.0030
  598ERGO    R1 6788  11.457   7.879   9.253 -0.0885  0.0280  0.0165
  598ERGO    R2 6789  11.312   8.105   9.187  0.0412  0.1042 -0.0040
  598ERGO    R3 6790  11.495   8.124   8.987  0.0117 -0.0572 -0.0490
  598ERGO    R4 6791  11.257   8.259   8.883  0.1271  0.2251  0.0398
  598ERGO    R5 6792  11.367   8.097   8.787 -0.0730  0.1201 -0.0216
  598ERGO    C1 6793  11.396   8.366   8.518  0.1494  0.1441  0.0231
  598ERGO    C2 6794  11.411   8.485   8.124  0.1298  0.1270 -0.0045
  599ERGO   ROH 6795  14.524   6.959   9.804 -0.1785  0.0012 -0.0709
  599ERGO    R1 6796  14.564   7.021   9.531 -0.1989  0.0619 -0.0616
  599ERGO    R2 6797  14.693   6.849   9.357 -0.0710  0.1636 -0.0788
  599ERGO    R3 6798  14.466   6.879   9.211 -0.0846  0.0338 -0.0826
  599ERGO    R4 6799  14.646   6.726   9.037 -0.0253  0.0968 -0.0590
  599ERGO    R5 6800  14.543   6.911   8.986 -0.1095  0.0349 -0.0857
  599ERGO    C1 6801  14.406   6.683   8.714 -0.0113 -0.0639 -0.0512
  599ERGO    C2 6802  14.434   6.512   8.426 -0.1981  0.0748 -0.0883
  600ERGO   ROH 6803  17.363   0.284   9.733 -0.1665 -0.2577  0.2455
  600ERGO    R1 6804  17.304   0.090   9.536 -0.1033 -0.1580  0.1264
  600ERGO    R2 6805  17.142   0.143   9.318 -0.1618 -0.0906  0.1838
  600ERGO    R3 6806  17.356   0.051   9.178 -0.1365  0.1031  0.0922
  600ERGO    R4 6807  17.127   0.009   9.000 -0.1961 -0.2574  0.2544
  600ERGO    R5 6808  17.273  -0.141   9.062  0.0240 -0.0531  0.2329
  600ERGO    C1 6809  17.318  -0.155   8.683 -0.1923 -0.1726  0.2094
  600ERGO    C2 6810  17.295  -0.443   8.494 -0.1705 -0.0693  0.1878
  601ERGO   ROH 6811  11.699  16.579   9.514  0.1362  0.1020  0.0661
  601ERGO    R1 6812  11.823  16.649   9.269  0.2020  0.0827  0.0945
  601ERGO    R2 6813  12.045  16.515   9.171  0.0003 -0.1718 -0.0190
  601ERGO    R3 6814  11.889  16.486   8.950 -0.0733  0.1905 -0.0208
  601ERGO    R4 6815  12.158  16.535   8.845 -0.0183 -0.0813 -0.0205
  601ERGO    R5 6816  11.977  16.645   8.794  0.1120  0.1945  0.0832
  601ERGO    C1 6817  12.078  16.520   8.448 -0.0983  0.3115 -0.0230
  601ERGO    C2 6818  12.364  16.512   8.159  0.4924  0.0038  0.1026
  602ERGO   ROH 6819  13.497  14.782   9.866 -0.2400 -0.1021  0.0743
  602ERGO    R1 6820  13.457  14.946   9.640  0.0330  0.0218  0.1120
  602ERGO    R2 6821  13.623  14.939   9.420  0.0795 -0.1336  0.1539
  602ERGO    R3 6822  13.391  14.896   9.285  0.0523  0.2155  0.0795
  602ERGO    R4 6823  13.570  15.022   9.089  0.3471 -0.1350  0.1080
  602ERGO    R5 6824  13.369  15.088   9.143  0.4291  0.2198  0.0139
  602ERGO    C1 6825  13.321  15.031   8.769  0.4774  0.1918  0.0113
  602ERGO    C2 6826  13.176  15.057   8.470 -0.0283  0.0423 -0.0594
  603ERGO   ROH 6827   0.385   0.647  10.027 -0.1784  0.1735  0.0658
  603ERGO    R1 6828   0.365   0.466   9.810 -0.2454  0.1096  0.1255
  603ERGO    R2 6829   0.217   0.521   9.584  0.0575  0.2461 -0.0430
  603ERGO    R3 6830   0.450   0.466   9.456  0.1049 -0.1727  0.2024
  603ERGO    R4 6831   0.244   0.431   9.251  0.2393  0.1969 -0.0162
  603ERGO    R5 6832   0.397   0.286   9.308 -0.0691 -0.0841  0.1501
  603ERGO    C1 6833   0.479   0.328   8.938  0.3896 -0.2249  0.2299
  603ERGO    C2 6834   0.320   0.268   8.636 -0.1324 -0.4088 -0.0515
  604ERGO   ROH 6835   9.264  12.204   9.465 -0.1639  0.0304  0.0662
  604ERGO    R1 6836   9.283  12.121   9.195 -0.0490  0.0389  0.0700
  604ERGO    R2 6837   9.143  11.904   9.096 -0.0237  0.0503 -0.0032
  604ERGO    R3 6838   9.055  12.086   8.914  0.0726  0.0678 -0.0315
  604ERGO    R4 6839   8.999  11.825   8.792  0.1277  0.0876 -0.0852
  604ERGO    R5 6840   9.110  11.989   8.702  0.1751  0.0904 -0.0121
  604ERGO    C1 6841   8.831  11.949   8.444  0.3063  0.1258 -0.1595
  604ERGO    C2 6842   8.751  11.941   8.143  0.0029  0.2101 -0.3558
  605ERGO   ROH 6843   6.510   5.425   9.726 -0.1533 -0.1439 -0.0830
  605ERGO    R1 6844   6.420   5.587   9.512  0.0179  0.0265 -0.0294
  605ERGO    R2 6845   6.559   5.809   9.424  0.2703 -0.1050  0.0296
  605ERGO    R3 6846   6.544   5.684   9.183  0.1100 -0.0169 -0.0080
  605ERGO    R4 6847   6.492   5.967   9.124  0.1908  0.0257  0.1152
  605ERGO    R5 6848   6.366   5.797   9.069  0.0988  0.0923  0.1137
  605ERGO    C1 6849   6.439   5.942   8.723 -0.0060  0.1846  0.1296
  605ERGO    C2 6850   6.508   6.235   8.502 -0.2210  0.0803 -0.1102
  606ERGO   ROH 6851   4.962  16.329  10.097  0.1367  0.1090 -0.0344
  606ERGO    R1 6852   5.095  16.408   9.860  0.0664 -0.0061 -0.1119
  606ERGO    R2 6853   5.299  16.258   9.748 -0.0540 -0.1192 -0.1643
  606ERGO    R3 6854   5.142  16.272   9.526 -0.1384 -0.1024 -0.1054
  606ERGO    R4 6855   5.410  16.223   9.422 -0.1615 -0.1106 -0.2032
  606ERGO    R5 6856   5.276  16.384   9.364 -0.1831 -0.0954 -0.1478
  606ERGO    C1 6857   5.328  16.216   9.025 -0.3032 -0.0898 -0.1705
  606ERGO    C2 6858   5.532  16.252   8.653 -0.0870 -0.0059  0.0074
  607ERGO   ROH 6859   4.309   2.869   9.979  0.2625 -0.0452 -0.0576
  607ERGO    R1 6860   4.321   2.913   9.700  0.1506  0.0549 -0.0475
  607ERGO    R2 6861   4.340   2.707   9.517  0.0780  0.1192 -0.1309
  607ERGO    R3 6862   4.120   2.826   9.409  0.0339  0.1582  0.0014
  607ERGO    R4 6863   4.276   2.733   9.178 -0.1366  0.1043 -0.0923
  607ERGO    R5 6864   4.202   2.936   9.213 -0.0693  0.1227 -0.0616
  607ERGO    C1 6865   4.032   2.860   8.880 -0.3029  0.1323  0.0542
  607ERGO    C2 6866   3.879   2.758   8.464 -0.2585 -0.3092 -0.2878
  608ERGO   ROH 6867  12.890   2.165   9.242 -0.0562  0.0368 -0.0445
  608ERGO    R1 6868  12.952   2.032   9.000  0.1880  0.0523  0.0072
  608ERGO    R2 6869  12.806   2.069   8.768  0.0575 -0.3693  0.0140
  608ERGO    R3 6870  13.049   2.129   8.663 -0.0798  0.1111 -0.0556
  608ERGO    R4 6871  12.872   2.105   8.431 -0.1001 -0.2663 -0.0072
  608ERGO    R5 6872  13.061   2.000   8.462  0.1260  0.1097 -0.0453
  608ERGO    C1 6873  13.139   2.182   8.136 -0.3208  0.2446 -0.0848
  608ERGO    C2 6874  13.131   2.305   7.737  0.0513  0.1771 -0.1883
  609ERGO   ROH 6875   3.612  14.607  10.178 -0.0109  0.1459  0.2044
  609ERGO    R1 6876   3.417  14.494  10.007  0.0435  0.0729  0.1892
  609ERGO    R2 6877   3.358  14.598   9.758 -0.0370  0.1037  0.2149
  609ERGO    R3 6878   3.411  14.345   9.676  0.1131  0.1547  0.1530
  609ERGO    R4 6879   3.317  14.481   9.435  0.0294  0.1420  0.1925
  609ERGO    R5 6880   3.239  14.295   9.517  0.1454  0.0815  0.1481
  609ERGO    C1 6881   3.342  14.175   9.171  0.2089  0.2123  0.1214
  609ERGO    C2 6882   3.549  14.064   8.971  0.1936  0.0273  0.1567
  610ERGO   ROH 6883   1.304  14.794   9.912 -0.1119  0.0173 -0.0636
  610ERGO    R1 6884   1.280  14.773   9.631 -0.0485 -0.0099 -0.0674
  610ERGO    R2 6885   1.378  14.965   9.458 -0.0782  0.0125 -0.0618
  610ERGO    R3 6886   1.507  14.754   9.347  0.0158  0.0474 -0.0197
  610ERGO    R4 6887   1.526  14.967   9.146 -0.0214  0.0331 -0.0346
  610ERGO    R5 6888   1.450  14.765   9.114  0.0553  0.0051 -0.0302
  610ERGO    C1 6889   1.734  14.769   8.860  0.1000  0.0780  0.0209
  610ERGO    C2 6890   1.886  14.802   8.503  0.0285  0.1391 -0.0622
  611ERGO   ROH 6891  14.488  17.014   9.903  0.0378  0.0358  0.2298
  611ERGO    R1 6892  14.669  17.230   9.874  0.0648  0.0064  0.1767
  611ERGO    R2 6893  14.934  17.214   9.953  0.0826 -0.0320  0.1123
  611ERGO    R3 6894  14.980  17.291   9.696  0.0307 -0.0500  0.0973
  611ERGO    R4 6895  15.173  17.444   9.856  0.0787 -0.0568  0.0431
  611ERGO    R5 6896  15.030  17.525   9.713  0.0533 -0.0538  0.0717
  611ERGO    C1 6897  15.356  17.651   9.559  0.0277 -0.0883 -0.0112
  611ERGO    C2 6898  15.573  17.644   9.277 -0.0239  0.1299 -0.1234
  612ERGO   ROH 6899  10.464  10.389   9.882 -0.1836 -0.2881 -0.0000
  612ERGO    R1 6900  10.532  10.328   9.614 -0.0948  0.0754 -0.0687
  612ERGO    R2 6901  10.688  10.494   9.458  0.2528  0.1372  0.3145
  612ERGO    R3 6902  10.837  10.268   9.425 -0.0462 -0.0298  0.0446
  612ERGO    R4 6903  10.908  10.438   9.197  0.1906  0.1520  0.2610
  612ERGO    R5 6904  10.838  10.232   9.189 -0.0857  0.2546  0.0024
  612ERGO    C1 6905  11.175  10.195   9.014 -0.1263  0.0039 -0.0237
  612ERGO    C2 6906  11.403  10.344   8.949 -0.0915 -0.3038  0.1974
  613ERGO   ROH 6907   2.870   0.262   8.761 -0.1640 -0.0269  0.0128
  613ERGO    R1 6908   3.090   0.334   8.597 -0.1343 -0.1507 -0.0016
  613ERGO    R2 6909   3.186   0.593   8.581 -0.1753 -0.1488 -0.2311
  613ERGO    R3 6910   3.422   0.475   8.647 -0.1705 -0.0449 -0.0537
  613ERGO    R4 6911   3.498   0.720   8.507 -0.1784 -0.1521 -0.2518
  613ERGO    R5 6912   3.565   0.518   8.460 -0.1233 -0.1837 -0.0519
  613ERGO    C1 6913   3.902   0.684   8.526 -0.1757 -0.0564 -0.0972
  613ERGO    C2 6914   4.235   0.775   8.580  0.1569 -0.2888  0.0739
  614ERGO   ROH 6915   3.563  15.931  10.113  0.1003 -0.1492 -0.0227
  614ERGO    R1 6916   3.599  15.983   9.837  0.0191  0.0275 -0.0014
  614ERGO    R2 6917   3.821  15.896   9.697  0.0086  0.1727 -0.1080
  614ERGO    R3 6918   3.635  15.785   9.533  0.0003  0.2201 -0.1313
  614ERGO    R4 6919   3.860  15.848   9.357  0.1570 -0.0958 -0.0557
  614ERGO    R5 6920   3.653  15.909   9.329  0.2211  0.0668 -0.2102
  614ERGO    C1 6921   3.709  15.715   9.005  0.2356 -0.2075 -0.0471
  614ERGO    C2 6922   3.840  15.500   8.938 -0.1701 -0.1303  0.1338
  615ERGO   ROH 6923   9.785  15.437   9.558  0.2611 -0.1180 -0.1203
  615ERGO    R1 6924   9.802  15.226   9.370  0.2501 -0.0454 -0.2028
  615ERGO    R2 6925   9.579  15.100   9.268  0.2521 -0.1908 -0.0251
  615ERGO    R3 6926   9.691  15.166   9.029 -0.0311 -0.0281 -0.1172
  615ERGO    R4 6927   9.473  14.982   8.961  0.2422 -0.4453  0.0730
  615ERGO    R5 6928   9.682  14.964   8.901  0.2440 -0.0776 -0.0690
  615ERGO    C1 6929   9.515  14.976   8.558 -0.0292 -0.4410  0.0436
  615ERGO    C2 6930   9.399  15.085   8.229 -0.2453 -0.0172  0.2681
  616ERGO   ROH 6931   4.990  16.863  10.077  0.1931  0.1289 -0.1608
  616ERGO    R1 6932   4.876  16.844   9.819  0.0928  0.1448 -0.1179
  616ERGO    R2 6933   4.999  16.947   9.594  0.1222 -0.0550 -0.1934
  616ERGO    R3 6934   4.967  16.694   9.500 -0.1521 -0.0600 -0.0950
  616ERGO    R4 6935   5.026  16.854   9.262  0.3503 -0.2589 -0.1209
  616ERGO    R5 6936   4.855  16.722   9.290  0.1153  0.0062 -0.2347
  616ERGO    C1 6937   5.012  16.562   8.980  0.2256 -0.3824  0.0137
  616ERGO    C2 6938   5.010  16.363   8.647 -0.1054  0.2492 -0.1809
  617ERGO   ROH 6939   2.302  13.020  10.216  0.0181  0.1480  0.0078
  617ERGO    R1 6940   2.450  13.032   9.975  0.0067  0.0161 -0.0086
  617ERGO    R2 6941   2.431  12.837   9.779 -0.2176  0.0413 -0.0239
  617ERGO    R3 6942   2.374  13.049   9.620 -0.0233  0.1220  0.0014
  617ERGO    R4 6943   2.386  12.822   9.437 -0.0044  0.1601 -0.0565
  617ERGO    R5 6944   2.496  13.008   9.418  0.0937  0.1254  0.0678
  617ERGO    C1 6945   2.306  13.013   9.088  0.3021  0.3051 -0.0518
  617ERGO    C2 6946   2.294  12.772   8.763 -0.0492 -0.1031 -0.2995
  618ERGO   ROH 6947  15.247  11.710   9.490  0.2077  0.0571  0.0967
  618ERGO    R1 6948  15.279  11.672   9.212  0.0453 -0.0191  0.0869
  618ERGO    R2 6949  15.452  11.825   9.059 -0.0697 -0.0350 -0.0641
  618ERGO    R3 6950  15.551  11.583   8.987 -0.0754 -0.0406 -0.0514
  618ERGO    R4 6951  15.621  11.760   8.765 -0.2176 -0.0902 -0.1373
  618ERGO    R5 6952  15.514  11.571   8.751 -0.1997 -0.1088 -0.0293
  618ERGO    C1 6953  15.812  11.494   8.525 -0.3092 -0.1274 -0.1679
  618ERGO    C2 6954  15.883  11.557   8.119 -0.0435  0.1047  0.1444
  619ERGO   ROH 6955   5.452   8.044  10.050  0.0490  0.1434  0.1060
  619ERGO    R1 6956   5.592   8.114   9.814  0.0585  0.0712  0.0901
  619ERGO    R2 6957   5.822   7.983   9.732  0.0475  0.0294  0.1258
  619ERGO    R3 6958   5.683   7.950   9.501  0.0474 -0.0158  0.1321
  619ERGO    R4 6959   5.961   7.897   9.428  0.0581  0.0516  0.1243
  619ERGO    R5 6960   5.826   8.039   9.332  0.0188  0.0133  0.1231
  619ERGO    C1 6961   5.912   7.816   9.034  0.0642  0.0220  0.1294
  619ERGO    C2 6962   6.072   7.739   8.719 -0.0713 -0.2355 -0.0050
  620ERGO   ROH 6963   6.431   4.728   9.591  0.2294  0.2204 -0.1189
  620ERGO    R1 6964   6.360   4.800   9.327  0.1646  0.0796 -0.1410
  620ERGO    R2 6965   6.544   4.899   9.145  0.0904  0.1286 -0.1912
  620ERGO    R3 6966   6.452   4.695   8.991  0.2062  0.0133 -0.1092
  620ERGO    R4 6967   6.616   4.858   8.810 -0.2290  0.2766 -0.2816
  620ERGO    R5 6968   6.409   4.797   8.778 -0.1832 -0.0185 -0.0526
  620ERGO    C1 6969   6.572   4.643   8.469 -0.3062  0.2544 -0.2573
  620ERGO    C2 6970   6.591   4.544   8.222 -0.0823  0.2152 -0.0213
  621ERGO   ROH 6971   2.427   8.175  10.172 -0.0499  0.0989  0.2099
  621ERGO    R1 6972   2.544   8.141   9.916 -0.0480  0.0232  0.2216
  621ERGO    R2 6973   2.401   8.177   9.682 -0.0433 -0.0448  0.2141
  621ERGO    R3 6974   2.603   8.349   9.623 -0.0411 -0.0645  0.1585
  621ERGO    R4 6975   2.471   8.299   9.366 -0.2660  0.1196  0.2253
  621ERGO    R5 6976   2.683   8.276   9.410 -0.2312  0.0338  0.0462
  621ERGO    C1 6977   2.701   8.532   9.127 -0.3937  0.1966  0.1795
  621ERGO    C2 6978   2.696   8.721   8.841  0.2197 -0.0985  0.3087
  622ERGO   ROH 6979  15.400  16.823  10.183  0.1338  0.0693 -0.0651
  622ERGO    R1 6980  15.366  17.005   9.968 -0.0683  0.0311 -0.0682
  622ERGO    R2 6981  15.575  17.084   9.807 -0.1546  0.2602 -0.0706
  622ERGO    R3 6982  15.411  16.999   9.607 -0.0634  0.0752 -0.0685
  622ERGO    R4 6983  15.578  17.206   9.483 -0.0684  0.0292 -0.1587
  622ERGO    R5 6984  15.360  17.198   9.484 -0.0683 -0.0239 -0.2303
  622ERGO    C1 6985  15.425  17.197   9.108  0.0675 -0.2791 -0.2081
  622ERGO    C2 6986  15.536  17.460   8.837 -0.1497 -0.0337 -0.1288
  623ERGO   ROH 6987   4.591   8.539  10.038 -0.1729  0.0863 -0.0952
  623ERGO    R1 6988   4.707   8.712   9.846  0.0209 -0.0401 -0.0942
  623ERGO    R2 6989   4.754   8.634   9.585 -0.2434 -0.0366 -0.1425
  623ERGO    R3 6990   4.608   8.855   9.527  0.0951  0.2361  0.0025
  623ERGO    R4 6991   4.666   8.734   9.266 -0.4758  0.0453 -0.0553
  623ERGO    R5 6992   4.705   8.940   9.325 -0.0005 -0.0038 -0.1518
  623ERGO    C1 6993   4.477   9.000   9.026 -0.2933  0.3491  0.1317
  623ERGO    C2 6994   4.360   9.059   8.776  0.0804  0.2069 -0.0263
  624ERGO   ROH 6995   3.819  14.947  10.099 -0.4403  0.1051  0.0158
  624ERGO    R1 6996   3.929  14.844   9.859 -0.2263  0.0886  0.1175
  624ERGO    R2 6997   3.773  14.735   9.658 -0.0379 -0.0775  0.0497
  624ERGO    R3 6998   3.903  14.918   9.504 -0.0517 -0.0467  0.0774
  624ERGO    R4 6999   3.710  14.792   9.323 -0.0247 -0.0290  0.0562
  624ERGO    R5 7000   3.924  14.811   9.291 -0.0337 -0.0060  0.0653
  624ERGO    C1 7001   3.794  14.996   8.983 -0.0300  0.0284  0.0861
  624ERGO    C2 7002   3.878  15.111   8.657  0.3065  0.2042  0.3697
  625ERGO   ROH 7003   2.614   9.660  10.142 -0.2631  0.0400  0.0334
  625ERGO    R1 7004   2.523   9.602   9.881 -0.0138  0.3137 -0.1188
  625ERGO    R2 7005   2.639   9.711   9.655  0.6817 -0.0036  0.0687
  625ERGO    R3 7006   2.662   9.450   9.581  0.0495 -0.0845  0.1023
  625ERGO    R4 7007   2.590   9.591   9.334  0.6686  0.1364  0.0162
  625ERGO    R5 7008   2.488   9.418   9.420  0.1029  0.3942 -0.0741
  625ERGO    C1 7009   2.581   9.276   9.079  0.0674  0.1418  0.0172
  625ERGO    C2 7010   2.500   9.304   8.831 -0.2478 -0.0698  0.0486
  626ERGO   ROH 7011  14.669   8.054   9.870 -0.2257 -0.0242  0.1333
  626ERGO    R1 7012  14.478   8.048   9.661 -0.1840  0.0887  0.0909
  626ERGO    R2 7013  14.488   8.220   9.446  0.0029  0.0411  0.0601
  626ERGO    R3 7014  14.481   7.990   9.302 -0.1482  0.0185  0.1021
  626ERGO    R4 7015  14.467   8.204   9.101  0.3372  0.0045  0.0381
  626ERGO    R5 7016  14.329   8.036   9.123  0.0925  0.1856 -0.0670
  626ERGO    C1 7017  14.448   7.978   8.765  0.3900 -0.0379  0.0648
  626ERGO    C2 7018  14.453   8.048   8.386  0.0418  0.0579 -0.0328
  627ERGO   ROH 7019   9.216   8.826   9.844 -0.2859  0.0142  0.1657
  627ERGO    R1 7020   9.340   8.902   9.600 -0.1656  0.1440  0.2660
  627ERGO    R2 7021   9.405   8.719   9.404  0.1161  0.2221  0.2852
  627ERGO    R3 7022   9.259   8.885   9.246  0.1042  0.1342  0.2015
  627ERGO    R4 7023   9.427   8.735   9.059  0.0209 -0.0455  0.2640
  627ERGO    R5 7024   9.410   8.952   9.073  0.0701 -0.0281  0.1053
  627ERGO    C1 7025   9.302   8.901   8.711 -0.0457 -0.2840  0.1733
  627ERGO    C2 7026   9.324   8.772   8.374  0.2273  0.1429  0.0689
  628ERGO   ROH 7027   1.775   0.756  10.008  0.0140 -0.0188  0.1348
  628ERGO    R1 7028   1.788   0.749   9.725 -0.0439 -0.0153  0.1311
  628ERGO    R2 7029   1.979   0.603   9.589  0.0999  0.1975  0.0911
  628ERGO    R3 7030   1.762   0.495   9.466  0.1910 -0.0617  0.1526
  628ERGO    R4 7031   1.992   0.404   9.307  0.2418  0.2912  0.0309
  628ERGO    R5 7032   1.815   0.508   9.232  0.0716  0.0730  0.1358
  628ERGO    C1 7033   1.796   0.188   9.026  0.4100  0.1024  0.0537
  628ERGO    C2 7034   1.725  -0.195   8.991 -0.1153  0.2815 -0.0463
  629ERGO   ROH 7035  14.610   4.594   9.366 -0.0115  0.0136 -0.0135
  629ERGO    R1 7036  14.507   4.530   9.110  0.0220 -0.3261  0.0544
  629ERGO    R2 7037  14.571   4.674   8.883 -0.4699 -0.2015 -0.0142
  629ERGO    R3 7038  14.643   4.430   8.788  0.1329 -0.0516  0.0122
  629ERGO    R4 7039  14.622   4.599   8.550 -0.4153 -0.1398 -0.0206
  629ERGO    R5 7040  14.522   4.408   8.582  0.0892 -0.4099  0.0665
  629ERGO    C1 7041  14.719   4.326   8.266  0.1823  0.0368  0.0004
  629ERGO    C2 7042  14.999   4.138   8.112  0.3876  0.3430  0.0874
  630ERGO   ROH 7043  15.101   6.124   9.582 -0.1097 -0.0436 -0.0628
  630ERGO    R1 7044  15.242   6.159   9.339 -0.1624 -0.0694 -0.0963
  630ERGO    R2 7045  15.392   5.957   9.223 -0.1489 -0.0639 -0.0800
  630ERGO    R3 7046  15.236   6.010   9.007 -0.1962 -0.1394 -0.0653
  630ERGO    R4 7047  15.469   5.871   8.898 -0.1110  0.0118 -0.0920
  630ERGO    R5 7048  15.391   6.063   8.833 -0.2353 -0.0266 -0.0698
  630ERGO    C1 7049  15.368   5.870   8.505 -0.1332 -0.0149 -0.0851
  630ERGO    C2 7050  15.528   5.690   8.280  0.0072  0.2423  0.3556
  631ERGO   ROH 7051   7.390   3.422   9.505  0.1875  0.1336 -0.0602
  631ERGO    R1 7052   7.263   3.498   9.264  0.0160  0.0093 -0.0096
  631ERGO    R2 7053   7.387   3.480   9.017 -0.0359  0.2023 -0.0479
  631ERGO    R3 7054   7.167   3.335   8.953  0.1234 -0.0673 -0.0044
  631ERGO    R4 7055   7.303   3.379   8.698 -0.0223  0.1888 -0.0477
  631ERGO    R5 7056   7.095   3.424   8.743 -0.0717 -0.0923  0.0463
  631ERGO    C1 7057   7.048   3.183   8.451  0.1352 -0.0721 -0.0069
  631ERGO    C2 7058   6.904   2.851   8.285  0.0838 -0.0162  0.2297
  632ERGO   ROH 7059   0.352  10.337   9.998 -0.1214  0.0584 -0.0145
  632ERGO    R1 7060   0.436  10.338   9.728 -0.0589  0.0594  0.0046
  632ERGO    R2 7061   0.284  10.229   9.524 -0.0051  0.0452 -0.0295
  632ERGO    R3 7062   0.314  10.475   9.413  0.0037  0.0459 -0.0254
  632ERGO    R4 7063   0.353  10.289   9.191 -0.1588  0.0556 -0.0601
  632ERGO    R5 7064   0.489  10.447   9.252 -0.0860  0.0138 -0.1169
  632ERGO    C1 7065   0.421  10.555   8.893 -0.2400  0.0624 -0.0741
  632ERGO    C2 7066   0.481  10.766   8.584  0.1288  0.1308  0.0200
  633ERGO   ROH 7067   7.408   0.025   9.817  0.2841 -0.1979  0.0473
  633ERGO    R1 7068   7.479  -0.024   9.547  0.2583  0.0181 -0.0003
  633ERGO    R2 7069   7.377  -0.236   9.402  0.4729 -0.0428 -0.0659
  633ERGO    R3 7070   7.307  -0.040   9.227  0.1723 -0.0427  0.0484
  633ERGO    R4 7071   7.312  -0.286   9.066  0.4527  0.0372 -0.0739
  633ERGO    R5 7072   7.418  -0.100   9.023  0.2019  0.2011 -0.0112
  633ERGO    C1 7073   7.209  -0.131   8.706  0.1588  0.0835  0.0287
  633ERGO    C2 7074   7.128  -0.039   8.383  0.4378 -0.2096  0.3494
  634ERGO   ROH 7075   6.887   1.618   9.414  0.1431  0.0206  0.0047
  634ERGO    R1 7076   6.723   1.528   9.202  0.0776  0.0006  0.0654
  634ERGO    R2 7077   6.754   1.613   8.942  0.0296 -0.0654  0.0442
  634ERGO    R3 7078   6.769   1.347   8.890 -0.0325 -0.0798  0.0927
  634ERGO    R4 7079   6.633   1.462   8.656  0.0161 -0.0724  0.0527
  634ERGO    R5 7080   6.562   1.297   8.780 -0.0416 -0.0386  0.0787
  634ERGO    C1 7081   6.576   1.124   8.440 -0.0501 -0.0899  0.1032
  634ERGO    C2 7082   6.347   1.100   8.004 -0.0522  0.0213  0.1637
  635ERGO   ROH 7083   8.177  13.232   9.661  0.0722 -0.2152 -0.0311
  635ERGO    R1 7084   8.001  13.288   9.446  0.0020 -0.1528  0.0417
  635ERGO    R2 7085   8.020  13.161   9.202  0.0102  0.0164 -0.0480
  635ERGO    R3 7086   7.758  13.103   9.248  0.0461 -0.1339 -0.0298
  635ERGO    R4 7087   7.823  12.960   9.000  0.0477  0.0897 -0.1586
  635ERGO    R5 7088   7.659  13.099   9.030 -0.0055 -0.0050 -0.0080
  635ERGO    C1 7089   7.463  12.788   8.927  0.1032 -0.0088 -0.2059
  635ERGO    C2 7090   7.380  12.620   8.695 -0.0173 -0.0948  0.2140
  636ERGO   ROH 7091   4.413  15.456   9.934 -0.2535  0.0226  0.0593
  636ERGO    R1 7092   4.565  15.447   9.696 -0.1223  0.1503  0.1368
  636ERGO    R2 7093   4.557  15.233   9.522  0.2172  0.0993  0.1757
  636ERGO    R3 7094   4.497  15.425   9.339  0.0799 -0.0081  0.1064
  636ERGO    R4 7095   4.676  15.241   9.197  0.3606  0.1706  0.2290
  636ERGO    R5 7096   4.700  15.457   9.217  0.1009  0.2037  0.1956
  636ERGO    C1 7097   4.689  15.426   8.837  0.3152  0.1113  0.1950
  636ERGO    C2 7098   4.801  15.524   8.506 -0.0667  0.0987 -0.0610
  637ERGO   ROH 7099   8.708   5.570   9.514 -0.0363 -0.1169 -0.0503
  637ERGO    R1 7100   8.701   5.436   9.265 -0.0651 -0.0607 -0.0808
  637ERGO    R2 7101   8.485   5.452   9.093 -0.0668  0.0163 -0.0753
  637ERGO    R3 7102   8.674   5.529   8.914 -0.0550  0.0232 -0.0588
  637ERGO    R4 7103   8.484   5.372   8.757  0.0328 -0.0883 -0.0507
  637ERGO    R5 7104   8.699   5.341   8.768  0.0393 -0.0128  0.0049
  637ERGO    C1 7105   8.661   5.398   8.393  0.1018 -0.1428 -0.0210
  637ERGO    C2 7106   8.730   5.436   8.061  0.0445 -0.1540  0.0298
  638ERGO   ROH 7107   0.467  14.217   9.781  0.0329 -0.0999  0.3030
  638ERGO    R1 7108   0.467  14.373   9.545  0.0925 -0.0564  0.3316
  638ERGO    R2 7109   0.631  14.317   9.330  0.0570 -0.0917  0.3136
  638ERGO    R3 7110   0.396  14.319   9.192  0.0505  0.0402  0.3252
  638ERGO    R4 7111   0.603  14.372   8.989  0.0630 -0.0203  0.3243
  638ERGO    R5 7112   0.425  14.492   9.029  0.1211  0.0547  0.3536
  638ERGO    C1 7113   0.366  14.406   8.662  0.0603  0.1451  0.3414
  638ERGO    C2 7114   0.500  14.427   8.280 -0.0760  0.0292 -0.3365
  639ERGO   ROH 7115  14.273  13.035   9.991 -0.0179 -0.1055  0.0001
  639ERGO    R1 7116  14.469  13.133   9.813  0.0024 -0.0586  0.0487
  639ERGO    R2 7117  14.610  12.968   9.641 -0.1028  0.0079 -0.0999
  639ERGO    R3 7118  14.518  13.140   9.452 -0.0461  0.2020  0.0447
  639ERGO    R4 7119  14.783  13.058   9.356 -0.2293 -0.1204 -0.2192
  639ERGO    R5 7120  14.713  13.263   9.384  0.0637 -0.0300 -0.0783
  639ERGO    C1 7121  14.797  13.272   9.012 -0.2498 -0.0128 -0.1528
  639ERGO    C2 7122  14.893  13.161   8.683  0.2672  0.0299 -0.0568
  640ERGO   ROH 7123   2.589  16.191   9.960  0.2009  0.1963 -0.0529
  640ERGO    R1 7124   2.579  16.368   9.739  0.3394  0.0933 -0.1438
  640ERGO    R2 7125   2.700  16.311   9.497  0.0903 -0.2397 -0.1978
  640ERGO    R3 7126   2.451  16.358   9.398  0.0934  0.1060 -0.0542
  640ERGO    R4 7127   2.622  16.332   9.161 -0.0656 -0.0753 -0.1529
  640ERGO    R5 7128   2.489  16.499   9.208  0.1748  0.0941 -0.0474
  640ERGO    C1 7129   2.344  16.389   8.872 -0.1535  0.3449  0.0080
  640ERGO    C2 7130   2.258  16.179   8.658 -0.1851 -0.0060  0.0543
  641ERGO   ROH 7131  17.904  14.710  10.193  0.0832  0.1016  0.0701
  641ERGO    R1 7132  17.798  14.771   9.937 -0.2202 -0.0772  0.1480
  641ERGO    R2 7133  17.957  14.790   9.711 -0.3861  0.3876  0.0631
  641ERGO    R3 7134  17.781  14.608   9.613 -0.0001 -0.0286  0.1090
  641ERGO    R4 7135  17.882  14.748   9.376 -0.4596  0.3061  0.0891
  641ERGO    R5 7136  17.673  14.721   9.431 -0.3805 -0.2276  0.1962
  641ERGO    C1 7137  17.674  14.553   9.089 -0.1400 -0.1320  0.1473
  641ERGO    C2 7138  17.524  14.581   8.824  0.2854 -0.1880  0.2771
  642ERGO   ROH 7139  10.300  17.505   9.483  0.2667 -0.1323 -0.0658
  642ERGO    R1 7140  10.313  17.389   9.226  0.1817 -0.0587 -0.1038
  642ERGO    R2 7141  10.119  17.216   9.131  0.1470 -0.0263 -0.0924
  642ERGO    R3 7142  10.109  17.392   8.924  0.0858  0.0335 -0.0389
  642ERGO    R4 7143  10.013  17.139   8.811  0.0911  0.0564 -0.0937
  642ERGO    R5 7144  10.174  17.263   8.733  0.0616  0.0969 -0.0899
  642ERGO    C1 7145   9.942  17.260   8.431  0.0011  0.1604 -0.0443
  642ERGO    C2 7146   9.723  17.143   8.185  0.1783 -0.0991 -0.2413
  643ERGO   ROH 7147  10.299   4.227   9.366 -0.0951 -0.0513  0.1617
  643ERGO    R1 7148  10.215   4.335   9.118  0.1236  0.0297  0.1204
  643ERGO    R2 7149  10.393   4.412   8.921  0.2896 -0.3058  0.1332
  643ERGO    R3 7150  10.244   4.245   8.767  0.0409 -0.1046  0.1470
  643ERGO    R4 7151  10.399   4.404   8.576  0.2390 -0.3097  0.1319
  643ERGO    R5 7152  10.183   4.378   8.577  0.1984 -0.0155  0.1564
  643ERGO    C1 7153  10.263   4.243   8.230 -0.0239 -0.1232  0.1441
  643ERGO    C2 7154  10.229   4.126   7.929  0.0343 -0.0340 -0.0440
  644ERGO   ROH 7155   3.841   7.886   9.954  0.0697  0.2127  0.0995
  644ERGO    R1 7156   3.971   7.826   9.710  0.0235  0.0757  0.1077
  644ERGO    R2 7157   3.892   7.935   9.469 -0.0000 -0.0317  0.0653
  644ERGO    R3 7158   4.153   8.010   9.454  0.0076 -0.0726 -0.0118
  644ERGO    R4 7159   4.067   7.983   9.175 -0.0825 -0.0453  0.0137
  644ERGO    R5 7160   4.240   7.888   9.268 -0.0693 -0.0769 -0.0446
  644ERGO    C1 7161   4.414   8.083   8.990 -0.1234 -0.0915 -0.0888
  644ERGO    C2 7162   4.589   8.039   8.624 -0.2573  0.2197 -0.2693
  645ERGO   ROH 7163   0.562  11.477   9.952 -0.0962 -0.0264  0.0683
  645ERGO    R1 7164   0.489  11.392   9.692 -0.1287  0.0197  0.0623
  645ERGO    R2 7165   0.404  11.568   9.497 -0.0737  0.0655  0.0778
  645ERGO    R3 7166   0.604  11.453   9.352 -0.1130  0.0109  0.0665
  645ERGO    R4 7167   0.454  11.616   9.158 -0.0281  0.1106  0.0905
  645ERGO    R5 7168   0.502  11.403   9.141 -0.1174  0.0960  0.0503
  645ERGO    C1 7169   0.670  11.536   8.825 -0.0385  0.0854  0.0875
  645ERGO    C2 7170   0.785  11.801   8.544  0.2197 -0.1751 -0.1944
  646ERGO   ROH 7171   5.240   4.516   9.835 -0.0793 -0.0072 -0.0654
  646ERGO    R1 7172   5.384   4.607   9.609 -0.0608 -0.0007 -0.0512
  646ERGO    R2 7173   5.483   4.436   9.416 -0.0624  0.0060 -0.0592
  646ERGO    R3 7174   5.344   4.597   9.247 -0.0429  0.0284 -0.0537
  646ERGO    R4 7175   5.514   4.434   9.072  0.0335  0.1086 -0.0516
  646ERGO    R5 7176   5.501   4.652   9.075 -0.0054  0.1046  0.0053
  646ERGO    C1 7177   5.401   4.584   8.713  0.1076  0.1894 -0.0420
  646ERGO    C2 7178   5.411   4.436   8.319 -0.2385  0.0501 -0.1485
  647ERGO   ROH 7179  15.879   8.665   9.956 -0.1746 -0.2493  0.0616
  647ERGO    R1 7180  15.916   8.670   9.676 -0.1215 -0.0276  0.0698
  647ERGO    R2 7181  16.062   8.867   9.549  0.1542 -0.0823  0.2814
  647ERGO    R3 7182  16.198   8.655   9.446 -0.0965 -0.1643  0.1100
  647ERGO    R4 7183  16.308   8.889   9.307  0.1765 -0.1837  0.2960
  647ERGO    R5 7184  16.226   8.709   9.215 -0.0373 -0.0142  0.1537
  647ERGO    C1 7185  16.579   8.702   9.070 -0.0457 -0.3199  0.1437
  647ERGO    C2 7186  16.806   8.490   9.025 -0.0466  0.0238  0.1505
  648ERGO   ROH 7187   3.332  13.513  10.064 -0.1784 -0.0169 -0.0699
  648ERGO    R1 7188   3.408  13.426   9.805 -0.1586 -0.0715 -0.0464
  648ERGO    R2 7189   3.245  13.270   9.646 -0.1837 -0.0351 -0.0628
  648ERGO    R3 7190   3.286  13.468   9.465 -0.0814 -0.0655 -0.0723
  648ERGO    R4 7191   3.191  13.242   9.306 -0.0510 -0.0620 -0.0819
  648ERGO    R5 7192   3.373  13.357   9.272 -0.0235 -0.0974 -0.0241
  648ERGO    C1 7193   3.198  13.413   8.938  0.1224 -0.1062 -0.1020
  648ERGO    C2 7194   3.005  13.328   8.720  0.2967  0.0387 -0.2338
  649ERGO   ROH 7195  10.785  16.800   9.357 -0.0750 -0.0370  0.0464
  649ERGO    R1 7196  10.949  16.739   9.135 -0.0788 -0.0638  0.0510
  649ERGO    R2 7197  10.858  16.755   8.874 -0.1101 -0.1791  0.0539
  649ERGO    R3 7198  11.076  16.915   8.843 -0.1605 -0.1244 -0.0217
  649ERGO    R4 7199  11.039  16.788   8.582 -0.1135 -0.2677  0.0414
  649ERGO    R5 7200  11.222  16.790   8.701 -0.1169 -0.1492  0.0448
  649ERGO    C1 7201  11.349  16.958   8.382 -0.1627 -0.2679 -0.0368
  649ERGO    C2 7202  11.465  16.963   8.047 -0.3145  0.0778  0.0032
  650ERGO   ROH 7203  15.584  13.033  10.006 -0.0208 -0.0921 -0.0598
  650ERGO    R1 7204  15.656  13.197   9.787  0.0957 -0.0889 -0.0182
  650ERGO    R2 7205  15.889  13.161   9.644  0.0489 -0.2405 -0.0430
  650ERGO    R3 7206  15.720  13.151   9.431  0.0281 -0.0362 -0.0394
  650ERGO    R4 7207  15.973  13.250   9.320  0.1757 -0.3774 -0.0502
  650ERGO    R5 7208  15.777  13.344   9.301  0.2897 -0.1140 -0.0558
  650ERGO    C1 7209  15.863  13.293   8.933  0.2300 -0.2653 -0.0511
  650ERGO    C2 7210  15.866  13.057   8.680 -0.2097  0.0678  0.2022
  651ERGO   ROH 7211  13.369   0.516  10.160  0.1854 -0.0536  0.0634
  651ERGO    R1 7212  13.343   0.528   9.879  0.1308 -0.0555  0.0689
  651ERGO    R2 7213  13.382   0.761   9.735 -0.0524 -0.0230  0.0772
  651ERGO    R3 7214  13.559   0.608   9.597  0.0292  0.1070  0.0348
  651ERGO    R4 7215  13.454   0.798   9.399 -0.0909  0.0978  0.0811
  651ERGO    R5 7216  13.458   0.581   9.382  0.0310  0.0997  0.0319
  651ERGO    C1 7217  13.662   0.676   9.074 -0.0369  0.2902  0.0436
  651ERGO    C2 7218  13.792   0.666   8.805  0.0639 -0.2018  0.1144
  652ERGO   ROH 7219  11.239  14.162   9.747 -0.0045  0.1071 -0.0227
  652ERGO    R1 7220  11.290  14.272   9.491 -0.1978  0.1367 -0.0495
  652ERGO    R2 7221  11.479  14.167   9.319 -0.0077  0.4238 -0.0213
  652ERGO    R3 7222  11.269  14.159   9.146  0.0000  0.0111 -0.0224
  652ERGO    R4 7223  11.505  14.188   8.975 -0.0401  0.3798 -0.0267
  652ERGO    R5 7224  11.328  14.315   8.973 -0.2683  0.0744 -0.0625
  652ERGO    C1 7225  11.323  14.192   8.612 -0.0519 -0.0333 -0.0310
  652ERGO    C2 7226  11.183  14.216   8.295 -0.2333 -0.1646 -0.0741
  653ERGO   ROH 7227   5.849  16.492   9.915 -0.0012 -0.0156  0.0092
  653ERGO    R1 7228   5.741  16.368   9.685  0.0446 -0.1182  0.0427
  653ERGO    R2 7229   5.769  16.474   9.431 -0.1425 -0.0833  0.0343
  653ERGO    R3 7230   5.870  16.228   9.375  0.0828  0.0145 -0.0017
  653ERGO    R4 7231   5.820  16.348   9.113  0.1176  0.0600  0.0165
  653ERGO    R5 7232   5.747  16.155   9.183  0.2372 -0.0215 -0.0864
  653ERGO    C1 7233   5.944  16.044   8.875  0.4805  0.2352 -0.0276
  653ERGO    C2 7234   5.886  15.842   8.469  0.3724 -0.1011  0.1081
  654ERGO   ROH 7235   3.628   6.502   9.745  0.0252  0.2942  0.1692
  654ERGO    R1 7236   3.615   6.597   9.479  0.1608  0.2003  0.1282
  654ERGO    R2 7237   3.812   6.545   9.292  0.0875 -0.1646  0.1484
  654ERGO    R3 7238   3.603   6.451   9.146 -0.0523  0.0717  0.1899
  654ERGO    R4 7239   3.735   6.646   8.970  0.2964 -0.2588  0.0666
  654ERGO    R5 7240   3.524   6.642   9.025  0.2760  0.1251  0.0457
  654ERGO    C1 7241   3.494   6.616   8.646  0.2869 -0.0918  0.0580
  654ERGO    C2 7242   3.438   6.645   8.235  0.3302  0.1093  0.0149
  655ERGO   ROH 7243   0.984  11.545   9.932 -0.0408  0.1633 -0.0192
  655ERGO    R1 7244   0.953  11.613   9.659  0.1344  0.3020 -0.0051
  655ERGO    R2 7245   1.168  11.635   9.487  0.2094 -0.0752  0.0378
  655ERGO    R3 7246   1.025  11.457   9.338 -0.1250  0.2441 -0.0384
  655ERGO    R4 7247   1.221  11.571   9.151  0.3385 -0.2781  0.0945
  655ERGO    R5 7248   1.005  11.563   9.124  0.3216  0.2637 -0.0839
  655ERGO    C1 7249   1.118  11.367   8.816  0.0998 -0.0966  0.0558
  655ERGO    C2 7250   1.221  11.141   8.506 -0.0142  0.1998 -0.1581
  656ERGO   ROH 7251   9.494   9.674   9.965 -0.0795  0.1187  0.1393
  656ERGO    R1 7252   9.459   9.603   9.693  0.0313  0.0222  0.1495
  656ERGO    R2 7253   9.276   9.413   9.612  0.0226  0.0379  0.1374
  656ERGO    R3 7254   9.188   9.613   9.450  0.1488 -0.0032  0.0156
  656ERGO    R4 7255   9.189   9.375   9.280  0.1606 -0.0762  0.1132
  656ERGO    R5 7256   9.287   9.565   9.237  0.2322 -0.1188  0.0782
  656ERGO    C1 7257   9.056   9.541   8.934  0.3595 -0.1812 -0.0152
  656ERGO    C2 7258   8.837   9.611   8.651 -0.0905 -0.0818  0.1630
  657ERGO   ROH 7259   7.842   6.594  10.047 -0.0387  0.0757  0.0285
  657ERGO    R1 7260   7.860   6.616   9.765  0.0568  0.0924  0.0350
  657ERGO    R2 7261   7.814   6.853   9.631  0.0327  0.0851  0.0270
  657ERGO    R3 7262   8.060   6.805   9.526  0.0863  0.1637  0.1160
  657ERGO    R4 7263   7.920   6.956   9.318 -0.0014 -0.1642 -0.0680
  657ERGO    R5 7264   8.019   6.763   9.294  0.1515 -0.1154  0.1515
  657ERGO    C1 7265   8.213   6.969   9.038  0.0290 -0.2356 -0.0398
  657ERGO    C2 7266   8.615   7.138   8.960 -0.0367 -0.0151  0.1338
  658ERGO   ROH 7267   4.496   7.575   9.866 -0.0352  0.0304  0.0368
  658ERGO    R1 7268   4.522   7.696   9.612  0.1210  0.1106  0.0930
  658ERGO    R2 7269   4.753   7.678   9.461  0.0452 -0.2283  0.0351
  658ERGO    R3 7270   4.582   7.584   9.271 -0.1618  0.1773  0.0174
  658ERGO    R4 7271   4.823   7.661   9.123  0.1074 -0.4867  0.0558
  658ERGO    R5 7272   4.620   7.727   9.082  0.2749  0.0514 -0.0085
  658ERGO    C1 7273   4.704   7.564   8.748 -0.0509 -0.2564  0.0514
  658ERGO    C2 7274   4.836   7.616   8.448  0.0666 -0.1650  0.1856
  659ERGO   ROH 7275   8.770   7.714  10.297  0.0782 -0.0783  0.0370
  659ERGO    R1 7276   8.752   7.543  10.072  0.1920 -0.1008  0.0441
  659ERGO    R2 7277   8.579   7.592   9.862  0.0762 -0.2836  0.0943
  659ERGO    R3 7278   8.806   7.572   9.713  0.0566 -0.0448  0.0274
  659ERGO    R4 7279   8.588   7.552   9.519  0.0081 -0.4962  0.1164
  659ERGO    R5 7280   8.752   7.411   9.544  0.2297 -0.2397  0.1521
  659ERGO    C1 7281   8.805   7.509   9.179 -0.0500 -0.3960  0.0664
  659ERGO    C2 7282   8.844   7.624   8.891  0.0187  0.0054 -0.3231
  660ERGO   ROH 7283  15.435  16.567   9.761  0.2078 -0.1227 -0.1667
  660ERGO    R1 7284  15.315  16.449   9.533  0.0548 -0.0260 -0.1383
  660ERGO    R2 7285  15.246  16.595   9.309  0.0572  0.0427 -0.0964
  660ERGO    R3 7286  15.399  16.410   9.181 -0.0953 -0.0321 -0.1733
  660ERGO    R4 7287  15.268  16.560   8.966  0.0348  0.1670 -0.1110
  660ERGO    R5 7288  15.267  16.343   8.993 -0.1466  0.1568 -0.2040
  660ERGO    C1 7289  15.425  16.366   8.646 -0.1215  0.1688 -0.1918
  660ERGO    C2 7290  15.349  16.342   8.233 -0.2280 -0.1029 -0.0833
  661ERGO   ROH 7291   5.367   6.075   9.533 -0.1167 -0.1056 -0.0489
  661ERGO    R1 7292   5.427   5.968   9.278 -0.0130 -0.0184 -0.0614
  661ERGO    R2 7293   5.233   5.922   9.087  0.0365 -0.1484 -0.0787
  661ERGO    R3 7294   5.395   6.076   8.932 -0.0796  0.0075 -0.0477
  661ERGO    R4 7295   5.238   5.918   8.741  0.1435 -0.1870 -0.0775
  661ERGO    R5 7296   5.456   5.934   8.749  0.1281  0.0465 -0.0132
  661ERGO    C1 7297   5.393   6.060   8.395  0.0969 -0.0631 -0.0475
  661ERGO    C2 7298   5.208   5.953   8.100 -0.2081 -0.2093 -0.1621
  662ERGO   ROH 7299  11.299  15.450   9.730 -0.0611  0.0969 -0.1620
  662ERGO    R1 7300  11.256  15.358   9.466  0.0174  0.1555 -0.1946
  662ERGO    R2 7301  11.317  15.509   9.243  0.3223  0.1031 -0.1441
  662ERGO    R3 7302  11.461  15.289   9.173  0.1415 -0.0439 -0.0659
  662ERGO    R4 7303  11.377  15.409   8.918  0.4326  0.0794 -0.1180
  662ERGO    R5 7304  11.345  15.202   8.982  0.1711  0.0984 -0.1554
  662ERGO    C1 7305  11.546  15.143   8.663  0.3271 -0.0722 -0.0294
  662ERGO    C2 7306  11.698  14.958   8.355  0.0765 -0.1482 -0.0366
  663ERGO   ROH 7307   0.863   4.954   9.959 -0.2249  0.1308 -0.0499
  663ERGO    R1 7308   0.908   4.847   9.701  0.0901  0.1339  0.0005
  663ERGO    R2 7309   0.758   4.921   9.480  0.1201 -0.1283 -0.1059
  663ERGO    R3 7310   1.002   4.975   9.373  0.1143  0.1935  0.0293
  663ERGO    R4 7311   0.828   4.930   9.142  0.2457  0.1849 -0.0762
  663ERGO    R5 7312   1.017   4.830   9.183  0.3329  0.3402 -0.0729
  663ERGO    C1 7313   1.098   4.986   8.845  0.3132  0.6693  0.0679
  663ERGO    C2 7314   0.963   5.036   8.403 -0.1713  0.0669  0.0277
  664ERGO   ROH 7315  14.813  15.404  10.075  0.1116  0.2394  0.0098
  664ERGO    R1 7316  14.841  15.256   9.835  0.0518  0.1172  0.0773
  664ERGO    R2 7317  14.627  15.131   9.711 -0.0072  0.1857  0.1111
  664ERGO    R3 7318  14.710  15.275   9.496  0.0984  0.0436  0.0546
  664ERGO    R4 7319  14.552  15.057   9.382 -0.4086  0.3352  0.1639
  664ERGO    R5 7320  14.755  15.111   9.328 -0.3396 -0.0431  0.0075
  664ERGO    C1 7321  14.585  15.149   8.989 -0.5432  0.2888  0.1416
  664ERGO    C2 7322  14.468  14.979   8.789 -0.2087 -0.0758  0.2930
  665ERGO   ROH 7323   3.022  13.899   9.994  0.1767  0.0327  0.1742
  665ERGO    R1 7324   2.988  13.805   9.729  0.2251  0.0721  0.1529
  665ERGO    R2 7325   2.864  13.954   9.533 -0.1023 -0.0513  0.2527
  665ERGO    R3 7326   3.094  13.907   9.397 -0.0697  0.3743  0.1477
  665ERGO    R4 7327   2.890  13.945   9.189 -0.2643 -0.1403  0.2425
  665ERGO    R5 7328   3.025  13.774   9.209  0.1068  0.1487  0.2423
  665ERGO    C1 7329   3.121  13.894   8.860 -0.3280  0.2074  0.1380
  665ERGO    C2 7330   3.198  14.261   8.605 -0.1246 -0.0486 -0.2762
  666ERGO   ROH 7331   0.819   2.653   9.822 -0.0889 -0.0438 -0.0644
  666ERGO    R1 7332   0.975   2.705   9.592  0.0242 -0.0865 -0.0000
  666ERGO    R2 7333   1.123   2.509   9.465 -0.0687 -0.1571 -0.0107
  666ERGO    R3 7334   0.983   2.590   9.247  0.0546  0.0047 -0.0291
  666ERGO    R4 7335   1.241   2.500   9.140  0.0182 -0.1582  0.0223
  666ERGO    R5 7336   1.147   2.693   9.106  0.1717 -0.0803  0.0459
  666ERGO    C1 7337   1.178   2.571   8.746  0.1845 -0.0070  0.0244
  666ERGO    C2 7338   1.161   2.366   8.428 -0.0101 -0.2303 -0.0356
  667ERGO   ROH 7339   7.212  16.619   9.745  0.1445 -0.0766  0.0612
  667ERGO    R1 7340   7.186  16.460   9.513 -0.1586 -0.2529  0.2096
  667ERGO    R2 7341   6.942  16.364   9.424 -0.3632  0.1902  0.2632
  667ERGO    R3 7342   7.015  16.486   9.192 -0.0469 -0.1845  0.1552
  667ERGO    R4 7343   6.763  16.351   9.129 -0.2148  0.1181  0.1750
  667ERGO    R5 7344   6.951  16.331   9.021 -0.1789 -0.2906  0.2990
  667ERGO    C1 7345   6.727  16.458   8.740  0.1687 -0.2757  0.0222
  667ERGO    C2 7346   6.777  16.722   8.490 -0.0188 -0.1046 -0.1252
  668ERGO   ROH 7347   9.587   5.194   9.352  0.1219  0.1224  0.2045
  668ERGO    R1 7348   9.665   5.389   9.161  0.1043  0.0257  0.0963
  668ERGO    R2 7349   9.633   5.351   8.889  0.0305 -0.0928  0.1178
  668ERGO    R3 7350   9.500   5.588   8.905  0.0691 -0.0664  0.0473
  668ERGO    R4 7351   9.604   5.579   8.631  0.2033 -0.0908  0.0995
  668ERGO    R5 7352   9.633   5.740   8.775  0.1628 -0.0948  0.1107
  668ERGO    C1 7353   9.461   5.934   8.495  0.3402 -0.0649  0.0227
  668ERGO    C2 7354   9.325   6.171   8.241  0.5440 -0.4901  0.0777
  669ERGO   ROH 7355  12.235  14.243   9.816 -0.1626 -0.0555 -0.0278
  669ERGO    R1 7356  12.357  14.310   9.570 -0.2964 -0.0278 -0.0861
  669ERGO    R2 7357  12.582  14.180   9.475 -0.0595  0.3076  0.0177
  669ERGO    R3 7358  12.428  14.142   9.254  0.0016 -0.1588  0.0435
  669ERGO    R4 7359  12.701  14.173   9.151 -0.0655  0.6189  0.0047
  669ERGO    R5 7360  12.524  14.286   9.089 -0.4207  0.1215  0.0167
  669ERGO    C1 7361  12.625  14.133   8.754 -0.0117  0.3622  0.0215
  669ERGO    C2 7362  12.770  13.938   8.376  0.2199 -0.1140 -0.0408
  670ERGO   ROH 7363   1.417   7.610  10.066  0.0399 -0.0871  0.0211
  670ERGO    R1 7364   1.554   7.710   9.840 -0.0118 -0.0381  0.0113
  670ERGO    R2 7365   1.484   7.642   9.581 -0.0213 -0.0441  0.0156
  670ERGO    R3 7366   1.472   7.911   9.549 -0.0982 -0.0458  0.0303
  670ERGO    R4 7367   1.419   7.802   9.282 -0.0021 -0.0452  0.0107
  670ERGO    R5 7368   1.570   7.950   9.334 -0.0603 -0.0010  0.0555
  670ERGO    C1 7369   1.369   8.149   9.078 -0.0631 -0.0474  0.0217
  670ERGO    C2 7370   1.114   8.310   8.907 -0.0188 -0.0741 -0.1560
  671ERGO   ROH 7371  12.217   9.110   9.588 -0.0406 -0.0288 -0.0721
  671ERGO    R1 7372  12.359   9.180   9.353  0.0690 -0.1781 -0.0490
  671ERGO    R2 7373  12.380   9.010   9.136 -0.2850 -0.1083 -0.1290
  671ERGO    R3 7374  12.280   9.223   9.000  0.1135  0.1596 -0.0240
  671ERGO    R4 7375  12.422   9.066   8.798 -0.4934 -0.2504 -0.1825
  671ERGO    R5 7376  12.450   9.278   8.841  0.1091 -0.2968 -0.2126
  671ERGO    C1 7377  12.352   9.299   8.473 -0.2406 -0.0816 -0.1149
  671ERGO    C2 7378  12.302   9.150   8.146 -0.0013  0.0472 -0.3483
  672PSPI    C1 7379   3.182  10.814   6.701 -0.0380 -0.2147  0.1278
  672PSPI    C2 7380   3.467  10.586   6.537 -0.0101 -0.1490  0.0848
  672PSPI    C3 7381   3.123  10.646   6.343 -0.0061 -0.1314  0.0831
  672PSPI   PO4 7382   3.235  11.090   6.739  0.1025 -0.0590 -0.1270
  672PSPI   GL1 7383   3.474  11.136   7.179 -0.0173 -0.2411 -0.0696
  672PSPI   GL2 7384   3.732  11.100   7.242 -0.0592  0.0568 -0.1484
  672PSPI   C1A 7385   3.444  11.513   7.354  0.1343 -0.0105  0.1070
  672PSPI   C2A 7386   3.462  11.664   7.715 -0.1160 -0.2132  0.1525
  672PSPI   C3A 7387   3.223  11.696   8.084  0.2002  0.0636  0.2969
  672PSPI   C4A 7388   3.261  11.370   8.449 -0.1040 -0.0265 -0.1492
  672PSPI   C1B 7389   3.600  11.068   7.655  0.1030  0.0751  0.2264
  672PSPI   C2B 7390   3.347  10.859   7.985 -0.3966  0.1172  0.0049
  672PSPI   C3B 7391   3.080  10.912   8.257 -0.2829 -0.0977  0.1955
  672PSPI   C4B 7392   2.998  10.741   8.598 -0.0018 -0.0190  0.2517
  673PSPI    C1 7393  17.585   1.845   6.180 -0.0753 -0.1819  0.1477
  673PSPI    C2 7394  17.455   1.976   5.825 -0.0915 -0.0769  0.1918
  673PSPI    C3 7395  17.194   1.841   6.096 -0.0743 -0.2060  0.1450
  673PSPI   PO4 7396  17.813   2.003   6.196 -0.3305 -0.3830  0.1001
  673PSPI   GL1 7397  17.853   2.343   6.553  0.0394 -0.1921 -0.3519
  673PSPI   GL2 7398  17.551   2.264   6.764  0.0121 -0.3586 -0.3825
  673PSPI   C1A 7399  18.049   2.433   6.926  0.0290 -0.0405  0.0088
  673PSPI   C2A 7400  18.259   2.465   7.326  0.3081  0.1947 -0.3306
  673PSPI   C3A 7401  18.433   2.551   7.739 -0.0964 -0.1492  0.1110
  673PSPI   C4A 7402  18.779   2.312   7.853 -0.0099 -0.2179  0.2352
  673PSPI   C1B 7403  17.578   2.347   7.227  0.0178  0.1212 -0.0109
  673PSPI   C2B 7404  17.835   2.421   7.644 -0.5749  0.1441 -0.3234
  673PSPI   C3B 7405  18.048   2.300   7.861  0.3648 -0.1394 -0.3938
  673PSPI   C4B 7406  18.394   2.212   8.204  0.0406  0.0082 -0.1070
  674PSPI    C1 7407   2.715   1.846   6.412  0.1218 -0.1709 -0.0987
  674PSPI    C2 7408   3.058   2.006   6.283  0.1137 -0.1087 -0.0432
  674PSPI    C3 7409   2.865   1.739   6.056  0.0251  0.1067 -0.2251
  674PSPI   PO4 7410   2.551   2.021   6.467  0.2905  0.2099 -0.3573
  674PSPI   GL1 7411   2.209   1.990   6.885  0.0703 -0.3038  0.0187
  674PSPI   GL2 7412   2.450   1.706   6.993 -0.3682  0.1954 -0.0710
  674PSPI   C1A 7413   2.032   2.058   7.229 -0.2874  0.2977 -0.1977
  674PSPI   C2A 7414   2.219   1.969   7.578 -0.1460  0.0700 -0.1001
  674PSPI   C3A 7415   2.210   2.107   8.050  0.1294 -0.1274 -0.0958
  674PSPI   C4A 7416   2.230   2.334   8.519 -0.1113  0.1518  0.0914
  674PSPI   C1B 7417   2.565   1.485   7.304 -0.0156 -0.1509 -0.0400
  674PSPI   C2B 7418   2.643   1.564   7.589 -0.1313 -0.3073 -0.2434
  674PSPI   C3B 7419   2.491   1.741   7.932  0.2320  0.1292 -0.1446
  674PSPI   C4B 7420   2.506   1.916   8.408 -0.0891 -0.0519 -0.1484
  675PSPI    C1 7421   5.551  17.993   6.061  0.1847 -0.1929 -0.2690
  675PSPI    C2 7422   5.181  17.945   5.918  0.0619  0.1395 -0.0734
  675PSPI    C3 7423   5.496  17.838   5.696 -0.1474 -0.1091 -0.2577
  675PSPI   PO4 7424   5.486  17.919   6.390  0.0360  0.0712 -0.0264
  675PSPI   GL1 7425   5.244  17.946   6.692  0.0181  0.1959  0.1020
  675PSPI   GL2 7426   5.474  18.189   6.802  0.1724  0.1557 -0.1416
  675PSPI   C1A 7427   5.189  17.890   7.085  0.1592 -0.1771  0.2255
  675PSPI   C2A 7428   5.258  17.847   7.550 -0.0206  0.1570 -0.0764
  675PSPI   C3A 7429   5.480  17.745   7.966 -0.0368  0.0299  0.0112
  675PSPI   C4A 7430   5.630  17.502   8.242  0.0460  0.0420  0.3101
  675PSPI   C1B 7431   5.631  18.142   7.106 -0.0255  0.0660 -0.0691
  675PSPI   C2B 7432   5.646  18.142   7.470 -0.1211  0.0730  0.1503
  675PSPI   C3B 7433   5.827  18.101   7.838 -0.1767  0.2604 -0.0782
  675PSPI   C4B 7434   5.842  18.039   8.302  0.1676  0.1387 -0.0549
  676PSPI    C1 7435   1.223   3.793   6.140  0.1862  0.0277  0.0529
  676PSPI    C2 7436   1.329   3.548   5.843 -0.0046  0.2213 -0.1801
  676PSPI    C3 7437   1.572   3.846   5.952  0.2171 -0.0498  0.0879
  676PSPI   PO4 7438   1.142   3.680   6.327 -0.0913 -0.1118  0.1155
  676PSPI   GL1 7439   0.970   3.546   6.574 -0.0549 -0.1049 -0.1813
  676PSPI   GL2 7440   0.649   3.474   6.487  0.1086 -0.2980  0.0199
  676PSPI   C1A 7441   0.877   3.526   6.913  0.1228 -0.1849  0.0874
  676PSPI   C2A 7442   0.829   3.245   7.269  0.1158 -0.0547 -0.3129
  676PSPI   C3A 7443   0.851   3.255   7.729 -0.3135  0.0882  0.0955
  676PSPI   C4A 7444   0.693   3.258   8.190  0.2137 -0.2834 -0.3874
  676PSPI   C1B 7445   0.457   3.292   6.856  0.2482 -0.0149  0.0713
  676PSPI   C2B 7446   0.213   3.340   7.207  0.3322 -0.3317 -0.1481
  676PSPI   C3B 7447   0.336   3.523   7.602 -0.1594 -0.3196  0.1573
  676PSPI   C4B 7448   0.455   3.984   7.650  0.2194 -0.2294 -0.1080
  677PSPI    C1 7449  15.573  15.059   6.101 -0.0749  0.2511  0.1150
  677PSPI    C2 7450  15.963  15.146   6.088 -0.0547  0.1412 -0.0613
  677PSPI    C3 7451  15.691  15.438   6.051  0.0100  0.2184  0.0656
  677PSPI   PO4 7452  15.546  14.908   6.344 -0.0546  0.0003 -0.0062
  677PSPI   GL1 7453  15.325  14.742   6.639  0.1025  0.0259 -0.0685
  677PSPI   GL2 7454  15.233  15.081   6.795 -0.2783 -0.0381 -0.0788
  677PSPI   C1A 7455  15.510  14.701   7.015  0.0244  0.0092  0.0764
  677PSPI   C2A 7456  15.564  14.870   7.461  0.0156 -0.4395  0.2894
  677PSPI   C3A 7457  15.356  14.968   7.914  0.1177  0.1572  0.2222
  677PSPI   C4A 7458  15.167  15.113   8.198 -0.1405  0.0189  0.0069
  677PSPI   C1B 7459  15.075  14.882   7.187 -0.0086 -0.1681  0.0133
  677PSPI   C2B 7460  15.109  14.694   7.519 -0.0075  0.0750  0.2449
  677PSPI   C3B 7461  15.000  14.585   7.937 -0.5102  0.0685 -0.3207
  677PSPI   C4B 7462  14.781  14.306   8.182  0.0432  0.1575 -0.1850
  678PSPI    C1 7463  10.179   0.554   5.727  0.1661  0.3571 -0.0335
  678PSPI    C2 7464  10.513   0.529   5.509  0.1301  0.2323 -0.0749
  678PSPI    C3 7465  10.186   0.699   5.354  0.1072  0.1518 -0.1158
  678PSPI   PO4 7466  10.190   0.305   5.882 -0.0434 -0.0568  0.1232
  678PSPI   GL1 7467   9.975   0.446   6.238 -0.1756 -0.0938  0.0818
  678PSPI   GL2 7468  10.044   0.141   6.365  0.1402  0.0818  0.0465
  678PSPI   C1A 7469  10.132   0.535   6.625 -0.3544  0.1010  0.2022
  678PSPI   C2A 7470  10.227   0.453   7.027  0.0701 -0.3085  0.0769
  678PSPI   C3A 7471  10.159   0.075   7.234  0.0166  0.1532 -0.1364
  678PSPI   C4A 7472  10.007  -0.062   7.658 -0.0309 -0.1512 -0.3295
  678PSPI   C1B 7473  10.268  -0.158   6.612  0.4248 -0.1209 -0.0488
  678PSPI   C2B 7474  10.307  -0.344   6.902  0.1162 -0.0728  0.0583
  678PSPI   C3B 7475  10.226  -0.544   7.317  0.0128 -0.2498  0.1321
  678PSPI   C4B 7476  10.029  -0.792   7.647  0.2362  0.1763  0.0907
  679PSPI    C1 7477   9.675   7.988   5.900 -0.0066 -0.0727 -0.2884
  679PSPI    C2 7478   9.928   8.210   5.685  0.3962 -0.0066  0.2340
  679PSPI    C3 7479   9.680   8.385   5.945  0.2264 -0.1185  0.1486
  679PSPI   PO4 7480   9.821   7.746   6.066 -0.1098  0.1105 -0.1739
  679PSPI   GL1 7481   9.933   7.725   6.424  0.0095  0.2263  0.2672
  679PSPI   GL2 7482   9.749   7.487   6.602  0.1210 -0.1724  0.1662
  679PSPI   C1A 7483   9.699   7.914   6.861  0.2669 -0.0717  0.0407
  679PSPI   C2A 7484   9.671   8.004   7.269 -0.2480  0.0400  0.0555
  679PSPI   C3A 7485   9.801   8.043   7.711 -0.0341 -0.1230 -0.0998
  679PSPI   C4A 7486   9.835   7.868   8.040 -0.0522 -0.2689 -0.1967
  679PSPI   C1B 7487   9.916   7.086   6.887  0.0961 -0.0249 -0.5505
  679PSPI   C2B 7488   9.963   6.673   7.084 -0.0718  0.0483  0.0133
  679PSPI   C3B 7489  10.087   6.501   7.552 -0.0452  0.0644  0.1810
  679PSPI   C4B 7490  10.015   6.683   7.973 -0.1157  0.0081 -0.3283
  680PSPI    C1 7491  13.924   0.275   6.213 -0.0692  0.0996  0.1850
  680PSPI    C2 7492  13.590   0.056   6.189 -0.0582  0.1150 -0.1674
  680PSPI    C3 7493  13.649   0.359   5.934  0.2064  0.1393 -0.0803
  680PSPI   PO4 7494  13.964   0.193   6.477 -0.2848  0.1716 -0.0619
  680PSPI   GL1 7495  13.997   0.290   6.912 -0.0559  0.1050  0.0716
  680PSPI   GL2 7496  13.867   0.508   6.827  0.0223  0.1856 -0.1859
  680PSPI   C1A 7497  13.898   0.241   7.313 -0.1739 -0.2179 -0.1865
  680PSPI   C2A 7498  13.980   0.289   7.770  0.2524  0.0374  0.0148
  680PSPI   C3A 7499  13.966   0.581   8.174 -0.1422  0.1757 -0.1485
  680PSPI   C4A 7500  14.268   0.805   8.456  0.2491  0.0629  0.3140
  680PSPI   C1B 7501  14.007   0.714   7.152  0.3252  0.1221  0.1712
  680PSPI   C2B 7502  13.988   0.705   7.577 -0.1395  0.0687 -0.0203
  680PSPI   C3B 7503  13.683   0.850   7.893  0.4749 -0.0469  0.4183
  680PSPI   C4B 7504  13.203   0.736   7.858  0.1461  0.0508 -0.1315
  681PSPI    C1 7505   7.865   5.012   5.808 -0.0519  0.1350 -0.0193
  681PSPI    C2 7506   7.484   5.121   5.751 -0.0489  0.1401 -0.0296
  681PSPI    C3 7507   7.569   4.756   5.893 -0.0534  0.0989 -0.1313
  681PSPI   PO4 7508   7.966   5.190   5.995 -0.0591 -0.1128 -0.0176
  681PSPI   GL1 7509   7.971   5.456   6.431 -0.2310  0.1643 -0.0142
  681PSPI   GL2 7510   8.074   5.094   6.493 -0.1849 -0.2693  0.1106
  681PSPI   C1A 7511   7.767   5.737   6.755  0.2264  0.0861  0.1853
  681PSPI   C2A 7512   7.467   5.971   6.815  0.0982 -0.0535 -0.0513
  681PSPI   C3A 7513   7.332   6.283   7.160  0.0385  0.0921  0.0861
  681PSPI   C4A 7514   7.102   6.622   7.215  0.0378 -0.0620  0.0797
  681PSPI   C1B 7515   8.014   5.273   6.938  0.1791  0.2660 -0.0005
  681PSPI   C2B 7516   7.796   5.376   7.136  0.1234 -0.0919 -0.2430
  681PSPI   C3B 7517   7.600   5.609   7.417  0.4326  0.2024 -0.0368
  681PSPI   C4B 7518   7.443   5.928   7.488 -0.0503  0.0391 -0.0688
  682PSPI    C1 7519  14.906  17.013   6.376  0.0925 -0.0247  0.0590
  682PSPI    C2 7520  14.908  16.660   6.186 -0.0822  0.1417 -0.2609
  682PSPI    C3 7521  15.205  16.921   6.127  0.1064  0.0071  0.0639
  682PSPI   PO4 7522  14.836  16.921   6.735  0.0777 -0.1026 -0.1787
  682PSPI   GL1 7523  14.968  16.694   7.074  0.1141 -0.2966 -0.1667
  682PSPI   GL2 7524  15.244  16.927   7.042  0.3561  0.0180 -0.0194
  682PSPI   C1A 7525  14.747  16.715   7.489 -0.3013  0.0510  0.1499
  682PSPI   C2A 7526  14.517  16.726   7.814 -0.0686  0.0756  0.0604
  682PSPI   C3A 7527  14.220  16.642   8.187 -0.1291  0.1443  0.1151
  682PSPI   C4A 7528  13.802  16.616   8.280  0.1923 -0.0128  0.3121
  682PSPI   C1B 7529  15.242  16.927   7.443 -0.2348 -0.0234 -0.3115
  682PSPI   C2B 7530  15.372  16.858   7.823  0.1243  0.0764 -0.1202
  682PSPI   C3B 7531  15.429  16.862   8.271  0.0575 -0.0680 -0.2343
  682PSPI   C4B 7532  15.363  16.946   8.688  0.0222 -0.1038  0.0418
  683PSPI    C1 7533   0.754   3.039   5.892 -0.1950 -0.1624  0.0954
  683PSPI    C2 7534   1.046   2.784   5.990  0.0235  0.0471 -0.0007
  683PSPI    C3 7535   1.122   3.090   5.744 -0.2540  0.1623  0.0533
  683PSPI   PO4 7536   0.598   3.065   6.175  0.0007 -0.0267 -0.0562
  683PSPI   GL1 7537   0.799   2.846   6.418  0.1659 -0.0841 -0.1636
  683PSPI   GL2 7538   0.934   2.606   6.432 -0.0431 -0.0729  0.1354
  683PSPI   C1A 7539   0.983   3.031   6.789 -0.1063 -0.1054 -0.2377
  683PSPI   C2A 7540   1.050   2.790   7.163  0.1009 -0.0072 -0.1187
  683PSPI   C3A 7541   0.998   2.807   7.635 -0.0498 -0.2213 -0.2141
  683PSPI   C4A 7542   0.724   2.732   7.932  0.0707 -0.1811 -0.0272
  683PSPI   C1B 7543   0.847   2.373   6.837 -0.0378 -0.0741  0.1265
  683PSPI   C2B 7544   1.017   2.039   7.079 -0.3164 -0.1941 -0.1441
  683PSPI   C3B 7545   1.122   1.870   7.552 -0.0789  0.0573  0.0048
  683PSPI   C4B 7546   1.044   1.799   8.063 -0.2286 -0.0740 -0.0075
  684PSPI    C1 7547  15.052  12.974   6.058 -0.0369 -0.0033 -0.1577
  684PSPI    C2 7548  15.241  12.651   5.917 -0.1157 -0.0595 -0.1353
  684PSPI    C3 7549  14.844  12.686   5.874 -0.1218 -0.0152 -0.0445
  684PSPI   PO4 7550  15.071  12.931   6.296  0.2889 -0.1624 -0.2206
  684PSPI   GL1 7551  15.231  12.861   6.664  0.1107  0.2096 -0.2594
  684PSPI   GL2 7552  14.942  13.073   6.768 -0.1593  0.0427 -0.1204
  684PSPI   C1A 7553  15.307  12.896   7.120 -0.0351 -0.3022 -0.4024
  684PSPI   C2A 7554  15.317  12.622   7.491 -0.1513  0.2240 -0.1036
  684PSPI   C3A 7555  15.337  12.568   7.899 -0.3409 -0.3850  0.1563
  684PSPI   C4A 7556  15.596  12.368   8.173  0.3262 -0.2463 -0.0708
  684PSPI   C1B 7557  15.239  13.349   7.005  0.0802  0.0946 -0.0421
  684PSPI   C2B 7558  15.275  13.326   7.456  0.0785  0.0925 -0.3277
  684PSPI   C3B 7559  15.355  13.264   7.930  0.1701 -0.2578  0.1882
  684PSPI   C4B 7560  15.354  13.369   8.352 -0.2312 -0.4034 -0.1844
  685PSPI    C1 7561  18.046  13.175   6.058  0.0328  0.2095  0.1031
  685PSPI    C2 7562  17.862  13.127   5.705  0.0045 -0.2335  0.1717
  685PSPI    C3 7563  18.242  13.012   5.750  0.0353 -0.0991  0.2641
  685PSPI   PO4 7564  18.061  13.413   6.141  0.0819 -0.4187 -0.0581
  685PSPI   GL1 7565  17.962  13.490   6.669  0.1398 -0.1499 -0.1504
  685PSPI   GL2 7566  18.228  13.285   6.594  0.1487  0.0340 -0.0489
  685PSPI   C1A 7567  17.908  13.176   7.040  0.1936  0.2910  0.2031
  685PSPI   C2A 7568  17.823  13.106   7.445  0.1721  0.1754 -0.0949
  685PSPI   C3A 7569  18.102  12.968   7.805 -0.0461  0.0992 -0.0591
  685PSPI   C4A 7570  18.021  12.842   8.285 -0.0649 -0.1008  0.2535
  685PSPI   C1B 7571  18.336  13.492   7.057 -0.0296  0.0080  0.0954
  685PSPI   C2B 7572  18.099  13.499   7.515  0.2436  0.3714 -0.2459
  685PSPI   C3B 7573  17.913  13.620   7.902 -0.0364 -0.1554  0.2327
  685PSPI   C4B 7574  18.006  13.780   8.315  0.4298  0.0277  0.0948
  686PSPI    C1 7575   1.765   1.007   6.252 -0.1157  0.0661  0.1130
  686PSPI    C2 7576   1.442   0.795   6.147 -0.1408  0.0214  0.2763
  686PSPI    C3 7577   1.439   1.194   6.117 -0.0850  0.0001 -0.0548
  686PSPI   PO4 7578   1.773   0.821   6.616 -0.1311  0.0221 -0.1337
  686PSPI   GL1 7579   1.503   0.690   6.935  0.0079  0.0765  0.1498
  686PSPI   GL2 7580   1.811   0.577   7.055  0.0889  0.0758 -0.0621
  686PSPI   C1A 7581   1.368   0.946   7.246 -0.2762 -0.0464 -0.0702
  686PSPI   C2A 7582   1.405   0.968   7.691 -0.0381  0.2432 -0.0386
  686PSPI   C3A 7583   1.306   1.069   8.092  0.0996 -0.1895  0.2252
  686PSPI   C4A 7584   1.290   1.273   8.527 -0.3334  0.2423  0.0639
  686PSPI   C1B 7585   1.753   0.593   7.434  0.0906  0.2050 -0.0221
  686PSPI   C2B 7586   1.869   0.735   7.897  0.0035 -0.1924  0.0594
  686PSPI   C3B 7587   1.676   0.495   8.192 -0.3883 -0.3259 -0.0828
  686PSPI   C4B 7588   1.541   0.174   8.556 -0.4039 -0.0709 -0.0959
  687PSPI    C1 7589   6.067   0.101   5.722  0.0000  0.0483 -0.0093
  687PSPI    C2 7590   5.790  -0.077   5.495 -0.1122  0.1827  0.0210
  687PSPI    C3 7591   5.950   0.271   5.379  0.0802  0.0815 -0.0206
  687PSPI   PO4 7592   6.049  -0.053   6.007  0.1029 -0.1524  0.1534
  687PSPI   GL1 7593   5.970  -0.148   6.409 -0.3144  0.0342 -0.0909
  687PSPI   GL2 7594   6.349  -0.282   6.366  0.0474 -0.0881 -0.1028
  687PSPI   C1A 7595   6.171  -0.332   6.802 -0.3549 -0.0510 -0.0906
  687PSPI   C2A 7596   6.216  -0.306   7.187  0.1630 -0.3058 -0.1879
  687PSPI   C3A 7597   6.277  -0.414   7.636  0.0417  0.0007 -0.2597
  687PSPI   C4A 7598   6.310  -0.229   8.044  0.1530 -0.2865 -0.1271
  687PSPI   C1B 7599   6.449   0.094   6.711  0.3280 -0.0168 -0.3773
  687PSPI   C2B 7600   6.582   0.048   7.117 -0.1468  0.1015  0.3908
  687PSPI   C3B 7601   6.619  -0.062   7.502 -0.0052 -0.3707 -0.0087
  687PSPI   C4B 7602   6.764  -0.280   7.929  0.2248 -0.0467  0.0145
  688PSPI    C1 7603   9.987  11.439   6.007 -0.0185 -0.1882 -0.4942
  688PSPI    C2 7604  10.287  11.177   5.968 -0.0111 -0.2801  0.0861
  688PSPI    C3 7605  10.187  11.414   5.661  0.5566 -0.3479 -0.1645
  688PSPI   PO4 7606   9.922  11.425   6.244 -0.0519 -0.0855 -0.2864
  688PSPI   GL1 7607   9.861  11.522   6.656 -0.2233 -0.0789  0.0993
  688PSPI   GL2 7608   9.982  11.152   6.789 -0.1948  0.0002  0.2893
  688PSPI   C1A 7609   9.883  11.633   7.098 -0.1269  0.2127 -0.3599
  688PSPI   C2A 7610   9.910  11.321   7.301  0.0091  0.2342 -0.2720
  688PSPI   C3A 7611  10.083  11.197   7.647  0.1145  0.1509 -0.0979
  688PSPI   C4A 7612  10.077  10.847   7.873 -0.1456  0.1364 -0.1895
  688PSPI   C1B 7613  10.272  11.217   6.990  0.1831 -0.0843  0.2131
  688PSPI   C2B 7614  10.395  11.366   7.325  0.0554 -0.2479  0.1575
  688PSPI   C3B 7615  10.637  11.320   7.695  0.0127 -0.1997  0.2930
  688PSPI   C4B 7616  10.807  11.127   8.094  0.0779 -0.0977  0.3709
  689PSPI    C1 7617  15.752   8.458   6.033  0.0331  0.1998 -0.0400
  689PSPI    C2 7618  15.710   8.277   5.678  0.0480  0.1019  0.0079
  689PSPI    C3 7619  16.051   8.238   5.884  0.0017  0.0744  0.0798
  689PSPI   PO4 7620  15.516   8.515   6.156 -0.0991  0.3473 -0.1142
  689PSPI   GL1 7621  15.492   8.708   6.527  0.2254  0.1120 -0.0758
  689PSPI   GL2 7622  15.557   8.799   6.827 -0.2236  0.1938  0.0503
  689PSPI   C1A 7623  15.094   8.686   6.753  0.1961  0.3985  0.2116
  689PSPI   C2A 7624  14.855   8.707   7.105 -0.2459  0.1888  0.1517
  689PSPI   C3A 7625  14.877   8.719   7.598 -0.3062 -0.0406  0.1055
  689PSPI   C4A 7626  15.117   8.595   8.089  0.0541  0.1320  0.0426
  689PSPI   C1B 7627  15.366   8.783   7.249  0.1369  0.1726 -0.0141
  689PSPI   C2B 7628  15.436   8.853   7.728 -0.2680 -0.0021  0.3832
  689PSPI   C3B 7629  15.509   8.825   8.219 -0.2296 -0.0752  0.3373
  689PSPI   C4B 7630  15.718   8.800   8.591  0.1647  0.0207  0.0628
  690PSPI    C1 7631   8.677   2.523   5.682 -0.0590 -0.1815  0.1017
  690PSPI    C2 7632   8.950   2.689   5.441 -0.1394 -0.2187 -0.0158
  690PSPI    C3 7633   8.574   2.640   5.314 -0.1646 -0.3069  0.0905
  690PSPI   PO4 7634   8.640   2.648   5.927  0.1674  0.0023 -0.2915
  690PSPI   GL1 7635   8.910   2.698   6.326  0.1961 -0.0864 -0.1445
  690PSPI   GL2 7636   9.183   2.561   6.319 -0.1251 -0.0509  0.0482
  690PSPI   C1A 7637   8.644   2.618   6.648  0.0088 -0.0719  0.0475
  690PSPI   C2A 7638   8.518   2.561   7.100 -0.1241  0.1239 -0.0787
  690PSPI   C3A 7639   8.428   2.894   7.452  0.2400  0.2252 -0.3598
  690PSPI   C4A 7640   8.360   2.978   7.846  0.0725  0.0869 -0.0398
  690PSPI   C1B 7641   9.204   2.598   6.833 -0.0749 -0.1608  0.1880
  690PSPI   C2B 7642   9.347   2.443   7.205 -0.2291  0.1611 -0.1950
  690PSPI   C3B 7643   9.297   2.487   7.715  0.0954 -0.0216  0.1285
  690PSPI   C4B 7644   9.403   2.274   8.044  0.0636 -0.1397 -0.2545
  691PSPI    C1 7645   6.819  11.812   6.399 -0.1451 -0.0525  0.2004
  691PSPI    C2 7646   6.520  11.548   6.363 -0.2057  0.0279  0.1100
  691PSPI    C3 7647   6.444  11.920   6.490 -0.1967  0.1487 -0.2281
  691PSPI   PO4 7648   7.057  11.737   6.420 -0.0575  0.1767  0.0869
  691PSPI   GL1 7649   7.212  11.820   6.741  0.0214 -0.2359 -0.1208
  691PSPI   GL2 7650   7.273  11.550   6.861  0.1267 -0.1286 -0.0205
  691PSPI   C1A 7651   7.223  12.242   6.961  0.1462 -0.0952  0.4325
  691PSPI   C2A 7652   7.157  12.280   7.426  0.0423 -0.1510 -0.1973
  691PSPI   C3A 7653   7.064  12.368   7.840 -0.1605  0.1465 -0.4967
  691PSPI   C4A 7654   7.096  12.348   8.334 -0.0249 -0.1755 -0.0471
  691PSPI   C1B 7655   7.257  11.407   7.234 -0.0562 -0.2124 -0.2061
  691PSPI   C2B 7656   7.468  11.151   7.474  0.0093  0.0054  0.2103
  691PSPI   C3B 7657   7.770  11.083   7.720  0.1572  0.2889  0.0080
  691PSPI   C4B 7658   8.143  11.298   7.483  0.2527 -0.0232 -0.2004
  692POPI    C1 7659   2.602  15.621   6.218 -0.0392 -0.0320  0.3488
  692POPI    C2 7660   2.899  15.868   6.323  0.0882  0.0178 -0.1061
  692POPI    C3 7661   2.631  15.982   6.049 -0.3251 -0.0491  0.2581
  692POPI   PO4 7662   2.428  15.558   6.431  0.0048  0.1373  0.1396
  692POPI   GL1 7663   2.322  15.658   6.874 -0.0166  0.3170 -0.1614
  692POPI   GL2 7664   2.168  15.993   6.932  0.0067 -0.2044  0.1177
  692POPI   C1A 7665   2.568  15.698   7.196  0.1743 -0.2223 -0.1330
  692POPI   D2A 7666   2.862  15.933   7.453  0.1666  0.2658  0.2961
  692POPI   C3A 7667   2.789  16.277   7.720 -0.4317  0.2703  0.0589
  692POPI   C4A 7668   2.940  16.287   8.168 -0.1829 -0.1975  0.0089
  692POPI   C1B 7669   2.077  15.833   7.314  0.1837  0.1422  0.1421
  692POPI   C2B 7670   2.389  15.869   7.673  0.2927 -0.0497  0.4195
  692POPI   C3B 7671   2.688  15.791   7.872  0.0793  0.0354 -0.0132
  692POPI   C4B 7672   2.949  15.755   8.171 -0.2631  0.0498  0.0617
  693POPI    C1 7673  13.651   5.429   5.826 -0.0240 -0.2353  0.0896
  693POPI    C2 7674  13.879   5.445   5.498  0.0109  0.0756  0.1263
  693POPI    C3 7675  13.499   5.322   5.472  0.0255  0.0595 -0.0231
  693POPI   PO4 7676  13.830   5.299   6.007 -0.1981 -0.0771  0.2773
  693POPI   GL1 7677  14.027   5.439   6.347 -0.0417  0.1090  0.0487
  693POPI   GL2 7678  14.320   5.446   6.143  0.0821  0.1653  0.0695
  693POPI   C1A 7679  14.212   5.418   6.744  0.2030 -0.2408  0.1253
  693POPI   D2A 7680  14.271   5.485   7.215 -0.0484  0.3384  0.1021
  693POPI   C3A 7681  14.061   5.198   7.487 -0.0307  0.1901  0.0708
  693POPI   C4A 7682  13.900   4.804   7.832 -0.2535 -0.2372 -0.0466
  693POPI   C1B 7683  14.570   5.666   6.511 -0.1302  0.1274 -0.0474
  693POPI   C2B 7684  14.639   5.676   6.995 -0.3066  0.1749 -0.2054
  693POPI   C3B 7685  14.530   5.878   7.383  0.0131 -0.0020 -0.2397
  693POPI   C4B 7686  14.588   5.952   7.879  0.0360 -0.0811  0.1794
  694POPI    C1 7687   2.175   5.419   5.902  0.0353  0.0403  0.0233
  694POPI    C2 7688   1.821   5.416   5.717 -0.0028  0.2564  0.0894
  694POPI    C3 7689   2.144   5.557   5.528  0.0292  0.1488  0.0634
  694POPI   PO4 7690   2.032   5.492   6.235 -0.0303 -0.1965  0.1406
  694POPI   GL1 7691   1.874   5.415   6.747  0.1965 -0.3986 -0.0982
  694POPI   GL2 7692   1.995   5.665   6.697  0.1176  0.3036 -0.1650
  694POPI   C1A 7693   1.830   5.424   7.217  0.1050 -0.1151  0.1705
  694POPI   D2A 7694   1.858   5.588   7.591  0.0417 -0.2626  0.0655
  694POPI   C3A 7695   1.428   5.721   7.744  0.1124 -0.0182 -0.1380
  694POPI   C4A 7696   1.252   5.889   8.096  0.3269 -0.0811 -0.0582
  694POPI   C1B 7697   2.184   5.839   7.048 -0.1231  0.2179 -0.3520
  694POPI   C2B 7698   2.148   5.910   7.392 -0.0573 -0.1180 -0.0779
  694POPI   C3B 7699   2.093   6.015   7.812 -0.0312  0.0648 -0.0807
  694POPI   C4B 7700   2.114   6.238   8.220  0.3269  0.0080 -0.0086
  695POPI    C1 7701  14.935   4.564   5.448 -0.0405 -0.0960 -0.0240
  695POPI    C2 7702  15.210   4.791   5.629 -0.1774  0.0567 -0.0044
  695POPI    C3 7703  15.318   4.450   5.449  0.0668  0.2475 -0.2285
  695POPI   PO4 7704  14.691   4.628   5.701  0.1065 -0.3774 -0.3483
  695POPI   GL1 7705  14.407   4.569   6.106  0.1171 -0.0269 -0.0401
  695POPI   GL2 7706  14.453   4.916   6.187 -0.2846 -0.0511 -0.2179
  695POPI   C1A 7707  14.488   4.478   6.561  0.2378  0.2648 -0.2499
  695POPI   D2A 7708  14.692   4.281   6.844 -0.1203 -0.2677  0.2898
  695POPI   C3A 7709  14.788   4.440   7.280 -0.1301 -0.2110  0.0727
  695POPI   C4A 7710  14.688   4.409   7.705  0.4296 -0.1836  0.2010
  695POPI   C1B 7711  14.456   5.126   6.487  0.1077 -0.1558 -0.1055
  695POPI   C2B 7712  14.630   5.190   6.863  0.1181 -0.0501  0.1116
  695POPI   C3B 7713  14.658   5.149   7.355 -0.3265  0.3316  0.1555
  695POPI   C4B 7714  14.819   4.870   7.580 -0.0628 -0.2245  0.3779
  696POPI    C1 7715   3.124  16.376   6.259 -0.0461  0.1937  0.1177
  696POPI    C2 7716   2.731  16.369   6.332 -0.0490  0.1147  0.0948
  696POPI    C3 7717   2.891  16.675   6.130 -0.1559 -0.0299 -0.2161
  696POPI   PO4 7718   3.218  16.276   6.496 -0.0143  0.2248  0.0406
  696POPI   GL1 7719   3.219  16.248   6.997  0.1730  0.1552  0.2028
  696POPI   GL2 7720   3.323  15.990   6.889  0.2302 -0.1065  0.0908
  696POPI   C1A 7721   3.341  16.050   7.347  0.0015  0.0059  0.2445
  696POPI   D2A 7722   3.203  15.965   7.811  0.2133 -0.0955  0.1243
  696POPI   C3A 7723   3.479  15.633   7.942 -0.0994  0.2250 -0.1675
  696POPI   C4A 7724   3.636  15.270   7.749 -0.3475 -0.1965 -0.2354
  696POPI   C1B 7725   3.224  15.651   7.171  0.0327 -0.1154  0.0087
  696POPI   C2B 7726   3.194  15.521   7.489 -0.4417  0.1081 -0.0016
  696POPI   C3B 7727   3.141  15.303   7.899  0.0793 -0.0292  0.0049
  696POPI   C4B 7728   3.292  15.296   8.328  0.2089 -0.1158  0.2867
  697POPI    C1 7729   1.452   7.945   6.580 -0.1099 -0.3744  0.1258
  697POPI    C2 7730   1.657   7.626   6.451  0.2534 -0.1292  0.0798
  697POPI    C3 7731   1.718   7.984   6.283 -0.0182  0.0016  0.2520
  697POPI   PO4 7732   1.227   7.856   6.652 -0.0012 -0.1483 -0.0172
  697POPI   GL1 7733   1.134   7.869   7.100  0.1543 -0.0922  0.0807
  697POPI   GL2 7734   0.915   8.073   7.260  0.0261 -0.0722  0.1687
  697POPI   C1A 7735   1.207   7.609   7.586 -0.1986  0.1157 -0.0198
  697POPI   D2A 7736   1.101   7.511   7.887 -0.2470  0.1370 -0.1545
  697POPI   C3A 7737   1.154   7.762   8.163 -0.2957 -0.1647 -0.2332
  697POPI   C4A 7738   1.203   7.958   8.554 -0.0900  0.0738  0.1316
  697POPI   C1B 7739   1.241   8.232   7.632  0.1801 -0.1059  0.1556
  697POPI   C2B 7740   1.380   8.292   8.030  0.2218 -0.1128 -0.1337
  697POPI   C3B 7741   1.633   7.984   8.291  0.2553 -0.1362  0.1004
  697POPI   C4B 7742   1.899   7.703   8.347 -0.0035 -0.0328  0.1066
  698POPI    C1 7743   0.105  16.148   6.371  0.1258 -0.2300  0.1834
  698POPI    C2 7744   0.479  16.089   6.242  0.0234  0.1294 -0.3090
  698POPI    C3 7745   0.172  15.921   6.049 -0.0927  0.1059 -0.1066
  698POPI   PO4 7746   0.122  16.054   6.626 -0.0042 -0.0807 -0.1211
  698POPI   GL1 7747   0.344  16.302   7.070  0.1729  0.0322 -0.0747
  698POPI   GL2 7748   0.364  15.968   7.069 -0.0663  0.0275 -0.2218
  698POPI   C1A 7749   0.439  16.250   7.549  0.1801 -0.3041  0.2441
  698POPI   D2A 7750   0.407  16.334   8.029 -0.2322 -0.2197  0.0515
  698POPI   C3A 7751   0.518  16.695   8.237 -0.3274  0.2083  0.0524
  698POPI   C4A 7752   0.652  16.916   8.512 -0.0497 -0.0922  0.1149
  698POPI   C1B 7753   0.109  15.807   7.293 -0.0275 -0.0426  0.0683
  698POPI   C2B 7754  -0.100  15.667   7.778 -0.4081  0.1869 -0.0774
  698POPI   C3B 7755  -0.263  15.658   8.279 -0.1216 -0.1589 -0.1149
  698POPI   C4B 7756  -0.303  15.836   8.712 -0.2214 -0.0730 -0.3146
  699POPI    C1 7757   2.164   4.062   6.336 -0.1254 -0.3763 -0.0887
  699POPI    C2 7758   2.061   3.966   5.962 -0.1822 -0.1781 -0.1253
  699POPI    C3 7759   2.397   4.172   6.029 -0.1736 -0.2109 -0.0673
  699POPI   PO4 7760   1.922   4.220   6.553  0.1119  0.0564 -0.0939
  699POPI   GL1 7761   2.063   4.392   6.884 -0.0190  0.5444 -0.1516
  699POPI   GL2 7762   2.280   4.169   6.935 -0.2386 -0.1509 -0.0074
  699POPI   C1A 7763   2.155   4.618   7.247  0.1154 -0.1161 -0.0075
  699POPI   D2A 7764   2.364   4.738   7.575 -0.0959  0.2143  0.3159
  699POPI   C3A 7765   2.405   4.956   7.827 -0.2402 -0.1089  0.0386
  699POPI   C4A 7766   2.383   5.163   8.243  0.2343 -0.1093 -0.1361
  699POPI   C1B 7767   2.541   4.313   7.182  0.0268 -0.1589 -0.1639
  699POPI   C2B 7768   2.833   4.550   7.422  0.0286  0.0468 -0.0462
  699POPI   C3B 7769   2.820   4.630   7.894 -0.2652 -0.1043  0.2287
  699POPI   C4B 7770   3.059   4.596   8.291  0.0370 -0.3179  0.1861
  700POPI    C1 7771   1.114  10.337   6.183  0.2747 -0.1003 -0.1360
  700POPI    C2 7772   1.018  10.045   5.927 -0.0923 -0.1106  0.0076
  700POPI    C3 7773   0.884  10.417   5.866  0.2867  0.0103 -0.1171
  700POPI   PO4 7774   1.078  10.206   6.457  0.0628  0.1504  0.0442
  700POPI   GL1 7775   0.839  10.492   6.692 -0.0127  0.0734 -0.2620
  700POPI   GL2 7776   0.780  10.277   6.966 -0.2123  0.0317 -0.1598
  700POPI   C1A 7777   0.753  10.804   7.100 -0.1830  0.1444  0.0353
  700POPI   D2A 7778   0.812  10.970   7.397 -0.1955  0.1022 -0.1049
  700POPI   C3A 7779   0.732  10.737   7.722  0.0292 -0.2381 -0.1870
  700POPI   C4A 7780   0.552  10.679   8.060  0.1831 -0.0111  0.2119
  700POPI   C1B 7781   0.742  10.329   7.385  0.0999  0.0407 -0.1397
  700POPI   C2B 7782   0.881  10.297   7.850 -0.0978 -0.1604 -0.3943
  700POPI   C3B 7783   0.916  10.117   8.258 -0.3088 -0.2690 -0.0740
  700POPI   C4B 7784   0.791  10.329   8.624  0.0988 -0.0841 -0.0637
  701POPI    C1 7785   9.155   4.325   5.197  0.0567 -0.0771  0.1542
  701POPI    C2 7786   8.902   4.544   5.416 -0.0484  0.0165 -0.0577
  701POPI    C3 7787   8.780   4.384   5.071  0.1354 -0.0738 -0.0822
  701POPI   PO4 7788   9.307   4.171   5.351  0.0844 -0.1387 -0.0426
  701POPI   GL1 7789   9.479   4.177   5.774 -0.1776 -0.2089  0.1468
  701POPI   GL2 7790   9.539   3.906   5.944  0.0414  0.0720 -0.2438
  701POPI   C1A 7791   9.674   4.283   6.196  0.0490 -0.0341 -0.4018
  701POPI   D2A 7792  10.119   4.436   6.293 -0.2402 -0.3791  0.2398
  701POPI   C3A 7793  10.180   4.600   6.731 -0.1898  0.1703 -0.1376
  701POPI   C4A 7794  10.210   4.704   7.231 -0.3773 -0.1599 -0.2108
  701POPI   C1B 7795   9.454   3.837   6.389 -0.1998  0.1309 -0.1091
  701POPI   C2B 7796   9.312   3.514   6.713 -0.1230 -0.0780  0.1754
  701POPI   C3B 7797   9.340   3.192   7.029 -0.1062  0.1521  0.0825
  701POPI   C4B 7798   9.297   2.903   7.385  0.3002  0.0991  0.0109
  702POPI    C1 7799  15.793  16.345   6.516 -0.0084 -0.0588 -0.0630
  702POPI    C2 7800  15.643  16.263   6.155 -0.0014 -0.1235 -0.0513
  702POPI    C3 7801  16.036  16.326   6.199 -0.0103 -0.0587 -0.0645
  702POPI   PO4 7802  15.764  16.189   6.674 -0.1229  0.1375 -0.2244
  702POPI   GL1 7803  15.616  15.990   7.043 -0.4920 -0.0307 -0.0440
  702POPI   GL2 7804  15.733  15.716   6.874 -0.0922  0.1874 -0.0560
  702POPI   C1A 7805  15.367  15.941   7.368  0.3002  0.0819 -0.0654
  702POPI   D2A 7806  14.989  15.737   7.435 -0.1032  0.2273 -0.4260
  702POPI   C3A 7807  14.694  15.741   7.923  0.0609 -0.0405 -0.2106
  702POPI   C4A 7808  14.519  15.849   8.270  0.4412 -0.2316  0.1716
  702POPI   C1B 7809  15.789  15.556   7.288 -0.2174 -0.1787 -0.2085
  702POPI   C2B 7810  15.762  15.232   7.742  0.0031 -0.0433  0.2789
  702POPI   C3B 7811  15.814  15.055   8.177  0.0064  0.1530 -0.1883
  702POPI   C4B 7812  15.893  15.056   8.617  0.0412  0.1792  0.1726
  703POPI    C1 7813   7.087   0.146   5.480  0.1688 -0.0795 -0.0392
  703POPI    C2 7814   7.316   0.466   5.551 -0.0661  0.0514  0.1437
  703POPI    C3 7815   7.158   0.410   5.188 -0.0051  0.1301  0.1046
  703POPI   PO4 7816   7.084   0.106   5.808 -0.1091 -0.0861  0.0955
  703POPI   GL1 7817   6.941  -0.104   6.060  0.0143  0.1516 -0.2355
  703POPI   GL2 7818   6.727   0.045   6.288 -0.1019 -0.0984 -0.0786
  703POPI   C1A 7819   7.121  -0.243   6.397  0.0144 -0.0061  0.1050
  703POPI   D2A 7820   7.230  -0.291   6.809 -0.1321 -0.0199  0.1250
  703POPI   C3A 7821   7.516  -0.217   7.140 -0.0629  0.1465  0.3616
  703POPI   C4A 7822   7.595   0.093   7.348  0.1275 -0.3827  0.0340
  703POPI   C1B 7823   6.944   0.196   6.697  0.0308  0.2415 -0.2692
  703POPI   C2B 7824   7.051   0.102   7.107 -0.3784  0.0256  0.1043
  703POPI   C3B 7825   7.114  -0.134   7.542  0.1150  0.0454  0.2207
  703POPI   C4B 7826   7.331  -0.164   7.919 -0.0406  0.0243  0.1628
  704POPI    C1 7827  15.246  12.148   5.864 -0.0634 -0.0152 -0.0559
  704POPI    C2 7828  15.141  11.785   5.732  0.3124 -0.1778  0.0786
  704POPI    C3 7829  15.375  12.020   5.508 -0.1565  0.1020 -0.1325
  704POPI   PO4 7830  15.409  12.149   6.143 -0.1110 -0.0591  0.1918
  704POPI   GL1 7831  15.382  11.901   6.572  0.1379 -0.2344 -0.1687
  704POPI   GL2 7832  15.273  12.233   6.708  0.0945 -0.1242 -0.3425
  704POPI   C1A 7833  15.333  11.746   6.975  0.3246 -0.2378 -0.1175
  704POPI   D2A 7834  15.219  11.653   7.309  0.2878 -0.1703 -0.1310
  704POPI   C3A 7835  14.894  11.845   7.501 -0.0754  0.1613  0.0334
  704POPI   C4A 7836  14.696  12.073   7.888  0.0404 -0.5990 -0.1330
  704POPI   C1B 7837  15.027  12.536   6.984  0.3138 -0.0573  0.0978
  704POPI   C2B 7838  14.838  12.964   7.379  0.1705  0.2047 -0.1116
  704POPI   C3B 7839  14.957  13.047   7.758 -0.0947  0.3459 -0.0805
  704POPI   C4B 7840  14.971  12.847   8.181  0.2234 -0.2621  0.1308
  705POPI    C1 7841  11.050  14.844   5.789  0.0541  0.1278  0.4642
  705POPI    C2 7842  10.925  15.067   5.482 -0.1164 -0.0234  0.4222
  705POPI    C3 7843  11.292  14.908   5.477 -0.1193 -0.0270  0.2957
  705POPI   PO4 7844  11.057  14.936   5.984  0.0577  0.0254 -0.1234
  705POPI   GL1 7845  10.836  14.763   6.292 -0.2309  0.1796  0.0944
  705POPI   GL2 7846  10.887  14.342   6.287 -0.1398 -0.0188  0.1646
  705POPI   C1A 7847  10.922  15.031   6.691  0.3640 -0.0117  0.0707
  705POPI   D2A 7848  10.696  15.098   7.018 -0.1499 -0.0444  0.1409
  705POPI   C3A 7849  10.825  15.264   7.375  0.1782  0.1295 -0.1226
  705POPI   C4A 7850  10.958  15.452   7.721  0.0019  0.0779  0.1665
  705POPI   C1B 7851  10.742  14.094   6.667  0.1423  0.1074 -0.1529
  705POPI   C2B 7852  10.796  13.982   7.075  0.0088  0.1837  0.1565
  705POPI   C3B 7853  10.809  13.633   7.274 -0.0995 -0.1805  0.0457
  705POPI   C4B 7854  10.849  13.605   7.737  0.0250  0.0055  0.1863
  706POPI    C1 7855  18.187  16.951   6.502 -0.3313  0.3080  0.1156
  706POPI    C2 7856  18.229  16.568   6.607 -0.0064  0.3764  0.2464
  706POPI    C3 7857  18.037  16.662   6.270  0.1732  0.0824  0.0567
  706POPI   PO4 7858  18.478  17.047   6.515  0.0465  0.2195 -0.1281
  706POPI   GL1 7859  18.552  16.833   6.993 -0.0603 -0.1670 -0.0643
  706POPI   GL2 7860  18.288  16.857   7.060 -0.2893 -0.2591  0.4108
  706POPI   C1A 7861  18.608  17.109   7.352 -0.1468 -0.1944 -0.2715
  706POPI   D2A 7862  18.603  17.373   7.689 -0.0726 -0.3037 -0.1685
  706POPI   C3A 7863  18.628  17.163   8.009 -0.3628  0.0696 -0.0593
  706POPI   C4A 7864  18.824  17.377   8.336 -0.2103  0.1426  0.1478
  706POPI   C1B 7865  18.297  16.720   7.532 -0.0850  0.3333  0.0719
  706POPI   C2B 7866  18.437  16.749   7.819  0.1108 -0.0466 -0.2140
  706POPI   C3B 7867  18.250  16.653   8.188  0.0060  0.0703 -0.1714
  706POPI   C4B 7868  18.185  16.460   8.497 -0.1136  0.2698 -0.3547
  707POPI    C1 7869  11.113  18.151   5.581 -0.4479 -0.1300  0.2244
  707POPI    C2 7870  11.203  17.782   5.459 -0.1563 -0.0416  0.1651
  707POPI    C3 7871  10.914  17.988   5.276 -0.1280 -0.1349  0.0141
  707POPI   PO4 7872  11.105  18.115   5.889 -0.0816 -0.0206 -0.3435
  707POPI   GL1 7873  11.056  17.857   6.350  0.0920  0.2110 -0.1006
  707POPI   GL2 7874  11.300  17.872   6.513 -0.1593  0.0290 -0.0352
  707POPI   C1A 7875  10.761  18.023   6.609 -0.0632 -0.1518 -0.1475
  707POPI   D2A 7876  10.585  18.381   6.852  0.1327 -0.0124  0.0963
  707POPI   C3A 7877  10.662  18.532   7.277  0.0651 -0.0060  0.0588
  707POPI   C4A 7878  10.896  18.605   7.683 -0.1133  0.1727 -0.0933
  707POPI   C1B 7879  11.125  17.912   6.916  0.0206 -0.1849 -0.1819
  707POPI   C2B 7880  10.732  17.972   7.153 -0.0904  0.1997 -0.2570
  707POPI   C3B 7881  10.490  18.092   7.492 -0.1117  0.0997  0.1531
  707POPI   C4B 7882  10.867  18.065   7.867 -0.0838  0.3228 -0.0291
  708POPI    C1 7883   9.242   8.200   5.932 -0.0719  0.2715 -0.0288
  708POPI    C2 7884   8.883   8.024   5.933  0.0792 -0.0482 -0.2380
  708POPI    C3 7885   8.946   8.347   5.707 -0.1917  0.2673  0.1246
  708POPI   PO4 7886   9.269   8.240   6.209 -0.1824  0.0476 -0.0317
  708POPI   GL1 7887   9.231   8.053   6.525 -0.2277  0.3026  0.3777
  708POPI   GL2 7888   8.861   7.973   6.683  0.3960 -0.1639  0.0313
  708POPI   C1A 7889   9.237   8.038   7.022  0.1263  0.0629  0.1939
  708POPI   D2A 7890   9.109   8.092   7.392 -0.2601 -0.0770  0.0392
  708POPI   C3A 7891   8.984   7.944   7.691 -0.1111 -0.0020  0.3378
  708POPI   C4A 7892   9.226   8.034   7.980 -0.2581 -0.1778  0.2583
  708POPI   C1B 7893   8.865   8.336   6.939  0.2195 -0.1634 -0.2595
  708POPI   C2B 7894   8.733   8.576   7.355 -0.2121  0.0592  0.1802
  708POPI   C3B 7895   8.776   8.459   7.810  0.2585  0.1091  0.1665
  708POPI   C4B 7896   9.071   8.456   8.098  0.0406  0.0395 -0.2562
  709POPI    C1 7897   5.036  12.834   6.283 -0.1680  0.0629  0.1439
  709POPI    C2 7898   5.151  13.177   6.111  0.0310  0.0576  0.2639
  709POPI    C3 7899   5.250  12.827   5.945 -0.2435  0.0572  0.0961
  709POPI   PO4 7900   4.922  13.000   6.509  0.1002  0.1952 -0.0596
  709POPI   GL1 7901   4.940  12.961   6.970  0.2239  0.4199 -0.0040
  709POPI   GL2 7902   5.168  12.734   7.066  0.0864 -0.0557  0.0541
  709POPI   C1A 7903   5.030  13.202   7.402 -0.0805  0.2010  0.1504
  709POPI   D2A 7904   5.254  13.381   7.766  0.0509  0.1266 -0.1262
  709POPI   C3A 7905   5.367  13.585   8.089 -0.1161  0.0044  0.1663
  709POPI   C4A 7906   5.441  13.405   8.576  0.0717 -0.0425  0.2056
  709POPI   C1B 7907   5.085  12.592   7.384  0.2109  0.3349 -0.1318
  709POPI   C2B 7908   5.086  12.533   7.761 -0.0595  0.3276  0.1841
  709POPI   C3B 7909   5.314  12.847   8.109  0.2232 -0.3520  0.0380
  709POPI   C4B 7910   5.609  13.161   8.070 -0.1483  0.1011 -0.0721
  710POPI    C1 7911  10.326   7.623   6.119  0.0442 -0.2944 -0.2843
  710POPI    C2 7912  10.263   7.813   5.772 -0.2866 -0.1427 -0.1457
  710POPI    C3 7913  10.159   7.429   5.811  0.1168 -0.2765 -0.3352
  710POPI   PO4 7914  10.514   7.823   6.248  0.0031 -0.2329  0.0871
  710POPI   GL1 7915  10.697   8.203   6.324 -0.0615  0.2315  0.3078
  710POPI   GL2 7916  10.618   8.431   6.353  0.1125 -0.2201 -0.0650
  710POPI   C1A 7917  10.827   8.222   6.794  0.0377  0.1699 -0.0106
  710POPI   D2A 7918  10.817   8.224   7.210  0.2886  0.2442 -0.1148
  710POPI   C3A 7919  10.842   8.036   7.579  0.0660  0.1324  0.1261
  710POPI   C4A 7920  10.830   7.786   7.915 -0.0121  0.2245 -0.0111
  710POPI   C1B 7921  10.549   8.622   6.767 -0.1364 -0.3350 -0.1419
  710POPI   C2B 7922  10.466   8.544   7.139  0.1492  0.4533 -0.0983
  710POPI   C3B 7923  10.564   8.462   7.560 -0.0130  0.1402 -0.2162
  710POPI   C4B 7924  10.583   8.276   7.944 -0.2425  0.3160  0.3992
  711POPI    C1 7925   9.082  14.648   5.543  0.1870  0.1022  0.1517
  711POPI    C2 7926   8.772  14.896   5.496 -0.0104 -0.1389  0.1568
  711POPI    C3 7927   8.939  14.723   5.177  0.2619  0.1578  0.1337
  711POPI   PO4 7928   9.131  14.725   5.846  0.0355  0.0567 -0.0348
  711POPI   GL1 7929   9.152  14.562   6.230  0.0534 -0.0775  0.2315
  711POPI   GL2 7930   8.887  14.724   6.468 -0.0123  0.1917  0.0404
  711POPI   C1A 7931   9.425  14.421   6.601 -0.0570 -0.0333 -0.2407
  711POPI   D2A 7932   9.600  14.150   6.843 -0.0089 -0.0809  0.1185
  711POPI   C3A 7933   9.806  14.317   7.220  0.1543 -0.2564  0.0098
  711POPI   C4A 7934   9.813  14.142   7.623 -0.0364  0.1673  0.2003
  711POPI   C1B 7935   9.030  14.606   6.881 -0.0714 -0.2021 -0.0731
  711POPI   C2B 7936   9.379  14.613   7.173 -0.0241  0.0437 -0.0886
  711POPI   C3B 7937   9.462  14.544   7.530 -0.3053 -0.3145  0.1367
  711POPI   C4B 7938   9.449  14.665   7.937 -0.2394 -0.1122 -0.1592
  712POPI    C1 7939   4.804   9.165   5.931 -0.0748  0.2580 -0.0198
  712POPI    C2 7940   4.449   8.980   5.917  0.1676 -0.2322  0.0906
  712POPI    C3 7941   4.602   9.146   5.587 -0.1386 -0.0605  0.0319
  712POPI   PO4 7942   4.847   9.041   6.163  0.1944  0.0462 -0.1793
  712POPI   GL1 7943   4.924   9.205   6.579  0.2436 -0.0432  0.1493
  712POPI   GL2 7944   5.285   9.028   6.471 -0.0854  0.0097 -0.3563
  712POPI   C1A 7945   4.922   8.999   7.005 -0.0688 -0.3289  0.2371
  712POPI   D2A 7946   4.996   9.039   7.494 -0.0058 -0.1239  0.0173
  712POPI   C3A 7947   5.140   8.904   7.910 -0.0013  0.0676  0.0072
  712POPI   C4A 7948   5.153   8.886   8.375  0.1365 -0.2085  0.4235
  712POPI   C1B 7949   5.300   8.715   6.766 -0.1500 -0.1417  0.1338
  712POPI   C2B 7950   5.272   8.659   7.114 -0.1456  0.0226  0.0894
  712POPI   C3B 7951   5.333   8.569   7.565  0.0685  0.0328  0.0042
  712POPI   C4B 7952   5.361   8.228   7.773  0.3298 -0.0220 -0.0677
  713POPI    C1 7953  15.879   9.820   6.198 -0.0448 -0.2723 -0.1185
  713POPI    C2 7954  15.888   9.426   6.266 -0.4309 -0.2677 -0.0176
  713POPI    C3 7955  15.538   9.617   6.241 -0.2442  0.1096  0.1606
  713POPI   PO4 7956  16.112   9.865   6.389  0.0885 -0.0605 -0.5264
  713POPI   GL1 7957  16.160  10.024   6.757 -0.1650  0.0137  0.2787
  713POPI   GL2 7958  16.492  10.071   6.715 -0.3377 -0.0170 -0.0925
  713POPI   C1A 7959  16.095   9.791   7.114 -0.1220  0.1237  0.3365
  713POPI   D2A 7960  15.997   9.629   7.486 -0.0159  0.0849 -0.0331
  713POPI   C3A 7961  16.117   9.537   7.921 -0.0054  0.0710  0.1515
  713POPI   C4A 7962  16.113   9.421   8.388  0.2206 -0.1271 -0.1085
  713POPI   C1B 7963  16.591   9.916   7.058 -0.1914  0.1175 -0.0893
  713POPI   C2B 7964  16.455   9.807   7.552  0.1974 -0.1330  0.0699
  713POPI   C3B 7965  16.392   9.904   8.049  0.2344  0.1114  0.2660
  713POPI   C4B 7966  16.063   9.938   8.341  0.1691  0.0479  0.1695
  714POPI    C1 7967   7.783  15.367   5.958  0.1327  0.0601  0.3171
  714POPI    C2 7968   7.813  15.072   6.227  0.2213 -0.0478  0.1898
  714POPI    C3 7969   7.856  14.993   5.837  0.1220  0.1129  0.1454
  714POPI   PO4 7970   7.865  15.618   6.072  0.0052  0.1855 -0.0625
  714POPI   GL1 7971   7.709  15.546   6.474  0.0973 -0.0539  0.0598
  714POPI   GL2 7972   7.504  15.291   6.614  0.1765  0.0261  0.2863
  714POPI   C1A 7973   7.797  15.573   6.958  0.0996  0.0203  0.2267
  714POPI   D2A 7974   8.122  15.565   7.213  0.0258  0.1310 -0.1619
  714POPI   C3A 7975   8.000  15.495   7.721  0.1857 -0.2197 -0.0985
  714POPI   C4A 7976   8.104  15.871   8.053 -0.3348  0.0861  0.1132
  714POPI   C1B 7977   7.712  15.085   6.932 -0.0998  0.1841 -0.1433
  714POPI   C2B 7978   7.748  15.044   7.422 -0.3269  0.1709  0.2976
  714POPI   C3B 7979   7.738  14.939   7.748  0.0279  0.0027  0.0802
  714POPI   C4B 7980   7.482  14.667   8.127 -0.2668  0.1336  0.3171
  715POPI    C1 7981  12.037  12.187   6.010 -0.2813 -0.1431 -0.0964
  715POPI    C2 7982  11.936  11.840   6.181 -0.0611 -0.0641  0.2008
  715POPI    C3 7983  11.654  12.072   6.019 -0.2092 -0.3834 -0.0089
  715POPI   PO4 7984  12.150  12.370   6.162  0.0938  0.1763 -0.1981
  715POPI   GL1 7985  12.222  12.247   6.534 -0.0954 -0.3934 -0.0029
  715POPI   GL2 7986  12.172  12.515   6.642  0.0858  0.1669  0.1454
  715POPI   C1A 7987  12.223  12.033   6.880 -0.3036  0.0126  0.0880
  715POPI   D2A 7988  12.151  12.055   7.277  0.2750 -0.0569 -0.2538
  715POPI   C3A 7989  11.842  12.029   7.533 -0.1675  0.2636 -0.1060
  715POPI   C4A 7990  11.513  11.849   7.650 -0.3278  0.1034  0.1225
  715POPI   C1B 7991  12.095  12.824   6.985 -0.0406  0.1632  0.0070
  715POPI   C2B 7992  12.294  13.176   7.199 -0.0347  0.1029  0.1485
  715POPI   C3B 7993  12.407  13.481   7.545 -0.0232 -0.1250  0.0568
  715POPI   C4B 7994  12.433  13.734   7.925  0.0117  0.1039 -0.1235
  716POPI    C1 7995   1.532   2.280   6.156  0.0216 -0.0481  0.0491
  716POPI    C2 7996   1.382   2.014   5.897 -0.0034  0.0386 -0.0257
  716POPI    C3 7997   1.774   2.014   5.980  0.0116  0.0374 -0.0957
  716POPI   PO4 7998   1.392   2.285   6.331  0.2400 -0.2827  0.2857
  716POPI   GL1 7999   1.356   2.152   6.761  0.0705  0.1328 -0.1087
  716POPI   GL2 8000   1.665   2.355   6.848  0.2022  0.0830  0.3614
  716POPI   C1A 8001   1.565   1.932   7.053  0.1050 -0.0116  0.2779
  716POPI   D2A 8002   1.607   1.897   7.507  0.2429  0.0663 -0.0600
  716POPI   C3A 8003   1.379   2.096   7.878 -0.0303  0.0018 -0.0192
  716POPI   C4A 8004   0.993   2.266   7.864  0.2100  0.2792  0.0820
  716POPI   C1B 8005   1.701   2.376   7.232  0.1740  0.1773  0.3979
  716POPI   C2B 8006   1.831   2.398   7.685  0.1367 -0.3322  0.1429
  716POPI   C3B 8007   1.919   2.543   8.104 -0.1080 -0.3069 -0.2313
  716POPI   C4B 8008   1.975   2.804   8.599  0.1375  0.1495  0.0599
  717POPI    C1 8009  12.663  13.308   5.914 -0.3018  0.0232  0.4769
  717POPI    C2 8010  12.416  13.619   5.866  0.0289  0.2210 -0.0255
  717POPI    C3 8011  12.803  13.682   5.948  0.0457 -0.0683  0.1291
  717POPI   PO4 8012  12.548  13.190   6.092 -0.0835  0.3634  0.2269
  717POPI   GL1 8013  12.709  13.157   6.435  0.0372 -0.3245  0.3682
  717POPI   GL2 8014  12.568  12.966   6.667  0.1470 -0.1426 -0.3329
  717POPI   C1A 8015  12.758  13.465   6.659  0.0373  0.1377 -0.2130
  717POPI   D2A 8016  12.800  13.449   7.060 -0.1703  0.1603 -0.0871
  717POPI   C3A 8017  13.092  13.437   7.210 -0.0956  0.1666  0.0869
  717POPI   C4A 8018  13.173  13.454   7.624  0.2804  0.0146 -0.4002
  717POPI   C1B 8019  12.852  12.907   6.996 -0.0562  0.0219 -0.1010
  717POPI   C2B 8020  12.869  13.009   7.441  0.0395 -0.0935 -0.2739
  717POPI   C3B 8021  12.933  13.089   7.826  0.2337 -0.4649 -0.0574
  717POPI   C4B 8022  12.838  13.511   7.979  0.0986  0.0695 -0.2903
  718POPI    C1 8023   9.311   9.143   6.222 -0.2427 -0.0778  0.2603
  718POPI    C2 8024   9.194   9.510   6.114 -0.1844 -0.1441 -0.0351
  718POPI    C3 8025   9.580   9.407   6.088 -0.1623 -0.1495  0.2794
  718POPI   PO4 8026   9.201   9.051   6.460 -0.0483  0.0050  0.0634
  718POPI   GL1 8027   9.057   9.295   6.821  0.2600 -0.0059  0.1294
  718POPI   GL2 8028   9.014   9.634   6.906  0.0160  0.1477  0.0218
  718POPI   C1A 8029   9.466   9.375   7.021  0.2470 -0.0984  0.0354
  718POPI   D2A 8030   9.600   9.671   7.039  0.1596  0.1933  0.1267
  718POPI   C3A 8031   9.667   9.915   7.290  0.0650  0.0262  0.0656
  718POPI   C4A 8032   9.836   9.871   7.668  0.1938  0.0182 -0.2650
  718POPI   C1B 8033   9.149   9.673   7.296  0.0956  0.2717 -0.0024
  718POPI   C2B 8034   9.367   9.820   7.640  0.2983 -0.1784  0.0354
  718POPI   C3B 8035   9.483   9.766   8.083  0.3085  0.1567  0.1142
  718POPI   C4B 8036   9.402   9.613   8.580  0.1198  0.3323  0.0800
  719POPI    C1 8037  15.069  17.496   6.185  0.1119  0.1042  0.0412
  719POPI    C2 8038  14.727  17.412   5.996 -0.0038  0.1567  0.2250
  719POPI    C3 8039  14.971  17.693   5.851 -0.1624  0.3004  0.2336
  719POPI   PO4 8040  15.062  17.503   6.414 -0.0245  0.2080  0.0047
  719POPI   GL1 8041  15.253  17.586   6.783  0.0066  0.0065 -0.2500
  719POPI   GL2 8042  14.981  17.348   6.892 -0.0766  0.0243 -0.2805
  719POPI   C1A 8043  15.173  17.796   7.208 -0.4817 -0.1076 -0.0049
  719POPI   D2A 8044  15.098  17.888   7.622  0.2543  0.0890 -0.0008
  719POPI   C3A 8045  15.053  18.036   8.087  0.2187  0.0275  0.0877
  719POPI   C4A 8046  14.620  18.204   8.281 -0.4583  0.3443  0.1731
  719POPI   C1B 8047  14.886  17.219   7.352 -0.0097  0.0261 -0.2769
  719POPI   C2B 8048  14.840  17.119   7.806  0.2761 -0.1499  0.0893
  719POPI   C3B 8049  14.906  17.117   8.166  0.2645 -0.2408 -0.0152
  719POPI   C4B 8050  14.606  16.914   8.445  0.1382  0.1381 -0.0817
  720POPI    C1 8051   2.117  12.393   6.023 -0.1883 -0.1874  0.1124
  720POPI    C2 8052   2.219  12.093   5.779  0.0448  0.1059 -0.1609
  720POPI    C3 8053   1.834  12.185   5.832 -0.0291 -0.2363 -0.0748
  720POPI   PO4 8054   2.272  12.288   6.249 -0.1232  0.2976  0.0183
  720POPI   GL1 8055   2.368  12.120   6.566  0.0853 -0.2482 -0.0903
  720POPI   GL2 8056   2.641  12.261   6.738  0.4560 -0.0210  0.2823
  720POPI   C1A 8057   2.526  11.759   6.671  0.0142  0.2624 -0.1748
  720POPI   D2A 8058   2.536  11.476   7.088  0.2381  0.3296  0.1663
  720POPI   C3A 8059   2.217  11.277   7.356 -0.1127 -0.1025 -0.0044
  720POPI   C4A 8060   2.108  10.946   7.750  0.1124 -0.0016 -0.1399
  720POPI   C1B 8061   2.390  12.444   7.095  0.0839 -0.1860 -0.2604
  720POPI   C2B 8062   2.292  12.508   7.506 -0.0771 -0.0764  0.1614
  720POPI   C3B 8063   2.254  12.365   7.946 -0.2463  0.1614 -0.0758
  720POPI   C4B 8064   1.998  12.507   8.279 -0.2971  0.1894 -0.0934
  721POPI    C1 8065   5.022  14.905   6.172 -0.0125 -0.0952 -0.0346
  721POPI    C2 8066   4.945  14.613   5.909  0.1052 -0.0852 -0.0805
  721POPI    C3 8067   4.863  14.994   5.816 -0.2391 -0.1222  0.0582
  721POPI   PO4 8068   4.968  14.765   6.415 -0.0030  0.2706 -0.0344
  721POPI   GL1 8069   5.035  14.581   6.827  0.0513  0.0785 -0.0324
  721POPI   GL2 8070   5.289  14.371   6.827  0.1594  0.2225 -0.0669
  721POPI   C1A 8071   4.885  14.582   7.246  0.0754 -0.1288 -0.4908
  721POPI   D2A 8072   4.905  14.557   7.663 -0.1350  0.1801 -0.0824
  721POPI   C3A 8073   4.731  14.729   8.083 -0.2158 -0.3442  0.0840
  721POPI   C4A 8074   4.921  15.085   8.231 -0.1763  0.1896 -0.1369
  721POPI   C1B 8075   5.643  14.413   7.106  0.2757 -0.1721 -0.0043
  721POPI   C2B 8076   5.908  14.150   7.365  0.1086  0.1806 -0.0186
  721POPI   C3B 8077   5.976  13.883   7.689 -0.0428  0.1499  0.3059
  721POPI   C4B 8078   5.853  13.635   8.017 -0.0007  0.0050 -0.1006
  722POPI    C1 8079   4.912  14.270   6.291  0.2069 -0.0768 -0.0403
  722POPI    C2 8080   5.151  14.071   6.040  0.1544 -0.1188 -0.0572
  722POPI    C3 8081   4.760  14.106   5.959  0.0976 -0.3143  0.1238
  722POPI   PO4 8082   4.923  14.243   6.463 -0.0527  0.1556 -0.3705
  722POPI   GL1 8083   4.813  14.094   6.848 -0.2965  0.1039  0.0074
  722POPI   GL2 8084   4.525  14.196   6.861  0.0647 -0.2161 -0.0847
  722POPI   C1A 8085   5.046  14.128   7.155  0.0298 -0.0018 -0.0907
  722POPI   D2A 8086   5.273  14.292   7.439 -0.0915 -0.0482  0.0084
  722POPI   C3A 8087   5.674  14.453   7.650  0.1525  0.0502  0.0656
  722POPI   C4A 8088   5.962  14.289   7.974  0.0611  0.0143  0.3574
  722POPI   C1B 8089   4.567  14.175   7.308 -0.0542  0.1840  0.1757
  722POPI   C2B 8090   4.519  14.266   7.747  0.1530  0.1176  0.2884
  722POPI   C3B 8091   4.432  14.207   8.183  0.2584  0.1090 -0.3157
  722POPI   C4B 8092   4.588  13.841   8.403  0.0825 -0.1266 -0.1225
  723POPI    C1 8093  10.686  16.965   5.571 -0.0475 -0.0690 -0.0352
  723POPI    C2 8094  10.872  16.929   5.219 -0.1347  0.1015 -0.0996
  723POPI    C3 8095  10.534  16.727   5.288  0.0288 -0.1460 -0.0118
  723POPI   PO4 8096  10.814  17.055   5.670  0.1117  0.1319  0.1424
  723POPI   GL1 8097  10.979  17.066   6.057  0.1233  0.0234 -0.0338
  723POPI   GL2 8098  11.102  17.459   6.000 -0.2367  0.3228  0.2902
  723POPI   C1A 8099  10.757  17.413   6.424 -0.0350 -0.1113  0.0193
  723POPI   D2A 8100  10.789  17.558   6.755 -0.0496  0.0054 -0.2484
  723POPI   C3A 8101  10.556  17.362   7.100  0.1198 -0.1774  0.0985
  723POPI   C4A 8102  10.445  17.248   7.458 -0.0996  0.0946 -0.0096
  723POPI   C1B 8103  11.254  17.367   6.419  0.0989  0.0914 -0.1670
  723POPI   C2B 8104  11.238  17.453   6.887 -0.0210  0.3549  0.0315
  723POPI   C3B 8105  10.973  17.534   7.338 -0.1271  0.1491  0.0539
  723POPI   C4B 8106  10.639  17.622   7.676  0.1272 -0.0159  0.2297
  724POPI    C1 8107  12.364  11.280   5.720 -0.0579 -0.0699 -0.2016
  724POPI    C2 8108  12.395  11.607   5.492  0.0927  0.1325  0.1021
  724POPI    C3 8109  12.724  11.436   5.643  0.0251 -0.2360 -0.1548
  724POPI   PO4 8110  12.188  11.390   6.011  0.0195 -0.0035  0.0097
  724POPI   GL1 8111  11.927  11.429   6.491 -0.3062 -0.1789  0.2774
  724POPI   GL2 8112  11.806  11.120   6.355  0.1831  0.1437 -0.0453
  724POPI   C1A 8113  12.065  11.427   6.882 -0.0831 -0.1023  0.1572
  724POPI   D2A 8114  12.302  11.175   7.101 -0.1979  0.1628 -0.0553
  724POPI   C3A 8115  12.623  10.992   6.926  0.0028  0.0133 -0.2717
  724POPI   C4A 8116  13.046  10.822   6.874 -0.1720 -0.1302 -0.0325
  724POPI   C1B 8117  11.753  11.055   6.714 -0.0864  0.0914  0.1582
  724POPI   C2B 8118  11.723  11.190   7.119  0.0831  0.2538 -0.3205
  724POPI   C3B 8119  11.848  11.000   7.529  0.0372  0.0578 -0.1673
  724POPI   C4B 8120  11.867  10.805   7.974  0.2134 -0.1350 -0.3744
  725POPI    C1 8121  13.677  15.077   6.055 -0.0631  0.0715  0.1436
  725POPI    C2 8122  13.520  15.439   6.114 -0.2236  0.0478 -0.1194
  725POPI    C3 8123  13.452  15.246   5.771  0.1690 -0.0742 -0.1332
  725POPI   PO4 8124  13.639  14.901   6.341  0.5426 -0.1950 -0.2341
  725POPI   GL1 8125  13.713  14.945   6.645  0.0189  0.0030  0.1887
  725POPI   GL2 8126  13.837  15.207   6.871 -0.0338  0.3140 -0.3001
  725POPI   C1A 8127  13.559  14.574   6.918  0.1345 -0.1790 -0.1280
  725POPI   D2A 8128  13.404  14.535   7.398 -0.2798  0.1568 -0.1354
  725POPI   C3A 8129  13.424  14.497   7.764 -0.1134 -0.0971  0.0159
  725POPI   C4A 8130  13.705  14.451   8.082  0.0171  0.0333 -0.0217
  725POPI   C1B 8131  13.548  15.012   7.181  0.2156  0.2879  0.1873
  725POPI   C2B 8132  13.449  15.017   7.665  0.3640 -0.0431 -0.0497
  725POPI   C3B 8133  13.544  14.884   8.092 -0.0406 -0.2977 -0.0253
  725POPI   C4B 8134  13.452  14.659   8.489  0.2714 -0.0189  0.2191
  726POPI    C1 8135  14.010   8.650   5.864 -0.0370  0.1112 -0.1977
  726POPI    C2 8136  13.958   8.263   5.951  0.0573  0.1431  0.0065
  726POPI    C3 8137  13.703   8.448   5.704  0.2524 -0.1537 -0.4314
  726POPI   PO4 8138  13.996   8.754   6.171 -0.0071  0.0659  0.1368
  726POPI   GL1 8139  13.935   8.763   6.495 -0.3601  0.0472  0.0236
  726POPI   GL2 8140  13.809   8.497   6.528  0.1535  0.2130  0.1594
  726POPI   C1A 8141  13.965   9.011   6.825  0.1574  0.0523  0.3117
  726POPI   D2A 8142  14.022   9.259   7.105 -0.0725  0.0083 -0.0045
  726POPI   C3A 8143  13.990   9.263   7.507  0.2334  0.2649 -0.0570
  726POPI   C4A 8144  13.842   9.265   7.949 -0.1897  0.0463  0.1729
  726POPI   C1B 8145  13.679   8.612   6.983  0.3161  0.0050 -0.0217
  726POPI   C2B 8146  13.853   8.794   7.284 -0.0005  0.1557  0.1156
  726POPI   C3B 8147  14.146   8.791   7.711  0.1385 -0.0811 -0.1058
  726POPI   C4B 8148  14.498   8.671   7.987  0.0923 -0.0270  0.2656
  727POPI    C1 8149  13.854  14.664   5.772 -0.0486  0.0664  0.0166
  727POPI    C2 8150  13.666  14.355   5.599 -0.0367  0.0056  0.1118
  727POPI    C3 8151  13.471  14.699   5.660 -0.0803 -0.0164  0.0972
  727POPI   PO4 8152  13.868  14.506   6.060  0.0896 -0.2103 -0.3352
  727POPI   GL1 8153  13.768  14.457   6.492  0.0830 -0.0427  0.0691
  727POPI   GL2 8154  13.535  14.174   6.492 -0.3097  0.0832  0.0691
  727POPI   C1A 8155  13.996  14.292   6.771 -0.2978  0.0145 -0.0159
  727POPI   D2A 8156  14.217  14.185   7.064 -0.0094  0.4433  0.0401
  727POPI   C3A 8157  13.933  14.231   7.303  0.2628 -0.0945 -0.0111
  727POPI   C4A 8158  13.836  14.241   7.653 -0.0472  0.3353 -0.0962
  727POPI   C1B 8159  13.230  14.169   6.715 -0.0870  0.0488  0.2219
  727POPI   C2B 8160  13.104  14.244   7.080 -0.2643 -0.1876  0.1050
  727POPI   C3B 8161  12.974  14.287   7.546  0.0578  0.1209  0.2056
  727POPI   C4B 8162  12.893  14.188   7.857  0.0496  0.0060 -0.1582
  728POPI    C1 8163  14.374  16.610   6.453 -0.2010  0.2790  0.0947
  728POPI    C2 8164  14.114  16.674   6.156  0.0499  0.0350 -0.1838
  728POPI    C3 8165  14.455  16.478   6.085  0.1650  0.0691  0.2454
  728POPI   PO4 8166  14.405  16.823   6.551  0.0571  0.0565 -0.0550
  728POPI   GL1 8167  14.246  17.113   6.920  0.3307 -0.0472  0.2992
  728POPI   GL2 8168  14.514  17.058   7.046 -0.0179  0.3047 -0.2087
  728POPI   C1A 8169  13.944  17.086   7.289  0.3082 -0.2823 -0.0890
  728POPI   D2A 8170  13.690  17.027   7.625  0.1137  0.1210 -0.0257
  728POPI   C3A 8171  13.385  17.352   7.838 -0.0267  0.1017  0.0429
  728POPI   C4A 8172  13.187  17.706   7.947 -0.0411 -0.2461  0.3674
  728POPI   C1B 8173  14.387  17.234   7.418  0.5978  0.0084  0.0871
  728POPI   C2B 8174  14.345  17.187   7.802 -0.0131 -0.3576  0.1955
  728POPI   C3B 8175  14.412  17.238   8.149  0.0753 -0.1365 -0.1455
  728POPI   C4B 8176  14.154  17.539   8.447 -0.4743 -0.0941  0.0765
  729POPI    C1 8177  13.050  15.825   6.128  0.2181 -0.0156 -0.1695
  729POPI    C2 8178  13.107  15.642   5.777  0.3139  0.0197 -0.1726
  729POPI    C3 8179  13.322  15.966   5.871  0.4004 -0.0820 -0.0152
  729POPI   PO4 8180  13.107  15.571   6.349 -0.2208  0.0633  0.0195
  729POPI   GL1 8181  13.370  15.312   6.604 -0.0142  0.1367  0.0551
  729POPI   GL2 8182  13.487  15.503   6.714 -0.1049 -0.0127 -0.1241
  729POPI   C1A 8183  13.172  15.291   7.050 -0.2101  0.0404  0.1847
  729POPI   D2A 8184  13.084  15.405   7.484  0.0418 -0.3672  0.0223
  729POPI   C3A 8185  13.002  15.210   7.734  0.1337 -0.1089 -0.0663
  729POPI   C4A 8186  12.730  15.198   8.079  0.2061 -0.0819  0.2673
  729POPI   C1B 8187  13.297  15.841   6.944 -0.0173 -0.0542  0.0484
  729POPI   C2B 8188  13.260  16.148   7.381  0.1576 -0.2568  0.2432
  729POPI   C3B 8189  13.104  16.286   7.723  0.0858 -0.0628  0.2992
  729POPI   C4B 8190  12.750  16.614   7.841  0.1019  0.2924  0.0685
  730POPI    C1 8191  10.521  13.207   5.797 -0.2024 -0.0224 -0.0437
  730POPI    C2 8192  10.841  12.972   5.848 -0.0031  0.2362 -0.0837
  730POPI    C3 8193  10.749  13.108   5.483 -0.0226  0.3521 -0.0360
  730POPI   PO4 8194  10.507  13.372   6.066 -0.0548 -0.2323 -0.0352
  730POPI   GL1 8195  10.614  13.688   6.382  0.0037 -0.1838 -0.3484
  730POPI   GL2 8196  10.232  13.605   6.377  0.1734 -0.0597 -0.1154
  730POPI   C1A 8197  10.835  13.512   6.776 -0.0393  0.0252 -0.1100
  730POPI   D2A 8198  10.783  13.143   6.989 -0.1456  0.0478  0.0801
  730POPI   C3A 8199  10.810  13.177   7.434  0.0937 -0.2530  0.0821
  730POPI   C4A 8200  10.722  13.129   7.878  0.2743  0.1169 -0.0834
  730POPI   C1B 8201  10.401  13.713   6.832  0.1707  0.1631 -0.1137
  730POPI   C2B 8202  10.289  13.837   7.293 -0.0660 -0.0589  0.2569
  730POPI   C3B 8203  10.495  13.953   7.681  0.3044  0.1169 -0.4140
  730POPI   C4B 8204  10.657  13.933   8.062 -0.1521  0.0637  0.0954
  731POPI    C1 8205   1.923  14.727   6.315 -0.2654  0.1349 -0.0236
  731POPI    C2 8206   2.084  14.697   5.951  0.1784  0.1861  0.1621
  731POPI    C3 8207   1.784  14.953   6.016 -0.0069  0.0676 -0.1976
  731POPI   PO4 8208   2.020  14.489   6.477 -0.1648 -0.3634 -0.0806
  731POPI   GL1 8209   1.745  14.473   6.787 -0.1605  0.2595 -0.2073
  731POPI   GL2 8210   1.621  14.238   6.676 -0.2731  0.0431 -0.2298
  731POPI   C1A 8211   1.792  14.477   7.145 -0.0694 -0.0748 -0.1866
  731POPI   D2A 8212   1.855  14.335   7.611 -0.0328  0.2594  0.0054
  731POPI   C3A 8213   1.985  14.048   7.988  0.0455  0.2310 -0.0525
  731POPI   C4A 8214   2.014  13.848   8.392 -0.0789  0.0637 -0.0196
  731POPI   C1B 8215   1.498  14.100   7.135 -0.2230 -0.0108  0.2001
  731POPI   C2B 8216   1.298  13.999   7.480 -0.1776 -0.3799  0.0463
  731POPI   C3B 8217   1.140  13.842   7.964 -0.1330 -0.0853  0.2060
  731POPI   C4B 8218   1.459  13.609   8.354  0.2843 -0.2022 -0.1592
  732POPI    C1 8219  11.557  10.895   5.813  0.1244 -0.1851 -0.0450
  732POPI    C2 8220  11.424  11.198   5.587 -0.0666 -0.0147  0.2877
  732POPI    C3 8221  11.409  10.823   5.448  0.0445  0.1100 -0.0741
  732POPI   PO4 8222  11.371  10.959   6.040 -0.1052  0.1025  0.2243
  732POPI   GL1 8223  11.462  10.746   6.423 -0.1441 -0.0802  0.1747
  732POPI   GL2 8224  11.328  10.602   6.410 -0.2421 -0.1724 -0.3466
  732POPI   C1A 8225  11.856  10.557   6.578  0.0194 -0.1272 -0.0045
  732POPI   D2A 8226  12.209  10.329   6.840 -0.2479  0.1896  0.1478
  732POPI   C3A 8227  12.235   9.884   6.979  0.0286  0.3612 -0.0432
  732POPI   C4A 8228  12.316   9.606   7.230 -0.1690 -0.1893  0.0754
  732POPI   C1B 8229  11.436  10.638   6.851 -0.0450  0.4127 -0.3130
  732POPI   C2B 8230  11.657  10.429   7.060 -0.0250 -0.1041 -0.2254
  732POPI   C3B 8231  11.971  10.229   7.253  0.0227 -0.1660 -0.0106
  732POPI   C4B 8232  12.012  10.302   7.677  0.1161 -0.1813 -0.0160
  733POPI    C1 8233  14.494   9.513   6.094  0.0263 -0.0410  0.1222
  733POPI    C2 8234  14.716   9.510   5.761 -0.0768  0.0055  0.0527
  733POPI    C3 8235  14.322   9.578   5.739 -0.1303 -0.2619  0.1561
  733POPI   PO4 8236  14.579   9.292   6.213  0.0589  0.2402 -0.0966
  733POPI   GL1 8237  14.648   9.013   6.586 -0.3640 -0.0202  0.1169
  733POPI   GL2 8238  14.587   8.725   6.628  0.2523  0.2635  0.2189
  733POPI   C1A 8239  14.469   9.022   6.959 -0.1244  0.1984  0.1558
  733POPI   D2A 8240  14.383   8.864   7.247  0.0440  0.0627 -0.3437
  733POPI   C3A 8241  14.514   9.134   7.632 -0.2806 -0.0815  0.1445
  733POPI   C4A 8242  14.301   9.429   7.930 -0.0412 -0.1593  0.2517
  733POPI   C1B 8243  14.232   8.600   6.860 -0.0170  0.0023 -0.2731
  733POPI   C2B 8244  14.046   8.352   7.262  0.0215 -0.1156 -0.1777
  733POPI   C3B 8245  13.889   8.175   7.614  0.0196  0.0002  0.1169
  733POPI   C4B 8246  13.720   8.156   8.078  0.2361  0.0027 -0.2551
  734POPI    C1 8247  14.371   0.746   6.388 -0.1603  0.1444 -0.0196
  734POPI    C2 8248  14.424   0.467   6.106 -0.1596  0.0763  0.0475
  734POPI    C3 8249  14.735   0.592   6.324 -0.2410 -0.2171  0.3414
  734POPI   PO4 8250  14.105   0.737   6.374  0.3055 -0.3315  0.1218
  734POPI   GL1 8251  13.771   0.965   6.619  0.0824  0.1732  0.1478
  734POPI   GL2 8252  13.568   0.896   6.707  0.1664  0.1898 -0.2160
  734POPI   C1A 8253  13.936   1.264   6.953 -0.4731 -0.1175  0.0769
  734POPI   D2A 8254  13.939   1.163   7.391  0.2818  0.3314 -0.1141
  734POPI   C3A 8255  14.070   1.130   7.808 -0.1332 -0.1851  0.0471
  734POPI   C4A 8256  14.234   1.233   8.227  0.0705  0.1334  0.1735
  734POPI   C1B 8257  13.521   0.948   7.123  0.0381 -0.1808  0.2130
  734POPI   C2B 8258  13.461   1.040   7.507  0.1254  0.0064  0.1631
  734POPI   C3B 8259  13.555   1.312   7.703  0.3196  0.0310 -0.1697
  734POPI   C4B 8260  13.757   1.560   8.033 -0.4115  0.3348  0.3309
  735POPI    C1 8261   0.520   9.300   6.288 -0.0912 -0.1060  0.1405
  735POPI    C2 8262   0.819   9.371   6.543 -0.0054  0.3079 -0.0671
  735POPI    C3 8263   0.890   9.174   6.203 -0.0452  0.0854  0.0517
  735POPI   PO4 8264   0.365   9.186   6.487 -0.0612  0.3199 -0.3272
  735POPI   GL1 8265   0.478   9.301   6.968  0.1056 -0.0327 -0.0670
  735POPI   GL2 8266   0.553   9.169   7.212  0.0984 -0.3452  0.3097
  735POPI   C1A 8267   0.299   9.561   7.289 -0.1994 -0.0583 -0.3167
  735POPI   D2A 8268   0.058   9.411   7.558  0.1245 -0.2080 -0.1053
  735POPI   C3A 8269   0.122   9.641   7.906 -0.1144 -0.0421  0.0219
  735POPI   C4A 8270   0.008   9.894   8.216 -0.2361  0.0991  0.1912
  735POPI   C1B 8271   0.487   8.976   7.553 -0.1361  0.0712 -0.1621
  735POPI   C2B 8272   0.515   9.009   7.954 -0.4018 -0.1899 -0.0830
  735POPI   C3B 8273   0.475   8.819   8.269  0.2636  0.0984  0.2294
  735POPI   C4B 8274   0.676   8.501   8.604  0.2808 -0.0684 -0.0389
  736POPI    C1 8275  14.679  14.936   6.072 -0.0875  0.2572  0.0560
  736POPI    C2 8276  15.042  14.882   6.232 -0.1458  0.0867  0.1322
  736POPI    C3 8277  15.005  15.066   5.879  0.0299 -0.0551  0.0381
  736POPI   PO4 8278  14.548  15.012   6.341 -0.5275 -0.4220 -0.4178
  736POPI   GL1 8279  14.342  15.113   6.737  0.0435  0.2082 -0.0837
  736POPI   GL2 8280  14.528  15.262   6.911  0.0196 -0.0901  0.1009
  736POPI   C1A 8281  14.054  14.751   6.947 -0.1042  0.0013 -0.0855
  736POPI   D2A 8282  13.883  14.680   7.353 -0.0844 -0.3078  0.0066
  736POPI   C3A 8283  13.959  14.804   7.729 -0.0403  0.1003  0.1125
  736POPI   C4A 8284  14.080  14.802   8.109 -0.1418 -0.1781 -0.1013
  736POPI   C1B 8285  14.213  15.152   7.209 -0.0558  0.1132  0.1958
  736POPI   C2B 8286  13.891  15.238   7.469  0.2350 -0.2783  0.2765
  736POPI   C3B 8287  13.835  15.279   7.898 -0.2053 -0.1927  0.0084
  736POPI   C4B 8288  13.348  15.383   8.010 -0.0488  0.1622 -0.2325
  737POPI    C1 8289   5.926  10.453   6.488  0.0916  0.1640 -0.0245
  737POPI    C2 8290   5.728  10.709   6.723 -0.0297  0.2351 -0.2019
  737POPI    C3 8291   5.760  10.781   6.331 -0.1037 -0.0441 -0.2613
  737POPI   PO4 8292   6.062  10.293   6.726  0.0388  0.0212  0.0797
  737POPI   GL1 8293   6.233  10.419   7.111 -0.3571  0.1376 -0.0283
  737POPI   GL2 8294   5.995  10.656   7.146 -0.2257  0.2219 -0.0580
  737POPI   C1A 8295   6.420  10.158   7.404  0.1908 -0.0279 -0.0536
  737POPI   D2A 8296   6.312   9.972   7.798 -0.0934  0.0818 -0.2472
  737POPI   C3A 8297   6.215   9.827   8.237  0.1865  0.0773 -0.1823
  737POPI   C4A 8298   6.164   9.635   8.643  0.2191 -0.1123 -0.3114
  737POPI   C1B 8299   6.124  10.775   7.501 -0.3674 -0.1127 -0.1243
  737POPI   C2B 8300   6.411  10.453   7.817  0.1739 -0.0205  0.0611
  737POPI   C3B 8301   6.495  10.310   8.218  0.1110  0.1209  0.0445
  737POPI   C4B 8302   6.365  10.123   8.619  0.2657 -0.1933  0.1751
  738POPI    C1 8303  12.967   6.116   5.725 -0.2231 -0.0463 -0.0460
  738POPI    C2 8304  12.936   6.192   5.334  0.0517  0.0573 -0.0497
  738POPI    C3 8305  13.207   6.387   5.555 -0.0030 -0.1055  0.1641
  738POPI   PO4 8306  12.843   5.899   5.805 -0.2553 -0.2007  0.1867
  738POPI   GL1 8307  12.557   5.775   6.176 -0.0753  0.0628 -0.5286
  738POPI   GL2 8308  12.365   5.632   6.344  0.2339 -0.0557  0.0168
  738POPI   C1A 8309  12.733   5.831   6.616  0.2419 -0.0068 -0.3228
  738POPI   D2A 8310  13.122   5.977   6.831  0.2107 -0.1126 -0.0976
  738POPI   C3A 8311  13.091   6.196   7.352 -0.1842  0.0158 -0.0527
  738POPI   C4A 8312  13.195   6.287   7.794 -0.1816  0.0825 -0.1521
  738POPI   C1B 8313  12.318   5.489   6.856  0.1358 -0.2579 -0.1007
  738POPI   C2B 8314  12.213   5.633   7.289 -0.0488  0.0620  0.0152
  738POPI   C3B 8315  12.240   5.620   7.742  0.1679 -0.1738  0.3452
  738POPI   C4B 8316  12.082   5.593   8.120 -0.1106  0.2236 -0.1302
  739POPS   CNO 8317   2.305   8.799   6.149 -0.0338  0.0182 -0.3157
  739POPS   PO4 8318   2.224   8.657   6.512 -0.1026  0.1574  0.0662
  739POPS   GL1 8319   1.971   8.724   6.847  0.0108  0.0876 -0.2240
  739POPS   GL2 8320   1.625   8.705   6.955  0.5782  0.2451  0.0376
  739POPS   C1A 8321   2.180   8.905   7.181 -0.1086 -0.1979 -0.1114
  739POPS   D2A 8322   2.085   8.927   7.637 -0.1047 -0.2148  0.2390
  739POPS   C3A 8323   2.008   8.635   7.950  0.0037 -0.0351  0.0185
  739POPS   C4A 8324   1.930   8.541   8.452  0.2509 -0.1153 -0.0931
  739POPS   C1B 8325   1.431   8.633   7.332  0.2510  0.0027 -0.0804
  739POPS   C2B 8326   1.510   8.678   7.726 -0.1961 -0.1935  0.0979
  739POPS   C3B 8327   1.549   8.805   8.090 -0.2872 -0.0527 -0.0739
  739POPS   C4B 8328   1.770   8.995   8.585  0.0979  0.0245 -0.0341
  740POPS   CNO 8329  12.287   4.337   5.852  0.0443 -0.1170 -0.3805
  740POPS   PO4 8330  12.253   4.757   5.934  0.0625  0.1937 -0.0423
  740POPS   GL1 8331  12.164   4.672   6.389  0.4949  0.1946 -0.1519
  740POPS   GL2 8332  11.953   4.540   6.375 -0.2838  0.0770  0.6384
  740POPS   C1A 8333  12.008   4.857   6.800  0.0807  0.1250 -0.1091
  740POPS   D2A 8334  12.243   5.076   7.070  0.0253  0.1243  0.1189
  740POPS   C3A 8335  12.272   5.189   7.487 -0.1633  0.1460 -0.1364
  740POPS   C4A 8336  12.412   5.160   7.910  0.0276 -0.2710  0.1990
  740POPS   C1B 8337  11.800   4.436   6.761  0.0361 -0.3380 -0.2764
  740POPS   C2B 8338  11.936   4.304   7.144 -0.0465  0.0656 -0.0606
  740POPS   C3B 8339  12.200   4.206   7.427 -0.0966  0.1868 -0.0358
  740POPS   C4B 8340  12.262   3.817   7.659 -0.1353 -0.0558  0.2639
  741POPS   CNO 8341   6.509  16.438   6.106  0.0899 -0.1354 -0.0728
  741POPS   PO4 8342   6.629  16.701   5.851  0.3037 -0.0319 -0.3732
  741POPS   GL1 8343   6.899  16.686   6.202 -0.3435 -0.1424 -0.3161
  741POPS   GL2 8344   6.772  16.821   6.451  0.2326  0.2793 -0.0730
  741POPS   C1A 8345   7.095  16.486   6.613  0.1773  0.3132  0.1936
  741POPS   D2A 8346   7.432  16.489   6.896 -0.1939  0.0890 -0.3301
  741POPS   C3A 8347   7.367  16.663   7.337 -0.0175  0.0602 -0.0779
  741POPS   C4A 8348   7.223  17.065   7.572 -0.0125 -0.2269 -0.1712
  741POPS   C1B 8349   6.866  16.976   6.791  0.2702 -0.0324 -0.0698
  741POPS   C2B 8350   6.893  16.814   7.115 -0.0717 -0.0633  0.0053
  741POPS   C3B 8351   6.795  16.658   7.508 -0.1932 -0.0475  0.0778
  741POPS   C4B 8352   6.871  16.797   7.906 -0.1780  0.0599 -0.1159
  742POPS   CNO 8353   8.115  12.232   5.864 -0.1466  0.1039  0.0463
  742POPS   PO4 8354   7.912  12.507   5.959  0.2464 -0.1146 -0.2309
  742POPS   GL1 8355   7.946  12.515   6.383 -0.1133 -0.3775  0.1380
  742POPS   GL2 8356   7.712  12.481   6.506  0.0549 -0.0657  0.1543
  742POPS   C1A 8357   8.069  12.747   6.799 -0.0389 -0.2366 -0.4890
  742POPS   D2A 8358   8.423  12.912   7.007  0.1094 -0.0056 -0.2406
  742POPS   C3A 8359   8.870  13.038   6.806  0.3009  0.1454 -0.0317
  742POPS   C4A 8360   9.203  13.160   6.618 -0.2990  0.0263  0.0740
  742POPS   C1B 8361   7.791  12.373   6.997 -0.1657 -0.0739  0.0334
  742POPS   C2B 8362   7.944  12.668   7.298 -0.0929 -0.3567 -0.0206
  742POPS   C3B 8363   8.309  12.863   7.532 -0.0552  0.2648  0.1087
  742POPS   C4B 8364   8.779  12.859   7.718 -0.0921 -0.0248 -0.1729
  743POPS   CNO 8365   5.309  16.275   5.870  0.1183 -0.0251  0.0783
  743POPS   PO4 8366   5.708  16.372   5.702  0.1470 -0.0324 -0.3025
  743POPS   GL1 8367   5.984  16.537   6.077  0.0790  0.0129  0.1510
  743POPS   GL2 8368   5.797  16.798   6.192  0.2547 -0.2168  0.1279
  743POPS   C1A 8369   6.158  16.525   6.525 -0.2805  0.0100 -0.3446
  743POPS   D2A 8370   6.455  16.682   6.808  0.1615 -0.1460 -0.1266
  743POPS   C3A 8371   6.403  16.916   7.160 -0.0582  0.1081 -0.2923
  743POPS   C4A 8372   6.282  16.902   7.620  0.4111  0.0096 -0.1263
  743POPS   C1B 8373   5.783  16.807   6.696 -0.1824  0.0191  0.0131
  743POPS   C2B 8374   5.562  16.660   7.035  0.1582  0.1571  0.0502
  743POPS   C3B 8375   5.463  16.676   7.424  0.0916 -0.3331  0.1795
  743POPS   C4B 8376   5.323  16.425   7.762  0.1860 -0.4631  0.0413
  744POPS   CNO 8377   4.585  10.989   6.945  0.1003  0.0052 -0.0146
  744POPS   PO4 8378   4.151  11.081   6.912  0.0572 -0.2451 -0.5894
  744POPS   GL1 8379   4.212  10.949   7.318  0.2517  0.2575  0.2177
  744POPS   GL2 8380   4.265  10.644   7.417  0.4166 -0.2261 -0.1760
  744POPS   C1A 8381   4.238  10.992   7.808 -0.0447  0.2363 -0.1976
  744POPS   D2A 8382   4.363  10.903   8.169 -0.0480 -0.1680  0.1107
  744POPS   C3A 8383   4.208  10.991   8.644  0.2992  0.0680  0.1543
  744POPS   C4A 8384   4.279  11.258   8.955 -0.2157 -0.1306  0.0322
  744POPS   C1B 8385   4.265  10.486   7.778 -0.2006  0.1406 -0.0099
  744POPS   C2B 8386   4.412  10.034   7.862  0.1628 -0.1849 -0.0078
  744POPS   C3B 8387   4.775   9.794   8.121  0.0121 -0.2346  0.1048
  744POPS   C4B 8388   4.969   9.346   8.207 -0.0059 -0.1493 -0.0395
  745POPS   CNO 8389  16.873   0.394   5.954  0.0271  0.3041 -0.2078
  745POPS   PO4 8390  16.651   0.431   6.395 -0.0552  0.0182 -0.1142
  745POPS   GL1 8391  16.461   0.667   6.668 -0.0648  0.2353  0.0999
  745POPS   GL2 8392  16.217   0.473   6.722  0.2692  0.1680 -0.0014
  745POPS   C1A 8393  16.536   0.892   6.977  0.1891  0.4788 -0.3038
  745POPS   D2A 8394  16.699   0.807   7.343  0.0227  0.1404  0.3365
  745POPS   C3A 8395  16.447   1.016   7.638  0.0362  0.1209 -0.1480
  745POPS   C4A 8396  16.007   1.195   7.694 -0.1149 -0.1134 -0.1539
  745POPS   C1B 8397  16.189   0.581   7.134 -0.1919 -0.1761 -0.1238
  745POPS   C2B 8398  16.160   0.559   7.525  0.0715 -0.1431  0.1484
  745POPS   C3B 8399  16.156   0.756   7.930 -0.2925 -0.2606  0.0991
  745POPS   C4B 8400  16.320   1.131   8.117 -0.0491  0.2990  0.0853
  746POPS   CNO 8401   9.452  16.084   5.997  0.0542  0.1796 -0.0574
  746POPS   PO4 8402   9.272  15.705   5.822 -0.0057  0.0600  0.2685
  746POPS   GL1 8403   9.252  15.557   6.188  0.1785  0.0091  0.0316
  746POPS   GL2 8404   9.522  15.592   6.259  0.1910 -0.0052  0.2693
  746POPS   C1A 8405   9.264  15.352   6.617  0.3005 -0.2472  0.0017
  746POPS   D2A 8406   9.195  15.082   6.989  0.0687  0.2643 -0.2200
  746POPS   C3A 8407   9.495  15.148   7.333 -0.0390 -0.2819  0.2316
  746POPS   C4A 8408   9.523  15.110   7.768 -0.0108  0.6687 -0.0406
  746POPS   C1B 8409   9.752  15.331   6.411  0.0807  0.2031 -0.0048
  746POPS   C2B 8410   9.958  15.260   6.766  0.0257  0.1041 -0.1781
  746POPS   C3B 8411   9.988  15.253   7.172  0.0345 -0.0842  0.0141
  746POPS   C4B 8412   9.864  15.380   7.563  0.1447 -0.1046  0.2072
  747POPS   CNO 8413   8.506  16.126   5.744  0.0207 -0.0211  0.2317
  747POPS   PO4 8414   8.326  15.812   5.997  0.1745  0.0993  0.2388
  747POPS   GL1 8415   8.328  15.730   6.372  0.1372 -0.0074  0.0027
  747POPS   GL2 8416   8.433  15.348   6.439 -0.4156 -0.0867  0.1641
  747POPS   C1A 8417   8.417  15.696   6.805 -0.0562  0.0893 -0.1956
  747POPS   D2A 8418   8.529  15.861   7.231 -0.0093 -0.1704  0.0176
  747POPS   C3A 8419   8.434  15.729   7.622  0.0469 -0.0616 -0.1375
  747POPS   C4A 8420   8.446  15.495   8.072 -0.2570  0.0218  0.1150
  747POPS   C1B 8421   8.242  15.206   6.812 -0.1598  0.1727 -0.2844
  747POPS   C2B 8422   8.157  14.885   7.165 -0.2836  0.1906  0.2977
  747POPS   C3B 8423   8.172  14.563   7.477 -0.0682  0.0767 -0.2945
  747POPS   C4B 8424   8.208  14.244   7.890  0.1439  0.1543 -0.3007
  748POPS   CNO 8425  10.655   6.543   6.141 -0.0579 -0.3555 -0.0861
  748POPS   PO4 8426  10.814   6.819   6.383  0.1065  0.2171 -0.1500
  748POPS   GL1 8427  10.708   6.973   6.783 -0.2052  0.1471  0.0788
  748POPS   GL2 8428  10.895   7.304   6.867 -0.0959  0.1892 -0.0930
  748POPS   C1A 8429  10.381   7.018   7.075  0.0258  0.0227  0.1882
  748POPS   D2A 8430  10.122   7.055   7.441 -0.1993  0.0235  0.1599
  748POPS   C3A 8431   9.736   7.046   7.342  0.2157 -0.2170  0.0802
  748POPS   C4A 8432   9.454   7.171   7.614 -0.4259 -0.3766 -0.0816
  748POPS   C1B 8433  10.932   7.035   7.257 -0.1284 -0.2323  0.1947
  748POPS   C2B 8434  10.685   6.773   7.514  0.0833  0.2277  0.1229
  748POPS   C3B 8435  10.549   6.587   7.903 -0.1626 -0.1469 -0.1826
  748POPS   C4B 8436  10.698   6.797   8.221  0.0105 -0.1946 -0.1198
  749POPS   CNO 8437   0.372   6.590   5.991  0.2075 -0.2502 -0.0173
  749POPS   PO4 8438   0.593   6.614   6.268 -0.0558 -0.1129 -0.1666
  749POPS   GL1 8439   0.409   6.508   6.659  0.1331 -0.3812  0.1674
  749POPS   GL2 8440   0.468   6.264   6.591  0.0537 -0.0334  0.0336
  749POPS   C1A 8441   0.270   6.603   7.013  0.1871  0.0225  0.1379
  749POPS   D2A 8442   0.002   6.684   7.271  0.0942  0.4035 -0.1961
  749POPS   C3A 8443   0.279   6.721   7.510  0.2465  0.3370  0.0135
  749POPS   C4A 8444   0.638   6.681   7.837  0.1421 -0.2289 -0.1073
  749POPS   C1B 8445   0.716   6.108   6.918  0.1775  0.0927  0.1117
  749POPS   C2B 8446   0.633   5.794   7.148 -0.0061 -0.2719 -0.1069
  749POPS   C3B 8447   0.781   5.801   7.635 -0.0435 -0.0249 -0.1524
  749POPS   C4B 8448   0.590   5.590   7.886  0.0214 -0.0067 -0.0330
  750POPS   CNO 8449   8.869  10.395   6.318 -0.1065 -0.0198 -0.3005
  750POPS   PO4 8450   8.648  10.749   6.491 -0.1028  0.0962  0.0469
  750POPS   GL1 8451   8.917  11.106   6.701 -0.0973 -0.0056 -0.0701
  750POPS   GL2 8452   8.851  11.520   6.572  0.1972 -0.0933 -0.0376
  750POPS   C1A 8453   8.951  11.257   7.129 -0.0758 -0.0236 -0.2597
  750POPS   D2A 8454   9.033  11.493   7.514 -0.2284  0.0195 -0.4970
  750POPS   C3A 8455   9.172  11.659   7.954 -0.1195  0.0306  0.1830
  750POPS   C4A 8456   9.224  11.651   8.347  0.0860 -0.2407  0.0770
  750POPS   C1B 8457   9.139  11.720   6.860  0.1694  0.0978 -0.0536
  750POPS   C2B 8458   9.363  11.783   7.259  0.1337  0.0015  0.0304
  750POPS   C3B 8459   9.668  11.815   7.507  0.4248 -0.2119  0.2432
  750POPS   C4B 8460   9.988  11.659   7.644  0.0089 -0.1698  0.0322
  751POPS   CNO 8461  16.955   7.396   6.096 -0.0669  0.0191 -0.1562
  751POPS   PO4 8462  16.592   7.314   6.329  0.1122 -0.0352  0.1968
  751POPS   GL1 8463  16.697   7.443   6.725  0.0590 -0.0316  0.0168
  751POPS   GL2 8464  16.617   7.643   6.967  0.0592  0.0315 -0.0073
  751POPS   C1A 8465  16.538   7.149   7.064 -0.0444 -0.0976 -0.1568
  751POPS   D2A 8466  16.296   6.779   7.212 -0.1730  0.1768 -0.0668
  751POPS   C3A 8467  16.344   6.351   7.030  0.1770  0.0667  0.0619
  751POPS   C4A 8468  16.482   6.005   6.839 -0.2715 -0.0062 -0.0608
  751POPS   C1B 8469  16.398   7.948   7.147  0.2340  0.1977  0.0221
  751POPS   C2B 8470  16.118   8.299   7.420 -0.2670 -0.0556 -0.2855
  751POPS   C3B 8471  16.084   8.320   7.860  0.1956 -0.0249  0.2843
  751POPS   C4B 8472  16.001   8.077   8.323 -0.2547 -0.0619 -0.1155
  752POPS   CNO 8473   8.369  14.740   6.276  0.0615  0.1541 -0.0704
  752POPS   PO4 8474   7.940  14.575   6.089 -0.0858 -0.0834 -0.0398
  752POPS   GL1 8475   7.889  14.584   6.503 -0.1972  0.2147 -0.0429
  752POPS   GL2 8476   8.008  14.820   6.683 -0.1655 -0.2467 -0.3298
  752POPS   C1A 8477   7.516  14.513   6.687 -0.1283 -0.0714  0.1008
  752POPS   D2A 8478   7.703  14.602   7.076  0.0880 -0.1342  0.1734
  752POPS   C3A 8479   7.739  14.351   7.471 -0.2263  0.0712 -0.3507
  752POPS   C4A 8480   7.578  14.235   7.857 -0.1431 -0.2149  0.0657
  752POPS   C1B 8481   8.194  14.388   6.986 -0.2788  0.0350  0.0821
  752POPS   C2B 8482   8.633  14.352   7.071  0.1077 -0.0379 -0.1043
  752POPS   C3B 8483   8.950  14.365   7.320 -0.0192  0.0129 -0.3438
  752POPS   C4B 8484   9.063  14.319   7.883 -0.2038 -0.1501 -0.0516
  753POPS   CNO 8485  11.511  13.998   6.121 -0.3604 -0.2080  0.1642
  753POPS   PO4 8486  11.039  13.921   5.999  0.0738 -0.1622  0.0402
  753POPS   GL1 8487  11.150  13.812   6.409 -0.4298 -0.3987  0.0493
  753POPS   GL2 8488  11.348  13.625   6.483 -0.0114  0.2714  0.0139
  753POPS   C1A 8489  11.219  14.016   6.850 -0.0846  0.0236 -0.0114
  753POPS   D2A 8490  11.181  14.190   7.285 -0.0034  0.0527  0.1235
  753POPS   C3A 8491  11.199  13.951   7.630  0.0338  0.0405 -0.1870
  753POPS   C4A 8492  11.239  13.784   8.044  0.2708 -0.1518  0.0739
  753POPS   C1B 8493  11.575  13.696   6.849 -0.1781 -0.1907  0.4036
  753POPS   C2B 8494  11.546  13.831   7.227  0.0989 -0.2254  0.4237
  753POPS   C3B 8495  11.649  14.168   7.481 -0.0774  0.1021  0.0195
  753POPS   C4B 8496  11.575  14.212   7.963 -0.4675  0.0459 -0.1151
  754POPS   CNO 8497   7.569  13.808   6.175  0.1190  0.1013  0.1169
  754POPS   PO4 8498   7.632  13.419   6.299  0.2053  0.0155 -0.2435
  754POPS   GL1 8499   7.650  13.129   6.542  0.2272 -0.0237  0.0799
  754POPS   GL2 8500   7.471  12.900   6.454 -0.0548  0.0782  0.4158
  754POPS   C1A 8501   7.627  13.150   6.971 -0.2346  0.2442  0.0387
  754POPS   D2A 8502   7.577  13.064   7.304  0.1543  0.0161  0.0788
  754POPS   C3A 8503   7.823  12.940   7.764 -0.2987  0.2242 -0.1211
  754POPS   C4A 8504   8.001  12.528   7.791  0.1252 -0.0226  0.3747
  754POPS   C1B 8505   7.388  12.744   6.842  0.1469 -0.1994 -0.0258
  754POPS   C2B 8506   7.439  12.622   7.236 -0.2559 -0.2791  0.0477
  754POPS   C3B 8507   7.506  12.541   7.750 -0.0930  0.1018 -0.0318
  754POPS   C4B 8508   7.501  12.644   8.141 -0.2955 -0.0738  0.1205
  755POPS   CNO 8509   3.914   5.098   6.023  0.0898 -0.0537  0.1747
  755POPS   PO4 8510   3.712   4.699   6.069  0.1430 -0.1778 -0.0678
  755POPS   GL1 8511   3.654   4.701   6.503 -0.1011  0.2779  0.0202
  755POPS   GL2 8512   3.758   5.038   6.549  0.3306  0.0562  0.1219
  755POPS   C1A 8513   3.752   4.685   6.925  0.1457 -0.1308  0.1071
  755POPS   D2A 8514   3.695   4.688   7.389 -0.0234 -0.3153 -0.0353
  755POPS   C3A 8515   3.811   4.912   7.628  0.0969 -0.2797  0.0019
  755POPS   C4A 8516   3.941   5.248   8.019  0.0979  0.1784  0.2545
  755POPS   C1B 8517   3.907   5.186   7.041 -0.3661  0.1020 -0.3686
  755POPS   C2B 8518   3.882   5.353   7.424 -0.1931  0.1097  0.0469
  755POPS   C3B 8519   4.091   5.698   7.609  0.1104  0.0599 -0.0960
  755POPS   C4B 8520   4.114   5.769   8.030  0.2589  0.2465 -0.0893
  756POPS   CNO 8521   6.260   7.507   5.906 -0.2088 -0.0007  0.2437
  756POPS   PO4 8522   6.118   7.687   6.309  0.0142  0.1540 -0.2672
  756POPS   GL1 8523   6.247   7.604   6.703 -0.1020 -0.2936  0.4159
  756POPS   GL2 8524   6.113   7.887   6.797  0.0806 -0.4272 -0.2615
  756POPS   C1A 8525   5.991   7.462   7.021  0.0107 -0.1015 -0.2552
  756POPS   D2A 8526   5.956   7.448   7.403  0.2150 -0.1428  0.1709
  756POPS   C3A 8527   5.633   7.321   7.601 -0.0447 -0.1103 -0.1046
  756POPS   C4A 8528   5.521   7.353   7.994 -0.1206 -0.0425  0.0481
  756POPS   C1B 8529   6.192   8.030   7.204 -0.0783 -0.2459  0.1657
  756POPS   C2B 8530   6.143   8.028   7.603 -0.2339 -0.0100  0.0135
  756POPS   C3B 8531   6.248   8.030   8.052  0.1524  0.1355 -0.0336
  756POPS   C4B 8532   6.552   7.868   8.271  0.2416 -0.0041 -0.2249
  757POPS   CNO 8533  12.313  10.837   5.534 -0.0401 -0.2076  0.1166
  757POPS   PO4 8534  12.561  10.861   5.918 -0.0939 -0.0172  0.2100
  757POPS   GL1 8535  12.402  10.998   6.343  0.4296  0.1155  0.2483
  757POPS   GL2 8536  12.396  11.256   6.559  0.0045  0.0926  0.0995
  757POPS   C1A 8537  12.235  10.841   6.708  0.0293  0.1205  0.1296
  757POPS   D2A 8538  12.015  10.773   7.013  0.2765  0.1363  0.0079
  757POPS   C3A 8539  12.249  10.670   7.367 -0.1279  0.0599 -0.1228
  757POPS   C4A 8540  12.351  10.744   7.810  0.0111  0.1661  0.0642
  757POPS   C1B 8541  12.539  11.515   6.820  0.2371 -0.1245  0.0981
  757POPS   C2B 8542  12.489  11.624   7.222  0.2404 -0.4000  0.0641
  757POPS   C3B 8543  12.332  11.746   7.670  0.1080  0.1125  0.1053
  757POPS   C4B 8544  12.060  11.856   7.976  0.3097  0.3672  0.1667
  758POPS   CNO 8545   9.329  13.532   5.599 -0.0004  0.0725 -0.1169
  758POPS   PO4 8546   9.576  13.773   5.867 -0.2734 -0.1979 -0.3009
  758POPS   GL1 8547   9.730  13.686   6.248  0.1842 -0.0392 -0.0835
  758POPS   GL2 8548   9.460  13.794   6.406  0.1152 -0.0562 -0.1521
  758POPS   C1A 8549   9.705  13.379   6.599 -0.1613  0.0458  0.0354
  758POPS   D2A 8550   9.643  13.173   6.990  0.0617 -0.0854  0.1854
  758POPS   C3A 8551   9.355  13.058   7.379  0.1787 -0.2695  0.1527
  758POPS   C4A 8552   9.302  12.861   7.795 -0.0110  0.1228 -0.1573
  758POPS   C1B 8553   9.436  13.694   6.853 -0.2706  0.0949 -0.1480
  758POPS   C2B 8554   9.327  13.557   7.251 -0.0031  0.2225  0.0270
  758POPS   C3B 8555   9.500  13.303   7.758 -0.1905  0.2514  0.0044
  758POPS   C4B 8556   9.414  13.255   8.225 -0.2170  0.2907  0.0405
  759POPS   CNO 8557  11.472   3.460   5.579 -0.1923 -0.0426  0.1374
  759POPS   PO4 8558  11.195   3.314   5.923 -0.2941 -0.1503 -0.0198
  759POPS   GL1 8559  11.326   3.366   6.358 -0.1774 -0.1184  0.0075
  759POPS   GL2 8560  11.373   3.045   6.517  0.1506  0.1227 -0.0044
  759POPS   C1A 8561  11.217   3.608   6.725 -0.1577 -0.4003  0.0716
  759POPS   D2A 8562  10.945   3.533   7.085  0.2421  0.2321 -0.2999
  759POPS   C3A 8563  10.748   3.609   7.417  0.1888  0.2419  0.1489
  759POPS   C4A 8564  10.634   3.921   7.698  0.1727 -0.0875 -0.1249
  759POPS   C1B 8565  11.209   3.188   6.928  0.2756  0.3775 -0.0538
  759POPS   C2B 8566  11.096   3.182   7.385  0.0040  0.1997  0.1503
  759POPS   C3B 8567  11.179   3.462   7.763 -0.0225  0.1186 -0.3359
  759POPS   C4B 8568  11.063   3.740   8.112 -0.0400  0.1276 -0.2714
  760POPS   CNO 8569   3.894   9.063   6.621 -0.1644 -0.0308 -0.3571
  760POPS   PO4 8570   4.128   9.460   6.513  0.0401  0.0846  0.0739
  760POPS   GL1 8571   4.251   9.285   6.890  0.0159  0.4520  0.0933
  760POPS   GL2 8572   4.516   9.365   7.031  0.0424 -0.0650 -0.3815
  760POPS   C1A 8573   4.086   9.275   7.346  0.1783  0.1583 -0.0356
  760POPS   D2A 8574   4.158   9.214   7.805  0.0052 -0.0651 -0.2859
  760POPS   C3A 8575   4.247   9.622   8.024  0.1611 -0.2254 -0.2616
  760POPS   C4A 8576   4.314   9.852   8.415  0.1618  0.2912 -0.0441
  760POPS   C1B 8577   4.624   9.327   7.418  0.1034  0.0631  0.0383
  760POPS   C2B 8578   4.657   9.355   7.818 -0.0635  0.0708  0.2433
  760POPS   C3B 8579   4.612   8.982   8.083 -0.1060  0.0809  0.0851
  760POPS   C4B 8580   4.472   8.595   8.210 -0.0801  0.3315  0.2749
  761POPS   CNO 8581   7.703   0.865   5.540  0.1216 -0.1256 -0.2636
  761POPS   PO4 8582   7.468   0.743   5.946 -0.1944 -0.1683 -0.2194
  761POPS   GL1 8583   7.434   0.725   6.331  0.2731  0.1185 -0.2291
  761POPS   GL2 8584   7.129   0.878   6.440 -0.1258 -0.0915  0.1106
  761POPS   C1A 8585   7.639   0.744   6.727 -0.1459 -0.1166 -0.3992
  761POPS   D2A 8586   7.749   0.574   7.113 -0.0166 -0.0351 -0.1639
  761POPS   C3A 8587   7.951   0.423   7.420  0.1677 -0.1635  0.0467
  761POPS   C4A 8588   8.018   0.004   7.752 -0.1914  0.1980 -0.2984
  761POPS   C1B 8589   7.142   0.682   6.765  0.1135  0.3526 -0.2219
  761POPS   C2B 8590   7.253   0.565   7.132 -0.0104  0.1567  0.1859
  761POPS   C3B 8591   7.486   0.653   7.526 -0.1424 -0.3466 -0.2092
  761POPS   C4B 8592   7.796   0.789   7.708 -0.1525 -0.1909 -0.1169
  762POPS   CNO 8593  18.063   0.912   5.866 -0.0817 -0.0135 -0.0489
  762POPS   PO4 8594  17.862   1.261   6.070 -0.0181  0.2583 -0.1073
  762POPS   GL1 8595  17.924   1.318   6.486 -0.0353  0.3259  0.0924
  762POPS   GL2 8596  17.963   1.626   6.536 -0.1700 -0.0164  0.4028
  762POPS   C1A 8597  17.595   1.297   6.847 -0.0374  0.1525 -0.2561
  762POPS   D2A 8598  17.278   1.518   7.225  0.2603 -0.1406  0.0104
  762POPS   C3A 8599  17.263   1.694   7.638  0.1482 -0.0470  0.1167
  762POPS   C4A 8600  17.108   1.854   8.060 -0.4567  0.2305  0.0395
  762POPS   C1B 8601  17.612   1.796   6.789 -0.0526  0.0774  0.5135
  762POPS   C2B 8602  17.672   1.870   7.171 -0.1765 -0.0173 -0.0935
  762POPS   C3B 8603  17.881   1.836   7.555  0.1985  0.1136 -0.0097
  762POPS   C4B 8604  18.146   1.554   7.537  0.1327 -0.0863  0.1345
  763POPS   CNO 8605   5.405  12.009   6.565  0.1325 -0.0013  0.0153
  763POPS   PO4 8606   5.686  11.648   6.620 -0.0465 -0.0228  0.0413
  763POPS   GL1 8607   5.635  11.831   7.017 -0.0436  0.0572  0.3532
  763POPS   GL2 8608   5.376  11.781   7.164  0.0876  0.2270  0.0405
  763POPS   C1A 8609   5.938  11.711   7.271  0.2545 -0.2047  0.0581
  763POPS   D2A 8610   6.084  11.772   7.691 -0.1049  0.3094 -0.1056
  763POPS   C3A 8611   6.114  11.700   8.180  0.1897  0.2230  0.2600
  763POPS   C4A 8612   5.838  11.757   8.503  0.0117 -0.1211  0.1324
  763POPS   C1B 8613   5.560  11.830   7.550 -0.1637  0.1038 -0.0550
  763POPS   C2B 8614   5.659  11.907   8.019 -0.3028  0.0032 -0.2506
  763POPS   C3B 8615   5.581  12.228   8.347  0.1733 -0.1079  0.1507
  763POPS   C4B 8616   5.458  12.296   8.768  0.0999  0.1845 -0.0044
  764POPS   CNO 8617   7.957   6.744   6.146 -0.1979  0.1670 -0.0765
  764POPS   PO4 8618   7.716   6.545   6.400 -0.4659  0.1016  0.0101
  764POPS   GL1 8619   7.593   6.584   6.700 -0.2630 -0.1204  0.0839
  764POPS   GL2 8620   7.242   6.728   6.650  0.2416  0.1711  0.1240
  764POPS   C1A 8621   7.691   6.656   7.090 -0.0321 -0.0270  0.2344
  764POPS   D2A 8622   7.681   6.544   7.500  0.2078 -0.1646 -0.3363
  764POPS   C3A 8623   7.592   6.707   7.934 -0.2660 -0.0306 -0.0610
  764POPS   C4A 8624   7.685   6.845   8.327 -0.1574 -0.3400 -0.2533
  764POPS   C1B 8625   6.943   7.024   6.998 -0.1677  0.2776 -0.3013
  764POPS   C2B 8626   6.789   6.993   7.323 -0.0809  0.0865 -0.1420
  764POPS   C3B 8627   6.601   6.977   7.728 -0.0729  0.0860  0.0351
  764POPS   C4B 8628   6.694   7.072   8.094 -0.0377  0.1004 -0.2102
  765POPS   CNO 8629  10.807   2.006   5.800 -0.0184  0.0734  0.0273
  765POPS   PO4 8630  10.892   2.473   5.829 -0.1509  0.1447 -0.0409
  765POPS   GL1 8631  10.771   2.437   6.258  0.0470  0.3319  0.3031
  765POPS   GL2 8632  10.804   2.120   6.317  0.1590  0.0055  0.2521
  765POPS   C1A 8633  10.690   2.422   6.706 -0.0539 -0.3563 -0.2851
  765POPS   D2A 8634  10.655   2.379   7.047 -0.0846  0.0623 -0.0346
  765POPS   C3A 8635  10.661   2.424   7.440  0.2432  0.1601 -0.1375
  765POPS   C4A 8636  10.762   2.516   7.954 -0.0317 -0.1721  0.1291
  765POPS   C1B 8637  10.720   1.930   6.730 -0.0543  0.0831  0.1171
  765POPS   C2B 8638  10.801   1.929   7.181 -0.1500 -0.1245  0.2542
  765POPS   C3B 8639  10.850   2.005   7.622 -0.0459 -0.3484  0.1406
  765POPS   C4B 8640  11.041   1.956   7.962  0.1020  0.0824 -0.0707
  766POPS   CNO 8641   3.327   7.931   5.956  0.0573  0.1489  0.2264
  766POPS   PO4 8642   3.605   7.882   6.288  0.0874 -0.1568  0.2665
  766POPS   GL1 8643   3.819   7.904   6.580 -0.0395 -0.3043  0.1654
  766POPS   GL2 8644   3.952   8.227   6.534  0.0712  0.4176  0.3934
  766POPS   C1A 8645   3.941   7.670   6.970  0.1789  0.2026 -0.1178
  766POPS   D2A 8646   4.276   7.784   7.279 -0.3442  0.3424  0.0410
  766POPS   C3A 8647   4.420   7.594   7.582  0.0727 -0.1241  0.1052
  766POPS   C4A 8648   4.502   7.509   7.971  0.3608 -0.0158  0.1029
  766POPS   C1B 8649   4.166   8.217   6.996 -0.1260  0.2740 -0.3027
  766POPS   C2B 8650   4.320   8.274   7.453  0.0137  0.1145  0.0128
  766POPS   C3B 8651   4.392   8.048   7.768  0.1091 -0.0679  0.2708
  766POPS   C4B 8652   4.558   8.096   8.132 -0.2546  0.0842 -0.1114
  767POPS   CNO 8653   8.275  13.417   5.567  0.1027 -0.0112 -0.1620
  767POPS   PO4 8654   8.378  13.256   5.999 -0.2812  0.1850 -0.0007
  767POPS   GL1 8655   8.205  13.503   6.328  0.0898 -0.1170 -0.1609
  767POPS   GL2 8656   8.009  13.855   6.434  0.2159  0.0253  0.1201
  767POPS   C1A 8657   8.077  13.332   6.803 -0.0483 -0.2504 -0.0281
  767POPS   D2A 8658   8.077  13.244   7.279  0.0716 -0.0793 -0.1352
  767POPS   C3A 8659   8.358  13.405   7.492 -0.0070  0.0104 -0.0985
  767POPS   C4A 8660   8.328  13.272   7.971 -0.0526  0.0524  0.2095
  767POPS   C1B 8661   7.827  14.127   6.645  0.0294  0.2355 -0.1237
  767POPS   C2B 8662   7.665  14.108   7.022 -0.0297 -0.0928 -0.0161
  767POPS   C3B 8663   7.438  13.970   7.405 -0.1778 -0.0819  0.0785
  767POPS   C4B 8664   7.249  13.882   7.862 -0.1105  0.3816 -0.2675
  768POPS   CNO 8665   2.071   3.399   6.270 -0.3491 -0.1499 -0.2617
  768POPS   PO4 8666   1.825   3.059   6.526  0.0011  0.0934  0.1032
  768POPS   GL1 8667   1.834   2.988   6.957  0.1830 -0.0517  0.2242
  768POPS   GL2 8668   1.603   2.918   7.074 -0.0333 -0.1065 -0.0044
  768POPS   C1A 8669   2.050   2.902   7.334 -0.0377  0.0832  0.2858
  768POPS   D2A 8670   1.968   2.918   7.676  0.0905  0.2118 -0.0422
  768POPS   C3A 8671   1.685   3.045   8.087  0.0926  0.0297 -0.0143
  768POPS   C4A 8672   1.500   2.736   8.414 -0.2994  0.1330  0.0208
  768POPS   C1B 8673   1.518   2.834   7.487  0.4870  0.1617 -0.0046
  768POPS   C2B 8674   1.411   2.656   7.883  0.0286 -0.2162 -0.2213
  768POPS   C3B 8675   1.146   2.825   8.138  0.2679 -0.1067  0.1080
  768POPS   C4B 8676   0.800   2.728   8.420  0.1904  0.2567 -0.2925
  769POPS   CNO 8677   4.224  16.105   6.422 -0.0045  0.0110  0.0158
  769POPS   PO4 8678   4.042  16.517   6.363 -0.2240  0.3719 -0.2725
  769POPS   GL1 8679   4.059  16.652   6.716  0.3035  0.0137  0.0505
  769POPS   GL2 8680   4.236  16.402   6.857 -0.0625 -0.2816  0.3545
  769POPS   C1A 8681   4.281  16.926   6.964 -0.1699  0.1945  0.2294
  769POPS   D2A 8682   4.112  17.081   7.312  0.0440  0.2289  0.0561
  769POPS   C3A 8683   4.107  17.014   7.718 -0.1492 -0.3974 -0.1059
  769POPS   C4A 8684   4.434  16.910   8.042  0.2242 -0.2106 -0.0966
  769POPS   C1B 8685   4.311  16.507   7.243 -0.0498 -0.1681  0.0446
  769POPS   C2B 8686   4.423  16.614   7.640  0.0821 -0.2544  0.0101
  769POPS   C3B 8687   4.798  16.469   7.857 -0.0746 -0.1199  0.0554
  769POPS   C4B 8688   5.002  16.188   8.057 -0.1364  0.1429 -0.0858
  770POPS   CNO 8689  17.920   0.319   6.571 -0.0881  0.1619 -0.2294
  770POPS   PO4 8690  17.524   0.480   6.517 -0.2691 -0.0149 -0.0503
  770POPS   GL1 8691  17.743   0.665   6.906 -0.0078 -0.1193  0.0663
  770POPS   GL2 8692  17.659   0.405   7.044 -0.0884 -0.1653 -0.0273
  770POPS   C1A 8693  17.791   0.883   7.202  0.0649 -0.1250 -0.1560
  770POPS   D2A 8694  18.124   1.031   7.502  0.0419 -0.2864  0.0932
  770POPS   C3A 8695  18.174   1.239   7.995 -0.1852 -0.2268  0.2164
  770POPS   C4A 8696  17.993   1.484   8.227 -0.3706 -0.4182  0.1061
  770POPS   C1B 8697  17.527   0.532   7.462  0.3330 -0.2371 -0.1026
  770POPS   C2B 8698  17.700   0.825   7.712 -0.0894  0.1013  0.0304
  770POPS   C3B 8699  18.081   0.773   8.062 -0.1699  0.0614  0.0134
  770POPS   C4B 8700  18.376   0.650   8.351  0.2225  0.0187  0.0748
  771POPS   CNO 8701   7.372  17.176   5.338  0.0987 -0.0255 -0.4978
  771POPS   PO4 8702   7.496  17.582   5.284 -0.2239 -0.1246  0.2438
  771POPS   GL1 8703   7.751  17.400   5.582 -0.1126  0.0573 -0.3687
  771POPS   GL2 8704   7.553  17.131   5.787  0.0164 -0.0479  0.2859
  771POPS   C1A 8705   7.855  17.503   6.112  0.0885 -0.1501  0.0877
  771POPS   D2A 8706   7.881  17.937   6.215 -0.0933 -0.0050 -0.0409
  771POPS   C3A 8707   7.657  18.123   6.526  0.0441  0.0759  0.2343
  771POPS   C4A 8708   7.432  18.501   6.742  0.0747 -0.0386 -0.2012
  771POPS   C1B 8709   7.759  17.040   6.249  0.2560  0.0073 -0.4424
  771POPS   C2B 8710   7.987  17.116   6.545  0.3891  0.2989 -0.2162
  771POPS   C3B 8711   8.107  17.190   6.932 -0.0749  0.1373  0.1928
  771POPS   C4B 8712   8.343  16.992   7.345  0.0286  0.1234  0.1151
  772POPS   CNO 8713   7.895   0.915   6.260  0.0571 -0.2972 -0.0166
  772POPS   PO4 8714   8.305   1.134   6.285  0.1195  0.1853  0.1950
  772POPS   GL1 8715   8.496   0.985   6.607 -0.0486  0.1836  0.1434
  772POPS   GL2 8716   8.655   0.751   6.643 -0.4537 -0.2138  0.0589
  772POPS   C1A 8717   8.532   1.159   6.991 -0.2252 -0.0030 -0.2025
  772POPS   D2A 8718   8.499   1.274   7.412 -0.1470 -0.0464  0.1076
  772POPS   C3A 8719   8.687   1.056   7.665  0.0474 -0.2969 -0.0056
  772POPS   C4A 8720   8.840   0.647   7.783  0.2454 -0.0398  0.2787
  772POPS   C1B 8721   8.642   0.725   7.152  0.0891 -0.4833  0.3500
  772POPS   C2B 8722   8.432   0.614   7.447  0.0895  0.0674 -0.0082
  772POPS   C3B 8723   8.280   0.617   7.787  0.3113 -0.1195 -0.0963
  772POPS   C4B 8724   8.127   0.398   8.053  0.3423  0.2663  0.2255
  773POPS   CNO 8725  13.407   3.132   5.875  0.0393 -0.1556 -0.0065
  773POPS   PO4 8726  13.149   2.802   5.949 -0.1428 -0.0946 -0.0351
  773POPS   GL1 8727  12.958   3.085   6.317  0.1537  0.0672 -0.0610
  773POPS   GL2 8728  12.702   3.138   6.242  0.3279 -0.0059  0.3149
  773POPS   C1A 8729  12.962   3.293   6.686  0.1424  0.0453  0.1483
  773POPS   D2A 8730  12.854   3.291   7.165  0.0316 -0.2295  0.2963
  773POPS   C3A 8731  12.836   3.058   7.470  0.1536  0.0072 -0.2648
  773POPS   C4A 8732  13.180   2.812   7.641 -0.0714  0.0657 -0.3447
  773POPS   C1B 8733  12.458   3.212   6.540 -0.1163 -0.1976 -0.2857
  773POPS   C2B 8734  12.366   3.338   6.947 -0.0943  0.0295 -0.0443
  773POPS   C3B 8735  12.136   3.411   7.284 -0.0678  0.2702 -0.0184
  773POPS   C4B 8736  11.828   3.434   7.543  0.0796  0.0117 -0.0752
  774POPS   CNO 8737   8.400   6.979   6.453 -0.0597  0.0667  0.3363
  774POPS   PO4 8738   8.428   7.417   6.578 -0.0459  0.3490 -0.0513
  774POPS   GL1 8739   8.718   7.527   6.863  0.4535  0.0771  0.0802
  774POPS   GL2 8740   9.061   7.568   6.807  0.0726  0.0002  0.1224
  774POPS   C1A 8741   8.862   7.672   7.253  0.1883 -0.1012  0.1102
  774POPS   D2A 8742   8.881   7.449   7.629  0.2634  0.0610 -0.0149
  774POPS   C3A 8743   9.010   7.555   8.098 -0.2920  0.2420 -0.1125
  774POPS   C4A 8744   9.063   7.878   8.414  0.1168  0.0387 -0.0484
  774POPS   C1B 8745   9.004   7.125   7.086  0.0104 -0.0183 -0.1014
  774POPS   C2B 8746   9.035   6.927   7.401  0.1749  0.0284 -0.0820
  774POPS   C3B 8747   9.001   6.999   7.783  0.1239 -0.2746  0.0743
  774POPS   C4B 8748   9.069   7.045   8.105  0.2173 -0.1100 -0.3371
  775POPS   CNO 8749   9.719   3.391   5.684 -0.0019 -0.3902  0.1106
  775POPS   PO4 8750   9.646   2.986   5.757  0.3980  0.1326 -0.0706
  775POPS   GL1 8751   9.668   2.975   6.191 -0.0851  0.1604 -0.0708
  775POPS   GL2 8752   9.801   3.339   6.234 -0.1470  0.1540 -0.0418
  775POPS   C1A 8753   9.420   3.025   6.507 -0.0051 -0.0508 -0.1104
  775POPS   D2A 8754   8.957   3.101   6.759 -0.0533 -0.0176 -0.0067
  775POPS   C3A 8755   8.850   2.935   7.145 -0.1624 -0.1753  0.3768
  775POPS   C4A 8756   8.913   2.627   7.407 -0.1231  0.2484 -0.1180
  775POPS   C1B 8757   9.809   3.267   6.714  0.3481 -0.0531 -0.2137
  775POPS   C2B 8758   9.769   3.408   7.245 -0.0210  0.0183  0.1424
  775POPS   C3B 8759   9.822   3.674   7.470 -0.0127  0.0755  0.1798
  775POPS   C4B 8760   9.569   3.989   7.591 -0.3978  0.0560  0.0046
  776POPS   CNO 8761   0.075  10.828   5.980  0.0749  0.1266  0.2575
  776POPS   PO4 8762  -0.230  11.136   6.345  0.0734 -0.3190  0.2282
  776POPS   GL1 8763  -0.304  10.911   6.700 -0.3675  0.1360  0.1698
  776POPS   GL2 8764  -0.647  10.797   6.873  0.0731  0.0906  0.0081
  776POPS   C1A 8765  -0.201  11.069   7.095 -0.1116 -0.2436 -0.3544
  776POPS   D2A 8766  -0.033  11.266   7.479 -0.0120 -0.0014 -0.0745
  776POPS   C3A 8767  -0.125  11.605   7.753 -0.3345 -0.1863  0.1251
  776POPS   C4A 8768  -0.059  11.602   8.135 -0.1097 -0.0404 -0.3457
  776POPS   C1B 8769  -0.348  10.593   7.126 -0.0339 -0.1225 -0.3712
  776POPS   C2B 8770  -0.351  10.408   7.538 -0.1406 -0.2461  0.0768
  776POPS   C3B 8771  -0.431  10.673   7.836  0.1176  0.3426 -0.4403
  776POPS   C4B 8772  -0.541  10.848   8.223 -0.0017 -0.0737  0.0209
  777POPS   CNO 8773   7.160  12.267   6.468  0.1297  0.0625 -0.1355
  777POPS   PO4 8774   7.437  12.009   6.354  0.1245  0.2579  0.1399
  777POPS   GL1 8775   7.730  11.906   6.726  0.1624  0.1127 -0.4830
  777POPS   GL2 8776   7.954  11.838   6.949  0.1899  0.2363 -0.1600
  777POPS   C1A 8777   7.534  11.950   7.168  0.1614  0.0432 -0.0173
  777POPS   D2A 8778   7.726  12.194   7.466 -0.1479 -0.0172 -0.1610
  777POPS   C3A 8779   7.693  12.063   7.852 -0.0725 -0.0693  0.1135
  777POPS   C4A 8780   7.362  12.022   8.112  0.0411  0.0969  0.4502
  777POPS   C1B 8781   8.092  11.797   7.324 -0.0920 -0.1677  0.4348
  777POPS   C2B 8782   8.121  11.977   7.683 -0.2669  0.0423 -0.1908
  777POPS   C3B 8783   8.194  12.067   8.097 -0.2526  0.2075  0.0230
  777POPS   C4B 8784   7.878  11.950   8.382 -0.2447 -0.0452 -0.4766
  778POPS   CNO 8785  12.527  12.700   6.266  0.0534  0.0427 -0.0656
  778POPS   PO4 8786  12.846  12.759   6.083  0.0999  0.0233 -0.0927
  778POPS   GL1 8787  13.100  12.822   6.473 -0.0922  0.2073  0.0178
  778POPS   GL2 8788  13.171  12.610   6.582  0.3519 -0.3107  0.1949
  778POPS   C1A 8789  13.161  13.201   6.713  0.1419 -0.0994 -0.0615
  778POPS   D2A 8790  13.205  13.661   6.665 -0.3254  0.0434  0.0066
  778POPS   C3A 8791  12.878  13.845   6.382 -0.1285 -0.1048  0.1679
  778POPS   C4A 8792  12.419  13.860   6.346 -0.0473 -0.0150 -0.1415
  778POPS   C1B 8793  13.097  12.491   6.954 -0.1334  0.1028  0.2466
  778POPS   C2B 8794  13.091  12.530   7.398 -0.0405  0.1843  0.0866
  778POPS   C3B 8795  12.960  12.399   7.815  0.1823 -0.2257 -0.0226
  778POPS   C4B 8796  12.848  11.999   7.979  0.0073  0.2483 -0.1020
  779POPS   CNO 8797  13.442  10.215   6.068 -0.3797 -0.0292 -0.0987
  779POPS   PO4 8798  13.717  10.132   6.339  0.0864  0.0053 -0.0032
  779POPS   GL1 8799  13.739   9.909   6.674 -0.0811 -0.1412  0.2338
  779POPS   GL2 8800  13.907   9.649   6.849 -0.2350 -0.2193 -0.0419
  779POPS   C1A 8801  13.982  10.135   7.035 -0.1020  0.1326  0.0626
  779POPS   D2A 8802  14.069  10.295   7.399 -0.0591 -0.0034 -0.0858
  779POPS   C3A 8803  13.897  10.244   7.697 -0.1911  0.3135  0.2081
  779POPS   C4A 8804  13.617  10.242   8.088 -0.0267 -0.2313 -0.0345
  779POPS   C1B 8805  13.789   9.675   7.217 -0.0206  0.1125 -0.0536
  779POPS   C2B 8806  13.806   9.694   7.719  0.1698  0.3345  0.1692
  779POPS   C3B 8807  13.636   9.673   8.109 -0.2529  0.1878 -0.0936
  779POPS   C4B 8808  13.528   9.943   8.454 -0.1192  0.0253  0.1888
  780POPS   CNO 8809   5.335  13.930   6.580 -0.0313 -0.1896 -0.3165
  780POPS   PO4 8810   5.375  13.661   6.259  0.3361 -0.0400  0.0611
  780POPS   GL1 8811   5.200  13.394   6.655 -0.3228 -0.1223  0.1189
  780POPS   GL2 8812   5.044  13.526   6.786 -0.0148 -0.1332  0.0463
  780POPS   C1A 8813   5.398  13.189   7.040 -0.2381  0.0775  0.1513
  780POPS   D2A 8814   5.430  12.914   7.543  0.2824  0.0677 -0.0386
  780POPS   C3A 8815   5.788  12.874   7.663  0.1854  0.2484 -0.1303
  780POPS   C4A 8816   6.207  12.730   7.739  0.0590  0.1611  0.0666
  780POPS   C1B 8817   5.251  13.642   7.185 -0.4552  0.2847  0.3714
  780POPS   C2B 8818   5.416  13.825   7.606  0.0660 -0.0327 -0.3268
  780POPS   C3B 8819   5.483  14.065   7.963  0.1846  0.0424 -0.2017
  780POPS   C4B 8820   5.224  14.415   7.967 -0.0051 -0.2369  0.0272
  781POPS   CNO 8821   4.448   2.631   5.764 -0.0895 -0.2743 -0.3265
  781POPS   PO4 8822   4.507   2.684   6.232 -0.2332 -0.3784  0.1478
  781POPS   GL1 8823   4.731   2.788   6.622  0.0867 -0.0772  0.0975
  781POPS   GL2 8824   5.029   2.637   6.758 -0.1599 -0.0705  0.0659
  781POPS   C1A 8825   4.601   2.897   7.050  0.1447 -0.1643 -0.3091
  781POPS   D2A 8826   4.435   3.064   7.313  0.0567 -0.0843  0.0713
  781POPS   C3A 8827   4.598   3.360   7.385  0.0746  0.0977  0.0011
  781POPS   C4A 8828   4.389   3.789   7.399 -0.1655  0.1575 -0.1903
  781POPS   C1B 8829   5.014   2.656   7.258  0.1161  0.0522  0.0974
  781POPS   C2B 8830   4.846   2.707   7.653  0.3250 -0.1192  0.0409
  781POPS   C3B 8831   4.694   3.145   7.871  0.0003  0.0284 -0.0217
  781POPS   C4B 8832   4.517   3.612   7.894  0.0940  0.0389 -0.1926
  782POPS   CNO 8833   0.522   1.683   6.339 -0.1695 -0.1589 -0.1046
  782POPS   PO4 8834   0.493   1.273   6.453 -0.0958  0.0557  0.0166
  782POPS   GL1 8835   0.184   1.423   6.672  0.0520 -0.1240  0.0580
  782POPS   GL2 8836   0.226   1.622   6.777  0.3132 -0.1624  0.0751
  782POPS   C1A 8837  -0.183   1.501   7.017 -0.0045  0.1894 -0.0949
  782POPS   D2A 8838  -0.534   1.379   7.341 -0.0568 -0.3719 -0.1853
  782POPS   C3A 8839  -0.495   1.374   7.793 -0.1431 -0.0127 -0.0257
  782POPS   C4A 8840  -0.534   1.108   8.105  0.3780 -0.0463 -0.2437
  782POPS   C1B 8841   0.299   1.337   7.129 -0.3354  0.0025  0.2701
  782POPS   C2B 8842   0.371   1.422   7.552 -0.1319  0.1462 -0.0854
  782POPS   C3B 8843   0.372   1.376   7.914 -0.1579  0.0429 -0.0307
  782POPS   C4B 8844   0.278   1.662   8.319  0.1968  0.2548 -0.1777
  783POPS   CNO 8845   5.571   7.123   6.204  0.1370  0.1333  0.0009
  783POPS   PO4 8846   5.853   6.845   6.215  0.0186  0.2077 -0.1228
  783POPS   GL1 8847   5.566   6.694   6.527  0.2364  0.0263  0.1604
  783POPS   GL2 8848   5.798   6.469   6.696 -0.0682 -0.0665 -0.0486
  783POPS   C1A 8849   5.306   6.714   6.932  0.0738 -0.0363 -0.0180
  783POPS   D2A 8850   4.971   6.802   7.140 -0.0130 -0.0119  0.1827
  783POPS   C3A 8851   5.158   6.789   7.574 -0.0694 -0.2280 -0.1476
  783POPS   C4A 8852   5.256   7.014   7.875 -0.1751  0.3580  0.0603
  783POPS   C1B 8853   6.121   6.435   7.009  0.0973 -0.1979  0.0124
  783POPS   C2B 8854   5.992   6.309   7.523 -0.2184 -0.0240  0.1844
  783POPS   C3B 8855   6.032   6.119   7.952  0.2267  0.1488 -0.0858
  783POPS   C4B 8856   5.974   6.084   8.425  0.1928  0.1035  0.1464
  784POPS   CNO 8857   9.346  10.303   6.328  0.2357 -0.0320  0.1209
  784POPS   PO4 8858   9.451  10.777   6.150 -0.1265 -0.1611  0.0975
  784POPS   GL1 8859   9.237  10.733   6.541 -0.0302  0.0868 -0.0868
  784POPS   GL2 8860   9.504  10.948   6.686  0.0807  0.0958  0.0096
  784POPS   C1A 8861   9.217  10.780   7.073  0.0234  0.0477 -0.0472
  784POPS   D2A 8862   9.070  10.908   7.471  0.0072  0.2893 -0.1694
  784POPS   C3A 8863   9.033  10.657   7.856 -0.0252  0.2081  0.0137
  784POPS   C4A 8864   9.086  10.268   7.996 -0.0793 -0.4562 -0.0338
  784POPS   C1B 8865   9.478  11.312   6.992 -0.1628 -0.0859  0.0624
  784POPS   C2B 8866   9.431  11.222   7.400  0.2388  0.1040 -0.1617
  784POPS   C3B 8867   9.555  11.380   7.768  0.0273 -0.0750  0.0412
  784POPS   C4B 8868   9.680  11.663   8.021  0.1301  0.0581  0.0411
  785POPS   CNO 8869  17.836  15.025   6.678 -0.1725 -0.0311 -0.1914
  785POPS   PO4 8870  17.976  15.317   6.436 -0.2895  0.0733 -0.4459
  785POPS   GL1 8871  18.097  15.450   6.790  0.0582 -0.0434 -0.3249
  785POPS   GL2 8872  18.101  15.744   6.839  0.0910 -0.2847 -0.2423
  785POPS   C1A 8873  18.094  15.443   7.304 -0.1816  0.2231  0.0437
  785POPS   D2A 8874  17.815  15.286   7.642 -0.1380 -0.0573 -0.3140
  785POPS   C3A 8875  17.538  15.437   7.976 -0.1108 -0.1295 -0.1320
  785POPS   C4A 8876  17.511  15.312   8.354 -0.1242 -0.0641 -0.2684
  785POPS   C1B 8877  17.875  15.856   7.225  0.1249  0.0548  0.3616
  785POPS   C2B 8878  17.649  15.848   7.570 -0.1226  0.3002 -0.3703
  785POPS   C3B 8879  17.406  16.045   7.881  0.1032 -0.1161 -0.1130
  785POPS   C4B 8880  17.109  16.217   8.325 -0.2011  0.1205  0.3221
  786POPS   CNO 8881  17.589   7.669   6.491  0.3214 -0.3441 -0.1837
  786POPS   PO4 8882  17.168   7.617   6.473  0.6263 -0.1731 -0.0288
  786POPS   GL1 8883  17.146   7.646   6.904 -0.0555  0.4623  0.1101
  786POPS   GL2 8884  17.372   7.770   7.065  0.1443 -0.1223 -0.0224
  786POPS   C1A 8885  16.981   7.356   7.196  0.2040 -0.2653  0.0937
  786POPS   D2A 8886  16.641   7.507   7.426 -0.0110 -0.2175 -0.2114
  786POPS   C3A 8887  16.351   7.226   7.569  0.0006 -0.2542  0.0771
  786POPS   C4A 8888  16.358   6.934   7.874 -0.0541 -0.0809 -0.0984
  786POPS   C1B 8889  17.315   7.640   7.431  0.0017 -0.0807 -0.1296
  786POPS   C2B 8890  17.036   7.507   7.703 -0.0146 -0.0450  0.2514
  786POPS   C3B 8891  16.788   7.360   8.012 -0.1634 -0.0197 -0.2730
  786POPS   C4B 8892  16.705   7.014   8.250  0.2369  0.1136 -0.0149
  787POPS   CNO 8893  15.892   1.603   5.875  0.0886 -0.1821  0.1324
  787POPS   PO4 8894  15.687   1.810   6.352 -0.0298 -0.0691  0.1951
  787POPS   GL1 8895  15.455   1.511   6.660  0.1765 -0.2371  0.0694
  787POPS   GL2 8896  15.685   1.371   6.717  0.0336 -0.1567  0.3225
  787POPS   C1A 8897  15.243   1.610   7.051  0.0061  0.3085  0.0318
  787POPS   D2A 8898  15.188   1.656   7.560  0.5216  0.2895  0.0832
  787POPS   C3A 8899  15.074   1.835   7.965  0.1866 -0.0989 -0.1985
  787POPS   C4A 8900  15.134   1.759   8.473  0.0761 -0.0219 -0.1099
  787POPS   C1B 8901  15.767   1.516   7.045 -0.0431  0.1378  0.3244
  787POPS   C2B 8902  15.858   1.660   7.501  0.3962 -0.0696  0.0933
  787POPS   C3B 8903  15.682   1.776   7.929  0.3276 -0.1591  0.1192
  787POPS   C4B 8904  15.495   2.123   8.287  0.0491  0.0869  0.0810
  788POPS   CNO 8905  13.094   7.355   5.956 -0.3013 -0.3561 -0.1145
  788POPS   PO4 8906  13.306   7.715   6.322 -0.3730 -0.0619  0.1385
  788POPS   GL1 8907  13.042   7.947   6.716  0.3348  0.1251 -0.1294
  788POPS   GL2 8908  12.748   8.173   6.587  0.2149  0.1537  0.1083
  788POPS   C1A 8909  13.063   8.014   7.138 -0.0695 -0.0826  0.3692
  788POPS   D2A 8910  13.044   7.982   7.551  0.0353 -0.0721 -0.3940
  788POPS   C3A 8911  13.176   7.906   7.984 -0.3208 -0.2648  0.2859
  788POPS   C4A 8912  13.173   7.892   8.453  0.1082 -0.3434 -0.2156
  788POPS   C1B 8913  12.577   8.161   6.941  0.0817  0.0686 -0.2846
  788POPS   C2B 8914  12.512   8.027   7.373 -0.0776  0.2399 -0.0520
  788POPS   C3B 8915  12.643   7.814   7.767 -0.3572 -0.5370  0.0641
  788POPS   C4B 8916  12.665   7.997   8.146 -0.4060 -0.0018 -0.0636
  789POPS   CNO 8917  16.130   2.633   5.624  0.0557 -0.0253  0.0917
  789POPS   PO4 8918  15.880   2.834   5.591  0.2317 -0.2895 -0.0359
  789POPS   GL1 8919  15.803   2.795   5.981  0.1502  0.1514  0.1307
  789POPS   GL2 8920  16.025   2.963   6.217  0.0327 -0.5514  0.0782
  789POPS   C1A 8921  15.807   2.518   6.307  0.1954 -0.1148 -0.0550
  789POPS   D2A 8922  15.796   2.311   6.691  0.0800  0.0987 -0.2263
  789POPS   C3A 8923  15.795   2.441   7.094  0.4060 -0.3224 -0.3003
  789POPS   C4A 8924  15.859   2.546   7.534  0.1187  0.0623  0.0910
  789POPS   C1B 8925  16.385   2.788   6.462 -0.0640  0.0439 -0.1927
  789POPS   C2B 8926  16.245   2.610   6.799 -0.0397  0.0926 -0.1888
  789POPS   C3B 8927  16.261   2.627   7.236  0.0968  0.2099  0.3305
  789POPS   C4B 8928  16.305   2.494   7.734 -0.1590 -0.0047  0.1733
  790POPS   CNO 8929   0.960  17.774   6.477 -0.2282 -0.1362  0.0879
  790POPS   PO4 8930   1.397  17.556   6.603  0.0779 -0.0038 -0.0975
  790POPS   GL1 8931   1.286  17.833   6.871 -0.0202 -0.1135 -0.2368
  790POPS   GL2 8932   1.019  17.608   6.968  0.1399 -0.1549  0.0943
  790POPS   C1A 8933   1.299  17.994   7.268 -0.1142 -0.3024 -0.4135
  790POPS   D2A 8934   1.277  18.102   7.571 -0.3012  0.0636  0.0713
  790POPS   C3A 8935   1.625  17.962   7.777 -0.0790  0.0698 -0.0915
  790POPS   C4A 8936   1.918  17.812   8.199  0.0288 -0.3208  0.4699
  790POPS   C1B 8937   1.213  17.514   7.300  0.4292 -0.0875  0.2291
  790POPS   C2B 8938   1.290  17.587   7.667 -0.0512 -0.1600  0.1569
  790POPS   C3B 8939   1.210  17.676   7.989 -0.2760  0.2721 -0.1163
  790POPS   C4B 8940   1.141  17.605   8.345  0.1296 -0.2304  0.0012
  791POPS   CNO 8941  11.395   1.594   6.186 -0.0669  0.1636 -0.1506
  791POPS   PO4 8942  10.934   1.665   6.206 -0.0947  0.1900  0.2355
  791POPS   GL1 8943  10.963   1.490   6.543  0.0527 -0.1345  0.2172
  791POPS   GL2 8944  11.245   1.289   6.553  0.1110  0.0002 -0.0471
  791POPS   C1A 8945  11.092   1.585   6.919  0.0336 -0.1609 -0.2828
  791POPS   D2A 8946  11.427   1.570   7.109 -0.1020  0.1538  0.0903
  791POPS   C3A 8947  11.570   1.257   6.924  0.0609 -0.1247 -0.1010
  791POPS   C4A 8948  11.542   0.840   6.818 -0.3466 -0.2396 -0.1594
  791POPS   C1B 8949  11.109   1.112   6.974 -0.1716  0.4552  0.0271
  791POPS   C2B 8950  10.990   1.073   7.399  0.0773  0.3108 -0.0438
  791POPS   C3B 8951  10.955   1.200   7.799 -0.1506 -0.0843 -0.0499
  791POPS   C4B 8952  11.167   1.435   8.064 -0.2205 -0.0131 -0.0272
  792POPS   CNO 8953   1.830  17.252   6.646  0.3970  0.2193  0.0204
  792POPS   PO4 8954   2.086  17.586   6.493  0.1448 -0.0641  0.0825
  792POPS   GL1 8955   2.336  17.423   6.853 -0.1362  0.1641 -0.3039
  792POPS   GL2 8956   2.158  17.434   7.088  0.1247  0.0850 -0.0368
  792POPS   C1A 8957   2.585  17.690   7.123  0.1204 -0.0909  0.1753
  792POPS   D2A 8958   2.672  17.779   7.608  0.1521  0.0284 -0.1233
  792POPS   C3A 8959   2.499  17.670   7.952 -0.4852 -0.1256 -0.1220
  792POPS   C4A 8960   2.401  17.599   8.408 -0.3876 -0.0880 -0.2315
  792POPS   C1B 8961   2.371  17.364   7.482  0.0947 -0.1070  0.1695
  792POPS   C2B 8962   2.508  17.159   7.859 -0.1527 -0.1750 -0.0832
  792POPS   C3B 8963   2.556  17.111   8.273 -0.1846 -0.2959 -0.0950
  792POPS   C4B 8964   2.508  17.097   8.716 -0.1713  0.3547 -0.0106
  793POPS   CNO 8965  14.020  16.237   6.362 -0.2305  0.2834  0.1474
  793POPS   PO4 8966  14.399  16.079   6.432 -0.1671  0.1418  0.2224
  793POPS   GL1 8967  14.350  16.243   6.829  0.0449 -0.1949 -0.1617
  793POPS   GL2 8968  14.488  16.598   6.993 -0.0589 -0.0832 -0.0971
  793POPS   C1A 8969  14.207  16.222   7.272 -0.0105  0.0960  0.4345
  793POPS   D2A 8970  14.116  16.281   7.610  0.1738  0.4789  0.2134
  793POPS   C3A 8971  14.116  16.181   8.029 -0.4414 -0.0336  0.0168
  793POPS   C4A 8972  14.071  16.217   8.397 -0.2732  0.2581  0.0610
  793POPS   C1B 8973  14.269  16.741   7.378 -0.2555 -0.1888 -0.1413
  793POPS   C2B 8974  14.063  16.759   7.751 -0.2548 -0.0989  0.0554
  793POPS   C3B 8975  13.912  17.083   8.070 -0.0284 -0.1897 -0.3420
  793POPS   C4B 8976  13.936  17.095   8.392  0.4624  0.0897  0.0778
  794POPS   CNO 8977   8.042  11.553   6.342 -0.1447 -0.1200 -0.1361
  794POPS   PO4 8978   8.222  11.741   5.888 -0.1858  0.1237  0.2354
  794POPS   GL1 8979   8.396  11.865   6.204  0.0267  0.0974 -0.0869
  794POPS   GL2 8980   8.443  12.179   6.259 -0.0948 -0.3600  0.1114
  794POPS   C1A 8981   8.380  11.735   6.632  0.1534 -0.0460 -0.0635
  794POPS   D2A 8982   8.576  11.583   6.994 -0.0602 -0.1337  0.0583
  794POPS   C3A 8983   8.547  11.654   7.413 -0.1906  0.0810  0.0548
  794POPS   C4A 8984   8.769  11.922   7.680  0.1619  0.0976 -0.1162
  794POPS   C1B 8985   8.725  12.054   6.695 -0.2674 -0.2534 -0.0768
  794POPS   C2B 8986   8.784  12.006   7.082  0.3644 -0.2370 -0.3233
  794POPS   C3B 8987   9.043  12.264   7.458  0.1890  0.0948  0.0153
  794POPS   C4B 8988   9.330  12.079   7.757  0.0910  0.0688  0.0120
  795POPS   CNO 8989   2.787  17.008   6.514  0.1122  0.2467 -0.0317
  795POPS   PO4 8990   3.216  16.995   6.625 -0.1055  0.0069  0.0805
  795POPS   GL1 8991   3.479  16.690   6.916 -0.0153  0.3388  0.1550
  795POPS   GL2 8992   3.622  16.876   7.074 -0.1912  0.0200 -0.3583
  795POPS   C1A 8993   3.678  16.347   7.155  0.1575 -0.2784  0.2474
  795POPS   D2A 8994   3.877  16.151   7.451 -0.0989 -0.0268  0.1346
  795POPS   C3A 8995   3.709  16.079   7.811  0.1999 -0.1386 -0.2302
  795POPS   C4A 8996   3.884  16.134   8.201  0.2560 -0.0083  0.5314
  795POPS   C1B 8997   3.832  16.673   7.465 -0.0469  0.0273 -0.0095
  795POPS   C2B 8998   3.951  16.525   7.907 -0.4699  0.0847 -0.0820
  795POPS   C3B 8999   4.120  16.601   8.292 -0.2137  0.4786 -0.0093
  795POPS   C4B 9000   4.156  16.494   8.627  0.0133 -0.0464 -0.3680
  796POPS   CNO 9001   6.409   9.122   6.143 -0.3244  0.0472  0.1142
  796POPS   PO4 9002   6.656   9.012   6.458 -0.1464  0.3785 -0.1310
  796POPS   GL1 9003   6.543   8.951   6.938  0.1901  0.1418 -0.1085
  796POPS   GL2 9004   6.768   9.084   7.061  0.0088 -0.4390  0.0242
  796POPS   C1A 9005   6.283   9.006   7.242  0.0591 -0.2093 -0.0703
  796POPS   D2A 9006   6.131   8.962   7.552 -0.0417 -0.2567 -0.0826
  796POPS   C3A 9007   6.249   8.852   7.966  0.2066 -0.1783 -0.1250
  796POPS   C4A 9008   6.108   8.606   8.180 -0.1831  0.0018  0.1566
  796POPS   C1B 9009   6.737   9.012   7.491  0.1063  0.1141  0.1199
  796POPS   C2B 9010   6.758   8.876   7.966  0.0020 -0.2890 -0.1143
  796POPS   C3B 9011   6.606   8.848   8.361 -0.0123 -0.0308 -0.2544
  796POPS   C4B 9012   6.898   8.707   8.814  0.0050 -0.0018  0.2225
  797POPS   CNO 9013   1.350  12.139   6.063  0.1296  0.1867  0.1242
  797POPS   PO4 9014   1.479  11.802   6.286  0.2848 -0.1979 -0.2814
  797POPS   GL1 9015   1.398  11.579   6.635 -0.1303  0.3964 -0.0453
  797POPS   GL2 9016   1.448  11.223   6.627 -0.2465  0.0089  0.0116
  797POPS   C1A 9017   1.236  11.706   7.042  0.0471 -0.0739  0.1223
  797POPS   D2A 9018   1.275  11.716   7.527  0.0424 -0.0800  0.0112
  797POPS   C3A 9019   1.486  11.730   7.920 -0.1384 -0.2033 -0.0151
  797POPS   C4A 9020   1.499  11.392   8.177  0.1045  0.0091 -0.2999
  797POPS   C1B 9021   1.690  11.358   6.975 -0.3131 -0.1690  0.0138
  797POPS   C2B 9022   1.775  11.457   7.359 -0.0362  0.0821 -0.1159
  797POPS   C3B 9023   1.880  11.396   7.774 -0.1630 -0.0347 -0.0430
  797POPS   C4B 9024   1.939  11.661   8.117  0.1017 -0.1904  0.1521
  798POPS   CNO 9025   2.858  10.230   6.287  0.0863  0.0576 -0.0945
  798POPS   PO4 9026   2.664  10.544   6.551  0.3022  0.0749 -0.0870
  798POPS   GL1 9027   2.766  10.636   7.054  0.0182  0.2952  0.2183
  798POPS   GL2 9028   2.965  10.892   7.134  0.0923  0.2893  0.2465
  798POPS   C1A 9029   2.569  10.885   7.400  0.1369  0.0978 -0.0558
  798POPS   D2A 9030   2.616  10.947   7.787 -0.2816 -0.0206  0.1224
  798POPS   C3A 9031   2.580  10.927   8.225 -0.0014 -0.0273 -0.0577
  798POPS   C4A 9032   2.499  10.561   8.469  0.1857  0.2791  0.2375
  798POPS   C1B 9033   3.061  11.095   7.548 -0.2495  0.4351 -0.2450
  798POPS   C2B 9034   3.185  11.270   7.832  0.1165  0.1858 -0.0530
  798POPS   C3B 9035   3.613  11.328   8.081 -0.3349 -0.3623  0.1331
  798POPS   C4B 9036   3.958  11.161   8.256 -0.4002  0.0171 -0.3651
  799POPS   CNO 9037   6.670   5.204   5.934 -0.0918  0.0054 -0.0998
  799POPS   PO4 9038   6.986   5.001   5.811 -0.0004 -0.4298 -0.0101
  799POPS   GL1 9039   7.012   4.891   6.313  0.0334  0.1743  0.2597
  799POPS   GL2 9040   6.921   4.603   6.348  0.1844 -0.1056  0.0089
  799POPS   C1A 9041   7.305   4.882   6.609  0.1714 -0.2398  0.0933
  799POPS   D2A 9042   7.412   4.864   7.082 -0.1460 -0.1447 -0.0752
  799POPS   C3A 9043   7.507   5.118   7.404  0.1275 -0.0140  0.0770
  799POPS   C4A 9044   7.617   5.137   7.814 -0.0010  0.0694 -0.2944
  799POPS   C1B 9045   7.032   4.531   6.861  0.2017  0.0855 -0.1567
  799POPS   C2B 9046   7.220   4.417   7.230 -0.1259  0.3716  0.1727
  799POPS   C3B 9047   7.246   4.327   7.724 -0.2652 -0.2328 -0.3746
  799POPS   C4B 9048   7.121   4.415   8.145 -0.1353 -0.0613 -0.4092
  800POPS   CNO 9049  12.232  15.158   5.700 -0.0762  0.2311 -0.0141
  800POPS   PO4 9050  11.982  14.913   5.961 -0.1747  0.2691  0.1132
  800POPS   GL1 9051  11.867  14.898   6.323  0.0390  0.0654  0.1905
  800POPS   GL2 9052  11.824  15.161   6.431  0.0307 -0.0798  0.1205
  800POPS   C1A 9053  11.972  14.702   6.781 -0.0157 -0.3421  0.3707
  800POPS   D2A 9054  12.039  14.446   7.152  0.1465  0.2858 -0.2072
  800POPS   C3A 9055  11.962  14.496   7.639 -0.4084  0.0116  0.0360
  800POPS   C4A 9056  11.890  14.807   7.871 -0.1679  0.5022  0.2311
  800POPS   C1B 9057  12.073  15.198   6.735  0.0375  0.0218 -0.0346
  800POPS   C2B 9058  12.260  15.444   7.044  0.1572  0.0297 -0.1604
  800POPS   C3B 9059  12.330  15.868   7.221 -0.0825  0.0601  0.0470
  800POPS   C4B 9060  12.031  16.278   7.249 -0.3029  0.0351 -0.2591
  801POPS   CNO 9061   2.640   4.261   6.576 -0.1702  0.0926 -0.0305
  801POPS   PO4 9062   2.868   4.264   6.173 -0.1187  0.0446 -0.3953
  801POPS   GL1 9063   3.096   4.489   6.531 -0.0584  0.1390  0.2241
  801POPS   GL2 9064   3.111   4.720   6.743 -0.0259  0.0332  0.1443
  801POPS   C1A 9065   3.035   4.325   7.021  0.0807 -0.0652 -0.0879
  801POPS   D2A 9066   2.940   4.021   7.430  0.0623  0.0038  0.2189
  801POPS   C3A 9067   2.978   4.071   7.873  0.2651 -0.0876 -0.0838
  801POPS   C4A 9068   2.924   3.974   8.361 -0.0319  0.1287  0.0829
  801POPS   C1B 9069   3.190   4.749   7.204  0.1392  0.0324 -0.2370
  801POPS   C2B 9070   3.250   4.807   7.609 -0.1690  0.0666 -0.6383
  801POPS   C3B 9071   3.436   4.786   8.005  0.2478  0.0261  0.0009
  801POPS   C4B 9072   3.673   4.677   8.352 -0.0319  0.0400  0.0909
  802POPS   CNO 9073  13.944  13.570   5.978 -0.1617  0.2242  0.2104
  802POPS   PO4 9074  14.368  13.534   6.165 -0.2395  0.0170 -0.0960
  802POPS   GL1 9075  14.484  13.217   6.512 -0.0578 -0.0394 -0.1230
  802POPS   GL2 9076  14.599  12.916   6.405 -0.3403 -0.0689  0.2033
  802POPS   C1A 9077  14.438  13.086   6.972  0.1834 -0.2226  0.1703
  802POPS   D2A 9078  14.361  12.989   7.321  0.0563 -0.0862  0.2744
  802POPS   C3A 9079  14.465  12.897   7.775  0.0423 -0.1320  0.3255
  802POPS   C4A 9080  14.387  12.835   8.203  0.1728 -0.1734  0.0064
  802POPS   C1B 9081  14.522  12.600   6.653 -0.1127 -0.0510 -0.2777
  802POPS   C2B 9082  14.519  12.581   7.070 -0.1402  0.1887  0.3542
  802POPS   C3B 9083  14.663  12.468   7.423  0.0766 -0.2425 -0.0294
  802POPS   C4B 9084  14.881  12.522   7.805  0.2835  0.2594 -0.2895
  803POPS   CNO 9085   0.261   4.604   6.280  0.0590 -0.1885 -0.0468
  803POPS   PO4 9086   0.642   4.638   6.161  0.2968 -0.2958  0.0703
  803POPS   GL1 9087   0.698   4.385   6.446  0.2133  0.3552 -0.0505
  803POPS   GL2 9088   0.525   4.476   6.690 -0.1106 -0.1962 -0.1205
  803POPS   C1A 9089   0.580   3.943   6.701  0.0767 -0.1589  0.2903
  803POPS   D2A 9090   0.524   3.821   7.170  0.5724  0.1612  0.1046
  803POPS   C3A 9091   0.819   3.732   7.439 -0.2569 -0.2744 -0.0296
  803POPS   C4A 9092   1.061   3.762   7.909 -0.1510 -0.1919 -0.0599
  803POPS   C1B 9093   0.747   4.660   7.032  0.0052  0.2793  0.1576
  803POPS   C2B 9094   0.775   4.912   7.325  0.1097  0.0216  0.2963
  803POPS   C3B 9095   0.614   5.055   7.748 -0.1270  0.1168 -0.0280
  803POPS   C4B 9096   0.189   5.245   7.848  0.0399  0.0505  0.3735
  804POPS   CNO 9097   3.671   6.306   6.131  0.2266  0.0295  0.3544
  804POPS   PO4 9098   3.999   6.405   6.244  0.0384 -0.0981 -0.0043
  804POPS   GL1 9099   3.974   6.275   6.651 -0.2788 -0.0266 -0.0332
  804POPS   GL2 9100   3.731   6.088   6.763  0.0000 -0.0673 -0.0366
  804POPS   C1A 9101   4.337   6.295   6.798  0.1814  0.2772 -0.2383
  804POPS   D2A 9102   4.478   6.420   7.282 -0.0314 -0.4575  0.0525
  804POPS   C3A 9103   4.697   6.597   7.570  0.2578  0.0466  0.1398
  804POPS   C4A 9104   4.767   7.015   7.881  0.0348  0.0562 -0.1316
  804POPS   C1B 9105   3.468   6.081   7.105 -0.2534 -0.0956  0.2792
  804POPS   C2B 9106   3.098   6.091   7.263 -0.1976  0.4069 -0.1674
  804POPS   C3B 9107   2.879   6.325   7.686 -0.1815  0.1335 -0.1391
  804POPS   C4B 9108   2.972   6.496   8.039  0.0487 -0.1773 -0.1362
  805POPS   CNO 9109   4.540   9.647   6.567 -0.0215 -0.0029  0.1178
  805POPS   PO4 9110   4.324   9.831   6.883 -0.2000 -0.1483  0.0849
  805POPS   GL1 9111   4.100  10.123   7.059  0.6218 -0.0057  0.1897
  805POPS   GL2 9112   4.222  10.167   7.311  0.0600 -0.1824 -0.0816
  805POPS   C1A 9113   3.840  10.442   7.342  0.0006  0.1625 -0.0772
  805POPS   D2A 9114   3.674  10.535   7.757  0.1552 -0.1354 -0.1557
  805POPS   C3A 9115   3.874  10.673   8.130  0.0733 -0.0580  0.0509
  805POPS   C4A 9116   3.922  10.441   8.537 -0.0238  0.1045 -0.0068
  805POPS   C1B 9117   3.924  10.103   7.688  0.0794 -0.3311 -0.2705
  805POPS   C2B 9118   3.984  10.132   8.096  0.1612  0.0479 -0.2781
  805POPS   C3B 9119   4.361  10.332   8.285 -0.0418 -0.0844  0.0200
  805POPS   C4B 9120   4.532  10.622   8.573 -0.0453  0.3431  0.1603
  806POPS   CNO 9121  13.362   4.852   5.414  0.0448 -0.2851  0.1056
  806POPS   PO4 9122  13.190   4.635   5.656  0.0258  0.0377  0.0077
  806POPS   GL1 9123  13.232   4.460   6.099 -0.0326  0.0087 -0.0655
  806POPS   GL2 9124  13.512   4.405   6.175 -0.1073  0.1132 -0.0274
  806POPS   C1A 9125  13.197   4.654   6.461 -0.2995  0.1829  0.1500
  806POPS   D2A 9126  13.162   4.859   6.800  0.0590 -0.1410 -0.1167
  806POPS   C3A 9127  13.194   4.932   7.236  0.1591 -0.1844  0.0545
  806POPS   C4A 9128  13.161   5.284   7.528 -0.1196 -0.1146 -0.0166
  806POPS   C1B 9129  13.472   4.244   6.563 -0.3949  0.0665 -0.0024
  806POPS   C2B 9130  13.415   4.159   6.924 -0.2098  0.3909 -0.2880
  806POPS   C3B 9131  13.615   4.422   7.272  0.3359 -0.1015  0.2295
  806POPS   C4B 9132  13.506   4.514   7.700 -0.0997 -0.0104  0.0633
  807POPS   CNO 9133   3.969   0.114   6.499 -0.2355  0.1780  0.0528
  807POPS   PO4 9134   3.822  -0.333   6.440  0.1297 -0.0027 -0.3509
  807POPS   GL1 9135   3.784  -0.341   6.860 -0.1916 -0.0187 -0.1094
  807POPS   GL2 9136   3.540  -0.167   6.904 -0.3617 -0.1793 -0.0338
  807POPS   C1A 9137   3.622  -0.561   7.289  0.1531 -0.2086  0.1850
  807POPS   D2A 9138   3.886  -0.720   7.605  0.1334  0.0914  0.1395
  807POPS   C3A 9139   3.669  -0.711   8.018 -0.1482 -0.0789 -0.0786
  807POPS   C4A 9140   3.435  -0.910   8.151 -0.0606 -0.1185  0.1279
  807POPS   C1B 9141   3.643  -0.023   7.262 -0.2979  0.0176 -0.1091
  807POPS   C2B 9142   3.714  -0.205   7.728 -0.0937 -0.0822  0.1671
  807POPS   C3B 9143   3.879  -0.267   8.157 -0.4542 -0.1139 -0.2473
  807POPS   C4B 9144   4.032  -0.194   8.662 -0.4282  0.1004  0.0696
  808POPS   CNO 9145   0.076   4.298   5.557  0.0006 -0.1841 -0.3305
  808POPS   PO4 9146  -0.065   3.880   5.839  0.2397 -0.2783  0.2158
  808POPS   GL1 9147   0.007   3.811   6.369 -0.2908 -0.1436 -0.1587
  808POPS   GL2 9148   0.236   4.113   6.441 -0.1353  0.3750  0.1611
  808POPS   C1A 9149   0.137   3.681   6.753  0.1354  0.1712  0.0834
  808POPS   D2A 9150   0.010   3.213   6.746 -0.0568 -0.0158 -0.0736
  808POPS   C3A 9151  -0.114   2.954   7.095 -0.0296 -0.0544  0.1986
  808POPS   C4A 9152  -0.109   2.962   7.452  0.0381  0.2571 -0.1338
  808POPS   C1B 9153   0.174   4.158   6.879 -0.5687 -0.1912 -0.3216
  808POPS   C2B 9154   0.443   4.322   7.206  0.0836  0.2472 -0.2280
  808POPS   C3B 9155   0.499   4.413   7.472  0.2587  0.0259  0.1714
  808POPS   C4B 9156   0.667   4.539   7.720  0.0423 -0.0570  0.2648
  809YOPS   CNO 9157   3.634   2.500   6.534  0.0031 -0.0613 -0.0763
  809YOPS   PO4 9158   3.260   2.440   6.450  0.1693 -0.2108 -0.4118
  809YOPS   GL1 9159   3.327   2.178   6.781  0.3447  0.1715 -0.2689
  809YOPS   GL2 9160   3.001   2.137   6.809 -0.1003  0.1642 -0.0429
  809YOPS   C1A 9161   3.726   2.200   7.070  0.0617 -0.0199 -0.1421
  809YOPS   D2A 9162   3.979   2.409   7.301 -0.6315 -0.0496 -0.0516
  809YOPS   C3A 9163   4.001   2.825   7.444  0.2897  0.1749  0.2266
  809YOPS   C4A 9164   4.085   3.310   7.603 -0.1125  0.1296  0.0435
  809YOPS   C1B 9165   3.257   1.921   7.177  0.0707  0.0040  0.0845
  809YOPS   C2B 9166   3.170   1.751   7.467 -0.2457  0.0609  0.2433
  809YOPS   D3B 9167   3.231   1.960   7.846  0.4938 -0.0101 -0.0858
  809YOPS   C4B 9168   3.473   2.263   8.060  0.2764 -0.2867 -0.1169
  810YOPS   CNO 9169  11.196   8.192   6.268  0.1100 -0.0590 -0.0386
  810YOPS   PO4 9170  11.626   8.215   6.117  0.1647 -0.0473 -0.0996
  810YOPS   GL1 9171  11.608   8.252   6.590 -0.1111 -0.1795 -0.3045
  810YOPS   GL2 9172  11.878   8.560   6.560  0.2707  0.2524 -0.0052
  810YOPS   C1A 9173  11.639   8.327   6.914  0.1060  0.4071  0.0473
  810YOPS   D2A 9174  11.702   8.646   7.253  0.2968 -0.2921  0.1326
  810YOPS   C3A 9175  11.907   9.017   7.457 -0.2698 -0.0181  0.1993
  810YOPS   C4A 9176  12.320   9.071   7.262  0.6159 -0.3370  0.0301
  810YOPS   C1B 9177  11.558   8.829   6.734  0.2051 -0.1446 -0.3513
  810YOPS   C2B 9178  11.377   9.024   7.161  0.1531  0.2123  0.2218
  810YOPS   D3B 9179  11.418   8.863   7.631 -0.2221 -0.1407 -0.1441
  810YOPS   C4B 9180  11.742   9.031   7.927  0.0848 -0.2944 -0.0998
  811YOPS   CNO 9181  13.235  14.055   6.035  0.0760 -0.4375 -0.2266
  811YOPS   PO4 9182  13.426  13.604   6.146  0.1929  0.2765 -0.0372
  811YOPS   GL1 9183  13.545  13.295   6.452 -0.0534  0.1299  0.1001
  811YOPS   GL2 9184  13.923  13.379   6.591  0.0374  0.0387 -0.3041
  811YOPS   C1A 9185  13.588  13.398   6.974  0.0245  0.1746 -0.2498
  811YOPS   D2A 9186  13.636  13.363   7.388  0.0912  0.0965  0.1227
  811YOPS   C3A 9187  13.606  13.479   7.877 -0.0175  0.1998  0.1024
  811YOPS   C4A 9188  13.352  13.303   8.088 -0.1759  0.1720  0.1684
  811YOPS   C1B 9189  13.963  13.072   6.909  0.1977 -0.0920 -0.0247
  811YOPS   C2B 9190  13.787  12.933   7.312  0.0917  0.2148 -0.0874
  811YOPS   D3B 9191  13.654  12.622   7.460  0.1547 -0.0795  0.0667
  811YOPS   C4B 9192  13.492  12.557   7.823  0.1219  0.0362 -0.0934
  812YOPS   CNO 9193  17.529   5.254   6.137 -0.1954 -0.0005 -0.0436
  812YOPS   PO4 9194  17.695   5.727   6.262 -0.2443  0.1002  0.1367
  812YOPS   GL1 9195  17.640   5.662   6.650  0.0777  0.3970 -0.1727
  812YOPS   GL2 9196  17.930   5.750   6.791  0.0277 -0.2193 -0.3219
  812YOPS   C1A 9197  17.315   5.474   6.798  0.0372  0.0470  0.1229
  812YOPS   D2A 9198  17.400   5.195   7.115 -0.1939  0.0045  0.1714
  812YOPS   C3A 9199  17.495   5.019   7.558 -0.1365 -0.2543  0.4202
  812YOPS   C4A 9200  17.825   4.695   7.568 -0.0451  0.0039 -0.1295
  812YOPS   C1B 9201  17.822   5.561   7.245  0.2591 -0.1261  0.1058
  812YOPS   C2B 9202  17.778   5.456   7.633 -0.3042  0.0697 -0.1026
  812YOPS   D3B 9203  18.038   5.473   7.995 -0.0192 -0.1363 -0.2301
  812YOPS   C4B 9204  18.434   5.807   8.164 -0.1695  0.0294 -0.2511
  813YOPS   CNO 9205   7.134  17.409   5.697  0.3677  0.0177 -0.0775
  813YOPS   PO4 9206   6.864  17.724   5.858 -0.3751 -0.1860 -0.0901
  813YOPS   GL1 9207   6.739  17.725   6.290 -0.0542  0.1751 -0.1195
  813YOPS   GL2 9208   6.849  17.445   6.340 -0.0606  0.2493  0.0434
  813YOPS   C1A 9209   6.725  17.888   6.689 -0.1493  0.1401  0.0096
  813YOPS   D2A 9210   6.878  17.906   7.133 -0.0084 -0.0225  0.1083
  813YOPS   C3A 9211   6.823  17.655   7.435 -0.1686 -0.2713 -0.2240
  813YOPS   C4A 9212   6.789  17.150   7.410 -0.2036 -0.0338  0.4300
  813YOPS   C1B 9213   6.948  17.458   6.746 -0.1452  0.0328  0.1381
  813YOPS   C2B 9214   7.235  17.473   7.085  0.2144  0.2372 -0.0497
  813YOPS   D3B 9215   7.469  17.605   7.368 -0.2782  0.1920 -0.1620
  813YOPS   C4B 9216   7.221  17.624   7.745 -0.1270 -0.1484 -0.3643
  814YOPS   CNO 9217  17.880  12.936   6.596 -0.0322 -0.1687 -0.2685
  814YOPS   PO4 9218  17.461  12.686   6.539  0.2031  0.0799  0.0935
  814YOPS   GL1 9219  17.434  12.786   6.982 -0.0893  0.0556 -0.3242
  814YOPS   GL2 9220  17.106  12.636   7.111 -0.1502 -0.1259  0.0390
  814YOPS   C1A 9221  17.580  12.690   7.441  0.1039  0.0453  0.3602
  814YOPS   D2A 9222  17.595  12.736   7.866 -0.1554 -0.1477  0.0269
  814YOPS   C3A 9223  17.641  12.472   8.095 -0.0218  0.1117 -0.1269
  814YOPS   C4A 9224  17.724  12.458   8.421  0.2618 -0.2907  0.0759
  814YOPS   C1B 9225  16.997  12.338   7.535  0.1340  0.0353  0.1916
  814YOPS   C2B 9226  17.197  12.460   7.840 -0.1269  0.2076  0.0447
  814YOPS   D3B 9227  17.202  12.694   8.108 -0.0301 -0.1318 -0.0825
  814YOPS   C4B 9228  17.542  12.885   8.390 -0.1606 -0.2268  0.1499
  815YOPS   CNO 9229  16.763   7.949   6.539 -0.3688 -0.0700  0.3240
  815YOPS   PO4 9230  16.823   8.421   6.638 -0.0559  0.3046  0.2904
  815YOPS   GL1 9231  17.081   8.457   6.988 -0.3285  0.2725  0.0979
  815YOPS   GL2 9232  16.914   8.092   7.037  0.0386  0.0056  0.0389
  815YOPS   C1A 9233  17.112   8.470   7.411  0.0457  0.4063  0.2825
  815YOPS   D2A 9234  17.077   8.327   7.820 -0.1550 -0.2737  0.1554
  815YOPS   C3A 9235  16.919   8.138   8.233  0.0146 -0.1493  0.3865
  815YOPS   C4A 9236  17.030   8.428   8.580  0.0661  0.2103 -0.0370
  815YOPS   C1B 9237  16.923   7.889   7.369 -0.0565 -0.0436 -0.3079
  815YOPS   C2B 9238  16.779   7.896   7.814  0.0311 -0.0305  0.1904
  815YOPS   D3B 9239  16.526   7.861   8.230  0.1224  0.0004  0.0706
  815YOPS   C4B 9240  16.542   8.274   8.578 -0.0621 -0.0948 -0.1122
  816YOPS   CNO 9241  13.561  12.163   5.981  0.2723  0.1364  0.2263
  816YOPS   PO4 9242  13.396  11.883   6.199  0.3545  0.0580  0.1045
  816YOPS   GL1 9243  13.467  11.740   6.652  0.1377  0.1678 -0.2296
  816YOPS   GL2 9244  13.685  11.839   6.637  0.1282 -0.0734 -0.0267
  816YOPS   C1A 9245  13.517  11.652   7.067 -0.0238 -0.3757 -0.1346
  816YOPS   D2A 9246  13.500  11.541   7.536  0.0135  0.1512  0.2582
  816YOPS   C3A 9247  13.257  11.673   7.922  0.1724 -0.1000 -0.3690
  816YOPS   C4A 9248  13.358  11.559   8.249  0.0523  0.0929  0.0734
  816YOPS   C1B 9249  14.017  11.707   6.874 -0.0968  0.2746  0.1166
  816YOPS   C2B 9250  13.909  11.380   7.252 -0.0033 -0.4130 -0.0630
  816YOPS   D3B 9251  13.835  11.183   7.631 -0.1567  0.2257  0.0894
  816YOPS   C4B 9252  13.686  11.293   7.949  0.0083 -0.1004 -0.0247
  817YOPS   CNO 9253  15.448   5.832   5.598  0.1294 -0.1543 -0.0003
  817YOPS   PO4 9254  15.342   6.057   6.051 -0.1440 -0.1000 -0.0873
  817YOPS   GL1 9255  15.760   6.093   6.221 -0.0680  0.2148 -0.1294
  817YOPS   GL2 9256  16.109   6.118   6.200  0.0486 -0.2690  0.2242
  817YOPS   C1A 9257  15.982   5.903   6.634 -0.0305 -0.4508 -0.1405
  817YOPS   D2A 9258  16.049   5.914   7.020 -0.1246  0.1589  0.0638
  817YOPS   C3A 9259  16.381   5.923   7.354 -0.0240 -0.2409 -0.0310
  817YOPS   C4A 9260  16.469   6.311   7.516 -0.1846 -0.1909 -0.0850
  817YOPS   C1B 9261  15.947   6.383   6.634 -0.2569 -0.3176 -0.2196
  817YOPS   C2B 9262  15.971   6.776   6.803  0.0517 -0.0120 -0.0580
  817YOPS   D3B 9263  15.953   7.099   7.144  0.0288 -0.0887 -0.2366
  817YOPS   C4B 9264  15.913   6.928   7.628 -0.0588 -0.2433  0.1403
  818YOPS   CNO 9265  16.602  15.513   6.449  0.1368 -0.1293  0.1729
  818YOPS   PO4 9266  16.855  15.269   6.731 -0.1105 -0.2578 -0.0294
  818YOPS   GL1 9267  16.881  15.025   6.995  0.1950 -0.1709  0.1244
  818YOPS   GL2 9268  16.763  14.773   6.871 -0.3618  0.2397  0.2001
  818YOPS   C1A 9269  16.898  15.021   7.391  0.0581 -0.3835 -0.1363
  818YOPS   D2A 9270  16.738  15.029   7.719 -0.0441  0.1090 -0.1755
  818YOPS   C3A 9271  16.550  14.889   8.137 -0.0998 -0.0605 -0.1702
  818YOPS   C4A 9272  16.743  14.834   8.420 -0.0776  0.1897  0.3147
  818YOPS   C1B 9273  16.546  14.759   7.251 -0.0542  0.2739  0.0835
  818YOPS   C2B 9274  16.527  14.601   7.607 -0.1269 -0.3162  0.2091
  818YOPS   D3B 9275  16.352  14.362   7.863 -0.2870  0.0592  0.0334
  818YOPS   C4B 9276  15.961  14.187   7.801  0.1375 -0.1428 -0.1285
  819YOPS   CNO 9277   3.035  14.335   6.707 -0.2020 -0.2774  0.1197
  819YOPS   PO4 9278   2.911  14.584   6.427  0.4617  0.1304 -0.1209
  819YOPS   GL1 9279   2.672  14.735   6.686  0.0618  0.2187  0.1541
  819YOPS   GL2 9280   2.804  14.737   6.958 -0.2743 -0.2339 -0.1762
  819YOPS   C1A 9281   2.287  14.793   6.997  0.0590  0.2951 -0.0669
  819YOPS   D2A 9282   2.269  14.743   7.503 -0.0372 -0.1374 -0.0636
  819YOPS   C3A 9283   2.250  14.917   7.861 -0.0359  0.1174  0.3712
  819YOPS   C4A 9284   2.413  14.765   8.209 -0.0938 -0.2424 -0.3797
  819YOPS   C1B 9285   2.746  14.788   7.403  0.0299  0.4010  0.0155
  819YOPS   C2B 9286   2.764  14.887   7.906  0.2090 -0.2855 -0.0281
  819YOPS   D3B 9287   2.845  14.946   8.365  0.0579 -0.1603  0.0888
  819YOPS   C4B 9288   2.733  14.678   8.670  0.2166 -0.0937  0.1000
  820YOPS   CNO 9289  11.830   9.808   5.285 -0.0581 -0.1663 -0.1494
  820YOPS   PO4 9290  11.770  10.100   5.559 -0.2975 -0.0898  0.0134
  820YOPS   GL1 9291  11.615  10.089   6.012  0.1858 -0.3478  0.2301
  820YOPS   GL2 9292  11.524   9.871   6.076  0.1511 -0.1043  0.0423
  820YOPS   C1A 9293  11.541  10.191   6.476  0.0039 -0.1803  0.0415
  820YOPS   D2A 9294  11.304  10.164   6.886  0.4465  0.0513  0.1380
  820YOPS   C3A 9295  11.283   9.905   7.219 -0.0305  0.0987 -0.2179
  820YOPS   C4A 9296  11.579   9.992   7.567  0.1806 -0.0750 -0.1589
  820YOPS   C1B 9297  11.687   9.599   6.339 -0.2056 -0.2654 -0.0224
  820YOPS   C2B 9298  12.001   9.550   6.682  0.0085 -0.1090 -0.1593
  820YOPS   D3B 9299  12.327   9.328   6.787 -0.3725  0.0569  0.4501
  820YOPS   C4B 9300  12.713   9.345   6.994  0.0951  0.3391 -0.0211
  821YOPS   CNO 9301  17.297  14.888   6.848 -0.0833 -0.1714 -0.0028
  821YOPS   PO4 9302  17.487  14.652   6.437 -0.1909  0.0491  0.2336
  821YOPS   GL1 9303  17.661  14.515   6.818 -0.1023 -0.2836 -0.1137
  821YOPS   GL2 9304  17.676  14.651   7.066  0.3593 -0.0966  0.1370
  821YOPS   C1A 9305  17.668  14.096   6.915 -0.0216  0.1291  0.0816
  821YOPS   D2A 9306  17.947  13.846   7.177 -0.1148 -0.0284 -0.2351
  821YOPS   C3A 9307  18.288  13.898   7.293 -0.2452 -0.0990  0.2255
  821YOPS   C4A 9308  18.399  13.821   7.788 -0.2560  0.0444  0.0538
  821YOPS   C1B 9309  17.585  14.470   7.425  0.1813  0.1677  0.0903
  821YOPS   C2B 9310  17.509  14.516   7.779  0.0080  0.1777 -0.1762
  821YOPS   D3B 9311  17.614  14.699   8.139  0.3786 -0.2930 -0.1139
  821YOPS   C4B 9312  17.301  14.799   8.422 -0.2044 -0.2308  0.1234
  822YOPS   CNO 9313  12.173   3.051   5.483 -0.1004 -0.0386 -0.0581
  822YOPS   PO4 9314  11.918   3.276   5.737 -0.2416 -0.1221 -0.3977
  822YOPS   GL1 9315  11.876   3.354   6.127  0.0312 -0.1022 -0.3876
  822YOPS   GL2 9316  12.158   3.466   6.240  0.3451  0.3930 -0.0556
  822YOPS   C1A 9317  11.944   3.106   6.523 -0.1509  0.1574 -0.0058
  822YOPS   D2A 9318  11.999   2.993   6.928 -0.1208 -0.1790  0.0133
  822YOPS   C3A 9319  11.629   3.083   7.208  0.1039  0.3062  0.2598
  822YOPS   C4A 9320  11.556   2.742   7.465  0.1906  0.0056 -0.1435
  822YOPS   C1B 9321  12.187   3.672   6.650  0.0884  0.0389  0.0842
  822YOPS   C2B 9322  12.000   3.859   7.003  0.1229  0.2951  0.0980
  822YOPS   D3B 9323  11.782   3.910   7.414 -0.0406  0.2866  0.0139
  822YOPS   C4B 9324  11.557   3.841   7.838 -0.0430 -0.1608  0.2386
  823YOPS   CNO 9325   2.656   9.786   6.218  0.2338 -0.0484 -0.0389
  823YOPS   PO4 9326   2.554   9.965   6.633 -0.1110 -0.2293  0.1609
  823YOPS   GL1 9327   2.689  10.028   7.046  0.3482  0.4004  0.3312
  823YOPS   GL2 9328   2.642   9.731   7.239 -0.1449  0.3102  0.1074
  823YOPS   C1A 9329   3.083  10.185   7.249 -0.0811  0.3357 -0.2126
  823YOPS   D2A 9330   3.463  10.103   7.540  0.0732  0.0830  0.2840
  823YOPS   C3A 9331   3.468  10.087   7.957  0.1987 -0.0551  0.0521
  823YOPS   C4A 9332   3.422  10.458   8.292  0.1490 -0.1902 -0.0609
  823YOPS   C1B 9333   2.739   9.527   7.655 -0.0989  0.0621  0.0555
  823YOPS   C2B 9334   2.884   9.427   8.135  0.2857 -0.0181 -0.3803
  823YOPS   D3B 9335   3.238   9.343   8.266 -0.1684 -0.1728  0.1341
  823YOPS   C4B 9336   3.348   9.576   8.704  0.0515  0.1163  0.0211
  824YOPS   CNO 9337   2.437   0.449   5.925  0.1931  0.0281 -0.2248
  824YOPS   PO4 9338   2.631   0.364   6.257  0.0296  0.0519  0.1478
  824YOPS   GL1 9339   2.435   0.171   6.605 -0.1652 -0.0133 -0.1126
  824YOPS   GL2 9340   2.206   0.224   6.894 -0.3752  0.2782 -0.2894
  824YOPS   C1A 9341   2.645  -0.014   7.011 -0.2573 -0.0473 -0.0084
  824YOPS   D2A 9342   2.689  -0.097   7.322 -0.0753  0.0031 -0.0875
  824YOPS   C3A 9343   2.739  -0.001   7.706 -0.0460 -0.0166 -0.0356
  824YOPS   C4A 9344   2.985   0.096   8.176  0.0900 -0.1794  0.1479
  824YOPS   C1B 9345   2.216   0.296   7.310  0.2979 -0.1160 -0.1487
  824YOPS   C2B 9346   2.180   0.385   7.737  0.0675  0.2742  0.0244
  824YOPS   D3B 9347   2.162   0.439   8.163 -0.0638 -0.1303 -0.1504
  824YOPS   C4B 9348   2.557   0.395   8.346 -0.0811  0.0653 -0.0560
  825YOPS   CNO 9349  17.339   2.295   6.293 -0.1159 -0.0662  0.2660
  825YOPS   PO4 9350  17.311   2.740   6.231  0.2364 -0.2156  0.0704
  825YOPS   GL1 9351  17.161   2.613   6.667 -0.0205  0.0905 -0.0413
  825YOPS   GL2 9352  16.979   2.311   6.671  0.0139 -0.1873  0.1049
  825YOPS   C1A 9353  17.104   2.652   7.054 -0.0490  0.2769  0.2617
  825YOPS   D2A 9354  17.137   2.758   7.505 -0.1546  0.0995 -0.1249
  825YOPS   C3A 9355  17.315   2.644   7.794 -0.0639 -0.2643  0.0129
  825YOPS   C4A 9356  17.620   2.518   8.061  0.0276 -0.1959 -0.3642
  825YOPS   C1B 9357  16.699   2.446   7.000  0.3638  0.0572 -0.2232
  825YOPS   C2B 9358  16.710   2.502   7.434 -0.1180  0.0890 -0.0904
  825YOPS   D3B 9359  16.814   2.575   7.857 -0.2650 -0.2239  0.0935
  825YOPS   C4B 9360  16.574   2.545   8.162  0.1444  0.3816  0.2620
  826YOPS   CNO 9361  14.415  11.841   5.441  0.1770 -0.0319  0.1277
  826YOPS   PO4 9362  14.245  12.117   5.850  0.2842 -0.0350  0.0932
  826YOPS   GL1 9363  14.410  12.211   6.383  0.1689 -0.4116  0.0690
  826YOPS   GL2 9364  14.230  12.069   6.661 -0.1421  0.2565 -0.0025
  826YOPS   C1A 9365  14.723  12.153   6.762  0.3312  0.0313 -0.1694
  826YOPS   D2A 9366  14.902  12.050   7.076  0.2342  0.0779 -0.0447
  826YOPS   C3A 9367  15.183  12.175   7.300 -0.1633  0.0665  0.1925
  826YOPS   C4A 9368  15.227  12.058   7.742  0.1153 -0.3047  0.2001
  826YOPS   C1B 9369  14.310  12.136   7.092 -0.1176 -0.1605  0.1813
  826YOPS   C2B 9370  14.339  12.104   7.545 -0.2890 -0.4191  0.1250
  826YOPS   D3B 9371  14.379  12.425   7.818 -0.2221  0.3306  0.1206
  826YOPS   C4B 9372  14.495  12.345   8.255  0.1162  0.0445  0.1040
  827YOPS   CNO 9373  13.058   0.891   5.976 -0.0039 -0.1131 -0.2179
  827YOPS   PO4 9374  13.134   0.949   6.498 -0.3373 -0.1263  0.0752
  827YOPS   GL1 9375  12.909   1.056   6.808  0.0093  0.0707 -0.0005
  827YOPS   GL2 9376  13.044   0.866   7.019 -0.2441 -0.1690 -0.1199
  827YOPS   C1A 9377  12.611   1.055   7.196 -0.1980 -0.2661 -0.0072
  827YOPS   D2A 9378  12.216   1.033   7.417 -0.1519  0.0244  0.0084
  827YOPS   C3A 9379  12.138   1.185   7.838 -0.4185  0.2837 -0.2977
  827YOPS   C4A 9380  12.575   1.308   8.014  0.1330  0.0423  0.0302
  827YOPS   C1B 9381  12.994   0.806   7.401  0.0285  0.1477 -0.0531
  827YOPS   C2B 9382  12.750   0.905   7.682 -0.4333 -0.2276  0.2469
  827YOPS   D3B 9383  12.673   0.856   8.122 -0.1174  0.0005 -0.5214
  827YOPS   C4B 9384  13.021   0.672   8.277  0.2817  0.2610  0.1128
  828YOPS   CNO 9385   8.845  16.715   5.085  0.3004 -0.1730  0.1573
  828YOPS   PO4 9386   9.091  17.027   5.281 -0.0030  0.0786  0.0740
  828YOPS   GL1 9387   9.208  17.192   5.787 -0.3205  0.0531  0.1133
  828YOPS   GL2 9388   9.174  17.555   5.833 -0.1728 -0.2581 -0.1220
  828YOPS   C1A 9389   9.242  17.290   6.247 -0.0533 -0.1031  0.0089
  828YOPS   D2A 9390   9.160  17.139   6.671 -0.1903 -0.0086  0.2412
  828YOPS   C3A 9391   9.210  17.266   7.160  0.3174  0.0283 -0.3113
  828YOPS   C4A 9392   8.904  17.206   7.521 -0.2706  0.0900 -0.1783
  828YOPS   C1B 9393   9.639  17.566   6.026 -0.1693  0.0526 -0.1322
  828YOPS   C2B 9394  10.032  17.608   6.061 -0.1400 -0.1160  0.1979
  828YOPS   D3B 9395  10.326  17.609   6.390 -0.1842  0.2784 -0.0910
  828YOPS   C4B 9396  10.162  17.487   6.834 -0.0461  0.1158  0.2280
  829YOPS   CNO 9397  17.266   4.393   5.579 -0.1502 -0.3019 -0.0740
  829YOPS   PO4 9398  17.093   4.596   5.905  0.2828 -0.3775  0.0192
  829YOPS   GL1 9399  16.948   4.529   6.380  0.2099 -0.0877 -0.1758
  829YOPS   GL2 9400  17.297   4.433   6.563  0.1408 -0.0438  0.2509
  829YOPS   C1A 9401  16.717   4.575   6.805  0.1417  0.0169  0.2543
  829YOPS   D2A 9402  16.690   4.684   7.199  0.0341  0.1341 -0.1835
  829YOPS   C3A 9403  16.652   4.404   7.608  0.0179 -0.1170  0.4277
  829YOPS   C4A 9404  16.990   4.134   7.777  0.3178  0.0913 -0.1372
  829YOPS   C1B 9405  17.605   4.279   6.845 -0.1178  0.1372 -0.1263
  829YOPS   C2B 9406  17.622   4.225   7.259 -0.0730  0.0914  0.3104
  829YOPS   D3B 9407  17.808   3.967   7.551  0.3682  0.2620  0.0868
  829YOPS   C4B 9408  17.909   4.267   7.870 -0.1263 -0.0171 -0.1776
  830YOPS   CNO 9409   3.654  12.002   6.440 -0.0437  0.2439 -0.1163
  830YOPS   PO4 9410   3.452  11.689   6.698  0.0751  0.0730  0.3314
  830YOPS   GL1 9411   3.500  11.941   7.014 -0.0529 -0.0540  0.4050
  830YOPS   GL2 9412   3.451  12.238   6.971  0.0115  0.0016 -0.1481
  830YOPS   C1A 9413   3.225  11.938   7.374  0.0084 -0.0406  0.1766
  830YOPS   D2A 9414   3.212  12.101   7.808  0.0318 -0.1781  0.2334
  830YOPS   C3A 9415   3.252  12.247   8.163 -0.2032  0.0743 -0.0751
  830YOPS   C4A 9416   2.773  12.353   8.218  0.0471  0.0231  0.1104
  830YOPS   C1B 9417   3.751  12.041   7.399 -0.0819  0.3000 -0.1771
  830YOPS   C2B 9418   3.748  12.065   7.740 -0.3385 -0.1610  0.0485
  830YOPS   D3B 9419   3.701  11.912   8.149  0.1226  0.2206  0.0005
  830YOPS   C4B 9420   4.020  11.683   8.355  0.2079 -0.2983  0.0751
  831YOPS   CNO 9421  17.856  17.408   5.935 -0.1311 -0.0055  0.0812
  831YOPS   PO4 9422  17.991  17.404   6.380 -0.0540 -0.3289  0.0243
  831YOPS   GL1 9423  18.017  17.263   6.834 -0.1130  0.1976  0.0283
  831YOPS   GL2 9424  17.736  17.218   7.020  0.2021 -0.0812 -0.2097
  831YOPS   C1A 9425  18.120  17.266   7.298 -0.3058  0.0906 -0.0489
  831YOPS   D2A 9426  18.117  17.239   7.802  0.0639 -0.2669  0.1676
  831YOPS   C3A 9427  18.150  17.213   8.231  0.1095 -0.0465 -0.0280
  831YOPS   C4A 9428  18.382  17.037   8.445 -0.1423 -0.1141 -0.0293
  831YOPS   C1B 9429  17.485  17.339   7.402 -0.0448  0.0842 -0.1809
  831YOPS   C2B 9430  17.551  17.180   7.882 -0.1150 -0.0978 -0.1154
  831YOPS   D3B 9431  17.707  16.960   8.245  0.1985 -0.2402  0.1649
  831YOPS   C4B 9432  17.883  16.836   8.508  0.0614  0.0538  0.2060
  832YOPS   CNO 9433  18.043   3.438   5.970  0.0087  0.2634 -0.3092
  832YOPS   PO4 9434  17.595   3.456   6.076 -0.0789  0.1941 -0.0512
  832YOPS   GL1 9435  17.393   3.616   6.415  0.0524 -0.1508  0.0256
  832YOPS   GL2 9436  17.508   3.921   6.571  0.1358 -0.2223  0.2252
  832YOPS   C1A 9437  17.059   3.573   6.710 -0.2644  0.4424 -0.1830
  832YOPS   D2A 9438  16.919   3.571   7.151 -0.0734 -0.0285  0.2112
  832YOPS   C3A 9439  16.691   3.868   7.346 -0.2706 -0.0778  0.0997
  832YOPS   C4A 9440  16.512   4.196   7.013  0.1099 -0.0187 -0.2399
  832YOPS   C1B 9441  17.434   3.788   7.011  0.0051 -0.0507 -0.2812
  832YOPS   C2B 9442  17.317   3.812   7.401 -0.0272  0.0715  0.5125
  832YOPS   D3B 9443  17.544   3.541   7.593 -0.3108 -0.2243 -0.3511
  832YOPS   C4B 9444  17.504   3.381   8.085 -0.0308  0.0450 -0.2750
  833YOPS   CNO 9445   9.982   2.258   6.132 -0.1341 -0.1428  0.2607
  833YOPS   PO4 9446  10.017   2.645   5.957  0.0231 -0.0052 -0.3041
  833YOPS   GL1 9447  10.108   2.823   6.345 -0.0708 -0.4975 -0.1210
  833YOPS   GL2 9448  10.301   2.607   6.440 -0.1025  0.0723  0.0946
  833YOPS   C1A 9449  10.314   3.104   6.646  0.0733  0.2883  0.4569
  833YOPS   D2A 9450  10.109   3.084   7.091 -0.0374 -0.2773 -0.4734
  833YOPS   C3A 9451  10.254   3.397   7.390 -0.0449 -0.0162 -0.2809
  833YOPS   C4A 9452  10.225   3.677   7.728 -0.0305 -0.1139 -0.2345
  833YOPS   C1B 9453  10.228   2.583   6.899 -0.0602 -0.0309  0.1336
  833YOPS   C2B 9454  10.240   2.600   7.318 -0.2948 -0.0806  0.1618
  833YOPS   D3B 9455  10.231   2.553   7.830 -0.0524  0.1443 -0.4919
  833YOPS   C4B 9456  10.042   2.273   8.108 -0.2533  0.0285  0.2001
  834YOPS   CNO 9457  12.681   8.524   6.215  0.1193 -0.1057 -0.1649
  834YOPS   PO4 9458  12.358   8.851   6.270  0.3201  0.0028  0.0902
  834YOPS   GL1 9459  12.577   8.831   6.622  0.1859  0.1657  0.1098
  834YOPS   GL2 9460  12.378   8.510   6.652 -0.2208  0.1196 -0.0036
  834YOPS   C1A 9461  12.652   8.625   7.017  0.1589  0.1511  0.0311
  834YOPS   D2A 9462  12.670   8.572   7.428  0.0951 -0.1676 -0.0988
  834YOPS   C3A 9463  12.733   8.336   7.808  0.1250 -0.2052 -0.0267
  834YOPS   C4A 9464  13.005   8.359   8.084  0.1983 -0.0201  0.1591
  834YOPS   C1B 9465  12.108   8.385   6.951 -0.1860  0.1887  0.0095
  834YOPS   C2B 9466  12.168   8.366   7.382  0.1092 -0.2207 -0.0816
  834YOPS   D3B 9467  12.238   8.726   7.709 -0.0294  0.1724  0.3079
  834YOPS   C4B 9468  12.663   8.816   7.874 -0.1708 -0.1536  0.0033
  835YOPS   CNO 9469   5.100  11.565   6.503  0.0213  0.1418  0.1430
  835YOPS   PO4 9470   4.966  11.159   6.610  0.1255 -0.3795 -0.3125
  835YOPS   GL1 9471   4.846  11.400   7.097  0.1272 -0.2152 -0.1135
  835YOPS   GL2 9472   4.426  11.404   7.185  0.0920 -0.4253 -0.0921
  835YOPS   C1A 9473   5.106  11.513   7.519  0.0906  0.1957 -0.0492
  835YOPS   D2A 9474   5.161  11.513   7.968  0.0893  0.2944 -0.0237
  835YOPS   C3A 9475   5.320  11.818   8.355 -0.1558  0.2530 -0.1210
  835YOPS   C4A 9476   4.893  12.028   8.659  0.0313 -0.1070  0.0223
  835YOPS   C1B 9477   4.609  11.218   7.482  0.0391  0.2624 -0.2287
  835YOPS   C2B 9478   4.780  11.186   7.836 -0.3410 -0.3971 -0.0803
  835YOPS   D3B 9479   4.791  11.095   8.199 -0.1763 -0.0983  0.0195
  835YOPS   C4B 9480   5.120  11.275   8.619  0.1784  0.0865 -0.2314
  836YOPS   CNO 9481   9.715   6.033   5.889  0.2446 -0.1093 -0.1497
  836YOPS   PO4 9482   9.814   6.399   6.219 -0.0119 -0.1101 -0.2677
  836YOPS   GL1 9483   9.555   6.319   6.530 -0.0316  0.0570 -0.1794
  836YOPS   GL2 9484   9.623   6.393   6.838  0.1744 -0.1602 -0.3693
  836YOPS   C1A 9485   9.285   5.943   6.768 -0.0085 -0.2347  0.1509
  836YOPS   D2A 9486   9.054   5.751   7.059 -0.0989  0.3245  0.2164
  836YOPS   C3A 9487   9.042   5.807   7.479  0.2560  0.2147  0.2757
  836YOPS   C4A 9488   9.087   5.427   7.734  0.1205 -0.0025  0.0877
  836YOPS   C1B 9489   9.725   6.291   7.293  0.0111  0.3622 -0.1169
  836YOPS   C2B 9490   9.651   6.196   7.678 -0.0198 -0.0200  0.0701
  836YOPS   D3B 9491   9.782   6.150   8.037  0.0222 -0.0662  0.0409
  836YOPS   C4B 9492  10.243   6.209   7.968 -0.1921  0.0043 -0.0550
  837YOPS   CNO 9493  10.055   1.401   5.653 -0.0073 -0.2656  0.1417
  837YOPS   PO4 9494  10.409   1.377   5.969 -0.3540  0.1745  0.1099
  837YOPS   GL1 9495  10.237   1.415   6.298 -0.1043 -0.0611  0.1060
  837YOPS   GL2 9496  10.359   1.626   6.544  0.1805 -0.0113  0.1748
  837YOPS   C1A 9497  10.110   1.155   6.660  0.1552 -0.6000 -0.0107
  837YOPS   D2A 9498  10.038   0.975   7.081  0.0868 -0.0197  0.0717
  837YOPS   C3A 9499   9.903   0.969   7.530 -0.1393 -0.0632 -0.2125
  837YOPS   C4A 9500   9.817   1.055   7.995 -0.5391 -0.2267  0.2358
  837YOPS   C1B 9501  10.590   1.464   6.942 -0.0959  0.1985 -0.1092
  837YOPS   C2B 9502  10.613   1.435   7.350 -0.0516  0.1263 -0.0144
  837YOPS   D3B 9503  10.585   1.573   7.754 -0.0002 -0.0442 -0.0926
  837YOPS   C4B 9504  10.376   1.256   8.014 -0.2584 -0.2769  0.1513
  838YOPS   CNO 9505   1.889   4.438   6.073 -0.0907 -0.0662  0.5110
  838YOPS   PO4 9506   1.462   4.673   6.099 -0.3101  0.1363 -0.0567
  838YOPS   GL1 9507   1.276   4.642   6.585  0.0652 -0.1703  0.0424
  838YOPS   GL2 9508   1.500   4.384   6.811 -0.1424 -0.1455 -0.0701
  838YOPS   C1A 9509   1.238   4.721   6.988  0.1989  0.0134  0.0539
  838YOPS   D2A 9510   1.246   4.921   7.412  0.2064 -0.1009 -0.0053
  838YOPS   C3A 9511   1.552   5.181   7.655 -0.0377 -0.0065  0.0398
  838YOPS   C4A 9512   1.959   5.070   7.496  0.2399 -0.0031 -0.3956
  838YOPS   C1B 9513   1.610   4.464   7.157  0.0962  0.1760  0.1816
  838YOPS   C2B 9514   1.639   4.636   7.508  0.3997 -0.3814 -0.1225
  838YOPS   D3B 9515   1.914   4.791   7.943 -0.0672  0.2582 -0.0300
  838YOPS   C4B 9516   1.732   4.958   8.181 -0.1192  0.0741 -0.0238
  839POPE   NH3 9517   6.493   3.022   5.475 -0.1956 -0.1285  0.2114
  839POPE   PO4 9518   6.832   3.024   5.652  0.0740 -0.2034 -0.4702
  839POPE   GL1 9519   6.941   3.243   6.037  0.1036  0.2152 -0.1988
  839POPE   GL2 9520   6.742   3.105   6.268 -0.1748 -0.0530 -0.1116
  839POPE   C1A 9521   7.150   3.279   6.541 -0.0835  0.2455 -0.0347
  839POPE   D2A 9522   7.225   3.045   6.844 -0.1493 -0.0429 -0.1449
  839POPE   C3A 9523   6.999   2.984   7.120  0.1044 -0.0079  0.0561
  839POPE   C4A 9524   6.811   2.877   7.533  0.1810  0.0857 -0.0130
  839POPE   C1B 9525   6.651   3.159   6.748  0.0114 -0.2481 -0.0615
  839POPE   C2B 9526   6.514   3.164   7.193  0.0197  0.0843 -0.1013
  839POPE   C3B 9527   6.507   3.405   7.539 -0.0725  0.0733 -0.1471
  839POPE   C4B 9528   6.696   3.652   7.631  0.1568 -0.5536  0.0353
  840POPE   NH3 9529   1.711  12.261   6.323 -0.0620  0.0797 -0.4276
  840POPE   PO4 9530   1.327  12.328   6.562 -0.1554  0.1307 -0.0907
  840POPE   GL1 9531   1.448  12.668   6.724 -0.0577 -0.1979 -0.1872
  840POPE   GL2 9532   1.461  12.950   6.526  0.3266  0.1731  0.3862
  840POPE   C1A 9533   1.436  12.439   7.209 -0.0167 -0.2562 -0.0146
  840POPE   D2A 9534   1.343  12.266   7.347 -0.0051  0.0653  0.0694
  840POPE   C3A 9535   1.378  12.204   7.782 -0.0658 -0.0431  0.0367
  840POPE   C4A 9536   1.182  12.156   8.174 -0.1444  0.0504 -0.2357
  840POPE   C1B 9537   1.388  13.108   6.957  0.0651 -0.3067 -0.2146
  840POPE   C2B 9538   1.371  13.002   7.370 -0.0404  0.0050 -0.1166
  840POPE   C3B 9539   1.269  12.835   7.742  0.0775  0.0540 -0.2800
  840POPE   C4B 9540   1.405  12.650   8.147 -0.2397 -0.0629 -0.0096
  841POPE   NH3 9541   6.499  13.700   6.368  0.1197 -0.0740  0.0359
  841POPE   PO4 9542   6.331  13.972   6.100  0.2423  0.0206 -0.2033
  841POPE   GL1 9543   6.335  14.145   6.462 -0.1057 -0.2510 -0.1291
  841POPE   GL2 9544   6.541  14.411   6.636 -0.0518 -0.0493 -0.0313
  841POPE   C1A 9545   6.253  13.976   6.928  0.2398 -0.3778 -0.4288
  841POPE   D2A 9546   6.401  13.988   7.359  0.1100 -0.1768 -0.0280
  841POPE   C3A 9547   6.432  14.377   7.597  0.0197 -0.2570 -0.2223
  841POPE   C4A 9548   6.395  14.567   7.991 -0.0328 -0.0402 -0.1493
  841POPE   C1B 9549   6.671  14.500   7.111 -0.0506 -0.3061  0.0669
  841POPE   C2B 9550   6.872  14.395   7.437  0.1931 -0.0470 -0.0543
  841POPE   C3B 9551   7.028  14.360   7.894 -0.0218 -0.1425  0.0319
  841POPE   C4B 9552   7.176  14.230   8.287 -0.2098  0.0936  0.0526
  842POPE   NH3 9553   2.763   2.498   6.331  0.4290 -0.3212 -0.0973
  842POPE   PO4 9554   2.838   2.935   6.544 -0.0559 -0.0504  0.2295
  842POPE   GL1 9555   3.117   2.956   6.920 -0.0368  0.1210  0.1331
  842POPE   GL2 9556   3.403   2.972   6.712  0.1691 -0.2093  0.1236
  842POPE   C1A 9557   3.138   3.077   7.309  0.1542  0.1332 -0.0902
  842POPE   D2A 9558   3.208   2.985   7.698  0.1084 -0.1983  0.1321
  842POPE   C3A 9559   3.160   3.215   7.992 -0.1109  0.0426 -0.1173
  842POPE   C4A 9560   3.267   3.121   8.403 -0.0645  0.0890  0.0662
  842POPE   C1B 9561   3.552   2.682   7.038  0.0577 -0.1692 -0.0844
  842POPE   C2B 9562   3.492   2.661   7.401 -0.0918  0.0301 -0.0335
  842POPE   C3B 9563   3.696   2.561   7.775 -0.0759  0.1120 -0.3049
  842POPE   C4B 9564   3.551   2.836   8.095 -0.1253 -0.3108  0.0174
  843POPE   NH3 9565   8.481  13.879   5.498 -0.0127  0.0429 -0.1022
  843POPE   PO4 9566   8.652  14.038   5.800  0.1068 -0.0225 -0.1411
  843POPE   GL1 9567   8.593  14.115   6.228 -0.0867  0.1967  0.0791
  843POPE   GL2 9568   8.287  14.226   6.281 -0.1218 -0.0857  0.0729
  843POPE   C1A 9569   8.920  14.157   6.521  0.4002  0.2482  0.0518
  843POPE   D2A 9570   9.071  14.077   6.945  0.2337 -0.0457  0.1368
  843POPE   C3A 9571   9.371  14.072   7.317 -0.2153  0.2032 -0.2009
  843POPE   C4A 9572   9.356  13.795   7.718  0.1354  0.1250 -0.0164
  843POPE   C1B 9573   8.500  14.429   6.611  0.0976  0.1029 -0.1038
  843POPE   C2B 9574   8.557  14.778   6.908  0.1588 -0.2719  0.0700
  843POPE   C3B 9575   8.616  14.770   7.324 -0.0574  0.0056  0.2314
  843POPE   C4B 9576   8.637  14.636   7.767  0.0383 -0.0341  0.1879
  844POPE   NH3 9577   8.699   8.857   6.415  0.2540  0.4542 -0.1320
  844POPE   PO4 9578   8.268   8.711   6.385 -0.3557 -0.2226 -0.1070
  844POPE   GL1 9579   8.385   8.813   6.803 -0.0589  0.0197  0.0311
  844POPE   GL2 9580   8.749   8.856   6.925  0.0142 -0.0990 -0.1000
  844POPE   C1A 9581   8.321   9.009   7.245  0.2096  0.1664 -0.1897
  844POPE   D2A 9582   8.418   8.938   7.551 -0.1736  0.0614  0.2022
  844POPE   C3A 9583   8.391   9.071   7.912  0.0164 -0.1202  0.3947
  844POPE   C4A 9584   8.178   8.961   8.292 -0.3437 -0.1032 -0.0751
  844POPE   C1B 9585   8.881   9.062   7.232 -0.1813 -0.1977  0.1422
  844POPE   C2B 9586   8.896   9.007   7.630  0.1133  0.2580 -0.3081
  844POPE   C3B 9587   9.325   8.887   7.903 -0.0953  0.2933 -0.0944
  844POPE   C4B 9588   9.713   8.894   7.754  0.0231  0.0827  0.1358
  845POPE   NH3 9589   4.719   0.507   6.385 -0.0579  0.0142 -0.3390
  845POPE   PO4 9590   4.509   0.076   6.450 -0.1081 -0.2505 -0.0034
  845POPE   GL1 9591   4.462   0.262   6.838 -0.0500  0.2369  0.1626
  845POPE   GL2 9592   4.714   0.547   6.894 -0.0802 -0.0994 -0.0536
  845POPE   C1A 9593   4.509   0.257   7.264  0.0166 -0.3069  0.0325
  845POPE   D2A 9594   4.511   0.191   7.683  0.0132 -0.0875 -0.1822
  845POPE   C3A 9595   4.099   0.087   7.921 -0.1668 -0.1113  0.2211
  845POPE   C4A 9596   3.957   0.203   8.319  0.0196  0.0983  0.0517
  845POPE   C1B 9597   4.754   0.715   7.276  0.4521 -0.0368 -0.1172
  845POPE   C2B 9598   4.502   0.693   7.602  0.0046 -0.0672 -0.0565
  845POPE   C3B 9599   4.102   0.571   7.884 -0.1750 -0.1072 -0.0912
  845POPE   C4B 9600   3.748   0.602   8.024  0.2107 -0.0062 -0.0082
  846POPE   NH3 9601   4.411   9.054   6.478  0.2572  0.1645 -0.2621
  846POPE   PO4 9602   4.174   8.691   6.383  0.1871  0.0675  0.1239
  846POPE   GL1 9603   4.298   8.621   6.750  0.0440  0.0800  0.2530
  846POPE   GL2 9604   4.443   8.819   6.906  0.1843 -0.0702  0.1593
  846POPE   C1A 9605   4.637   8.432   6.993 -0.0629  0.2489  0.1822
  846POPE   D2A 9606   4.914   8.458   7.308 -0.0072 -0.1175  0.3590
  846POPE   C3A 9607   5.185   8.102   7.288 -0.1267  0.2071  0.2437
  846POPE   C4A 9608   5.348   7.675   7.398  0.0473 -0.4471  0.0025
  846POPE   C1B 9609   4.475   8.898   7.311  0.0512  0.0230 -0.2967
  846POPE   C2B 9610   4.608   8.683   7.674  0.3113 -0.1063  0.1771
  846POPE   C3B 9611   4.899   8.401   7.765  0.2620  0.1868 -0.1301
  846POPE   C4B 9612   5.086   8.362   8.177  0.1178 -0.0926  0.0593
  847POPE   NH3 9613  11.392   5.421   5.709 -0.1070  0.2385  0.1085
  847POPE   PO4 9614  11.303   5.785   5.867  0.0883 -0.2161  0.3074
  847POPE   GL1 9615  11.193   5.903   6.356 -0.0351 -0.2228 -0.1321
  847POPE   GL2 9616  10.939   5.772   6.584  0.0734 -0.0249 -0.1500
  847POPE   C1A 9617  11.355   5.991   6.769 -0.1748  0.2190  0.6940
  847POPE   D2A 9618  11.496   6.040   7.184  0.1298  0.1779  0.1952
  847POPE   C3A 9619  11.697   5.764   7.501  0.0258  0.0755  0.1560
  847POPE   C4A 9620  11.726   5.819   7.924 -0.1605 -0.1086  0.1428
  847POPE   C1B 9621  10.907   5.506   6.937  0.0029  0.1286 -0.1950
  847POPE   C2B 9622  10.798   5.407   7.379  0.1302  0.0578 -0.2894
  847POPE   C3B 9623  10.892   5.435   7.844  0.0526 -0.4138  0.0229
  847POPE   C4B 9624  11.189   5.738   7.991 -0.3029  0.1039 -0.1099
  848POPE   NH3 9625   3.403   8.279   6.543 -0.1290  0.0578  0.0131
  848POPE   PO4 9626   3.062   8.084   6.384  0.1164 -0.0944  0.0148
  848POPE   GL1 9627   3.199   7.884   6.781  0.1998  0.0152 -0.0862
  848POPE   GL2 9628   2.998   7.636   6.883  0.0492 -0.0453 -0.0949
  848POPE   C1A 9629   3.460   7.817   7.048 -0.2435  0.0397 -0.3818
  848POPE   D2A 9630   3.623   7.570   7.323  0.0720  0.2000 -0.3113
  848POPE   C3A 9631   3.699   7.526   7.744 -0.2458 -0.2117 -0.3864
  848POPE   C4A 9632   3.993   7.259   8.020 -0.2687  0.2246 -0.0678
  848POPE   C1B 9633   3.175   7.426   7.387  0.3072 -0.3094 -0.0360
  848POPE   C2B 9634   3.230   7.455   7.782 -0.2383 -0.0234 -0.2824
  848POPE   C3B 9635   3.523   7.387   8.185  0.1127  0.0334  0.0678
  848POPE   C4B 9636   3.707   7.039   8.386  0.2859 -0.1997 -0.1036
  849POPE   NH3 9637   9.302   1.641   5.879  0.2350  0.2780 -0.0711
  849POPE   PO4 9638   8.937   1.403   6.025  0.3746 -0.0588 -0.2168
  849POPE   GL1 9639   8.687   1.476   6.418  0.1103 -0.0700  0.2011
  849POPE   GL2 9640   8.958   1.516   6.582 -0.1979 -0.1950  0.4160
  849POPE   C1A 9641   8.580   1.644   6.865 -0.1779  0.1725  0.2560
  849POPE   D2A 9642   8.657   1.745   7.249  0.1722 -0.0420  0.0634
  849POPE   C3A 9643   8.527   1.747   7.704 -0.2591  0.0963 -0.0827
  849POPE   C4A 9644   8.234   2.066   8.038 -0.1000  0.0037  0.1820
  849POPE   C1B 9645   9.022   1.418   7.019  0.1476 -0.1279  0.1315
  849POPE   C2B 9646   8.973   1.455   7.547 -0.0044  0.3911 -0.2916
  849POPE   C3B 9647   9.140   1.695   7.889  0.1622 -0.2999  0.0730
  849POPE   C4B 9648   9.274   1.735   8.232 -0.1220  0.2778  0.2182
  850POPE   NH3 9649   7.434   2.328   6.262 -0.1350 -0.0805 -0.4440
  850POPE   PO4 9650   7.068   2.140   6.160  0.0044  0.1335  0.1141
  850POPE   GL1 9651   7.090   2.205   6.624  0.3493  0.2961  0.2777
  850POPE   GL2 9652   7.297   2.145   6.787 -0.0852  0.0013 -0.1617
  850POPE   C1A 9653   7.088   2.534   6.980  0.0606  0.1080  0.0762
  850POPE   D2A 9654   7.157   2.578   7.365  0.0614  0.0388 -0.1355
  850POPE   C3A 9655   7.482   2.381   7.516 -0.2216  0.0183 -0.1313
  850POPE   C4A 9656   7.489   2.218   7.861 -0.0073  0.1577  0.1543
  850POPE   C1B 9657   7.328   2.028   7.146  0.0203  0.3798  0.0253
  850POPE   C2B 9658   7.103   2.084   7.512 -0.2537 -0.0169 -0.1104
  850POPE   C3B 9659   7.084   1.815   7.868  0.3321 -0.0083  0.1753
  850POPE   C4B 9660   7.141   1.700   8.215 -0.2328  0.2384  0.2023
  851POPE   NH3 9661   3.035   5.380   6.086 -0.0691  0.1287 -0.1798
  851POPE   PO4 9662   3.428   5.219   5.824 -0.0568  0.1179  0.0999
  851POPE   GL1 9663   3.490   5.440   6.241 -0.1628  0.3927 -0.1436
  851POPE   GL2 9664   3.315   5.286   6.562 -0.0063  0.1331 -0.1940
  851POPE   C1A 9665   3.698   5.522   6.646 -0.1577 -0.2909  0.2026
  851POPE   D2A 9666   3.746   5.686   7.064 -0.1149 -0.1158  0.2748
  851POPE   C3A 9667   3.963   6.013   7.214 -0.0141  0.0344 -0.0987
  851POPE   C4A 9668   3.990   6.426   7.384  0.0640 -0.0534 -0.1977
  851POPE   C1B 9669   3.379   5.113   6.944 -0.2521  0.1075 -0.0039
  851POPE   C2B 9670   3.440   5.293   7.468  0.1447 -0.1750 -0.0872
  851POPE   C3B 9671   3.444   5.316   7.892 -0.2524 -0.1332 -0.1696
  851POPE   C4B 9672   3.617   5.741   8.049  0.1178  0.0264 -0.1238
  852POPE   NH3 9673  15.255   7.345   6.319 -0.3783 -0.3064  0.0205
  852POPE   PO4 9674  15.353   7.719   6.437 -0.2353 -0.1186 -0.2195
  852POPE   GL1 9675  15.516   7.867   6.675 -0.0811  0.1042  0.0283
  852POPE   GL2 9676  15.550   8.238   6.683 -0.1213  0.4233 -0.3332
  852POPE   C1A 9677  15.416   7.914   7.128  0.0755  0.0677  0.3176
  852POPE   D2A 9678  15.247   7.866   7.596  0.0162  0.3485  0.0441
  852POPE   C3A 9679  15.138   8.137   7.837  0.2010  0.1664  0.2560
  852POPE   C4A 9680  14.748   8.191   8.048  0.0100 -0.0416  0.4379
  852POPE   C1B 9681  15.484   8.389   7.043 -0.0460  0.1458  0.2089
  852POPE   C2B 9682  15.377   8.362   7.515  0.2155  0.0315 -0.0260
  852POPE   C3B 9683  15.606   8.382   7.894  0.3571  0.0606 -0.3808
  852POPE   C4B 9684  15.615   8.389   8.373 -0.0796 -0.0838 -0.2434
  853POPE   NH3 9685   7.261   1.699   5.983 -0.0348  0.1625  0.2565
  853POPE   PO4 9686   7.564   1.893   6.025  0.0256 -0.1265 -0.2123
  853POPE   GL1 9687   7.531   1.885   6.456  0.0882 -0.0878 -0.0911
  853POPE   GL2 9688   7.866   2.199   6.589 -0.0489 -0.0613 -0.1593
  853POPE   C1A 9689   7.504   1.673   6.796 -0.0442  0.0479 -0.3385
  853POPE   D2A 9690   7.584   1.532   7.195  0.1606 -0.0376  0.1526
  853POPE   C3A 9691   7.547   1.747   7.707 -0.1774 -0.1167 -0.2049
  853POPE   C4A 9692   7.671   1.778   8.114 -0.3724  0.3755  0.3451
  853POPE   C1B 9693   7.762   2.166   6.946  0.3193  0.3477  0.1674
  853POPE   C2B 9694   7.793   1.979   7.352  0.0640 -0.4366 -0.2728
  853POPE   C3B 9695   7.921   2.078   7.706  0.2611 -0.0263  0.1935
  853POPE   C4B 9696   7.867   2.364   8.226  0.0751 -0.0263 -0.4021
  854POPE   NH3 9697  15.305   6.573   5.980 -0.0920  0.2227  0.0560
  854POPE   PO4 9698  15.482   6.891   6.264 -0.2601 -0.0283 -0.0902
  854POPE   GL1 9699  15.501   6.990   6.676  0.1552 -0.1162 -0.1669
  854POPE   GL2 9700  15.603   7.319   6.713 -0.2625 -0.0290  0.3283
  854POPE   C1A 9701  15.364   6.966   7.075  0.2144  0.2165  0.2841
  854POPE   D2A 9702  15.425   6.939   7.512 -0.2803  0.2794 -0.1231
  854POPE   C3A 9703  15.243   6.813   7.860 -0.3179 -0.2963 -0.0468
  854POPE   C4A 9704  15.063   6.711   8.236 -0.0755  0.1055  0.1002
  854POPE   C1B 9705  15.634   7.484   7.126 -0.0324 -0.0567 -0.3295
  854POPE   C2B 9706  15.544   7.424   7.457  0.2536  0.0172 -0.0643
  854POPE   C3B 9707  15.391   7.282   7.894 -0.2789 -0.1322 -0.1172
  854POPE   C4B 9708  15.392   7.456   8.191  0.3332  0.4554  0.2340
  855POPE   NH3 9709  17.534  13.131   6.076 -0.2998 -0.2989  0.0066
  855POPE   PO4 9710  17.454  13.239   6.526 -0.3158 -0.0204  0.0755
  855POPE   GL1 9711  17.434  13.322   6.958  0.0905  0.0024  0.3541
  855POPE   GL2 9712  17.464  13.629   6.863 -0.2267  0.1661  0.0074
  855POPE   C1A 9713  17.325  13.093   7.340 -0.1153  0.1319 -0.0764
  855POPE   D2A 9714  17.204  12.902   7.672  0.0593 -0.1799  0.1055
  855POPE   C3A 9715  16.918  13.159   7.930 -0.2442 -0.0940  0.0756
  855POPE   C4A 9716  16.680  13.001   8.255  0.0935 -0.3985  0.0434
  855POPE   C1B 9717  17.518  13.547   7.382 -0.1809 -0.1558  0.1385
  855POPE   C2B 9718  17.544  13.311   7.814  0.3815 -0.2169  0.1925
  855POPE   C3B 9719  17.283  13.288   8.211 -0.1233 -0.1080 -0.4192
  855POPE   C4B 9720  17.096  12.983   8.526  0.1736 -0.0383  0.1473
  856POPE   NH3 9721   0.931  15.074   6.276 -0.0185 -0.1640  0.0516
  856POPE   PO4 9722   0.890  15.277   6.555 -0.4650  0.0218 -0.2167
  856POPE   GL1 9723   0.899  15.114   6.912 -0.0862  0.0473  0.1856
  856POPE   GL2 9724   0.608  14.961   6.922  0.1588 -0.0724 -0.0173
  856POPE   C1A 9725   0.932  15.179   7.350  0.0888  0.0146  0.1261
  856POPE   D2A 9726   0.815  15.121   7.731 -0.2277  0.0655  0.0577
  856POPE   C3A 9727   0.627  15.460   7.941  0.0288 -0.0791 -0.2346
  856POPE   C4A 9728   0.321  15.842   7.916  0.2893 -0.1665  0.0766
  856POPE   C1B 9729   0.677  14.715   7.127 -0.0997 -0.1246 -0.3796
  856POPE   C2B 9730   0.547  14.747   7.497 -0.3336 -0.0124  0.1965
  856POPE   C3B 9731   0.746  14.605   7.908  0.0687  0.1628  0.3129
  856POPE   C4B 9732   0.936  14.244   8.134 -0.0033 -0.0468 -0.2082
  857POPE   NH3 9733  14.838   5.103   5.884  0.0107 -0.0501 -0.2039
  857POPE   PO4 9734  14.657   5.457   5.795 -0.3128 -0.3727  0.0413
  857POPE   GL1 9735  14.954   5.495   6.185  0.1659 -0.1370  0.0103
  857POPE   GL2 9736  14.961   5.801   6.248  0.3506  0.0050  0.1829
  857POPE   C1A 9737  15.040   5.439   6.607 -0.2021 -0.0901  0.1865
  857POPE   D2A 9738  15.121   5.435   6.961 -0.1393 -0.3032  0.0171
  857POPE   C3A 9739  14.898   5.570   7.409  0.1320  0.0653  0.2671
  857POPE   C4A 9740  14.497   5.486   7.701  0.2620  0.1322 -0.0616
  857POPE   C1B 9741  15.036   5.919   6.764 -0.2309 -0.1058 -0.1263
  857POPE   C2B 9742  14.972   5.994   7.184 -0.2611  0.1556 -0.1822
  857POPE   C3B 9743  15.004   6.114   7.520  0.2149 -0.0516  0.2441
  857POPE   C4B 9744  15.049   6.376   7.845  0.2491  0.1090 -0.0298
  858POPE   NH3 9745   1.882  15.308   6.360 -0.0957  0.1816  0.1844
  858POPE   PO4 9746   1.935  15.693   6.560 -0.0350 -0.1831 -0.0573
  858POPE   GL1 9747   1.663  15.625   6.912  0.0370  0.2528  0.0842
  858POPE   GL2 9748   1.397  15.324   7.026 -0.3378 -0.1648 -0.1001
  858POPE   C1A 9749   1.718  15.506   7.345  0.1114  0.1567  0.2185
  858POPE   D2A 9750   1.628  15.416   7.791 -0.2227  0.0045 -0.2044
  858POPE   C3A 9751   1.918  15.222   8.028 -0.0197 -0.0391  0.2610
  858POPE   C4A 9752   1.937  15.319   8.481 -0.0012 -0.1238 -0.2082
  858POPE   C1B 9753   1.375  15.141   7.437 -0.1158 -0.3803 -0.3667
  858POPE   C2B 9754   1.268  15.060   7.827  0.1962  0.1935  0.2935
  858POPE   C3B 9755   1.204  14.688   8.083 -0.2289  0.0300 -0.1593
  858POPE   C4B 9756   1.386  14.617   8.469 -0.1616  0.2761  0.1567
  859POPE   NH3 9757  16.109  16.775   6.561  0.0512 -0.1437  0.1508
  859POPE   PO4 9758  15.871  17.216   6.546  0.0532  0.0191  0.2773
  859POPE   GL1 9759  15.711  17.290   6.888 -0.1339  0.1762 -0.0794
  859POPE   GL2 9760  15.923  17.534   6.988 -0.0388 -0.2636 -0.0854
  859POPE   C1A 9761  15.451  17.343   7.218 -0.3322  0.3903 -0.0597
  859POPE   D2A 9762  15.243  17.363   7.650 -0.2467 -0.0421  0.0709
  859POPE   C3A 9763  15.354  17.300   8.035 -0.1287 -0.1759  0.0888
  859POPE   C4A 9764  15.267  17.544   8.353  0.1342  0.2326  0.1691
  859POPE   C1B 9765  16.033  17.411   7.346 -0.1128  0.0989  0.0194
  859POPE   C2B 9766  15.759  17.315   7.609  0.3106  0.0200 -0.0057
  859POPE   C3B 9767  15.791  17.510   8.016 -0.2095 -0.2165  0.0965
  859POPE   C4B 9768  15.747  17.690   8.376  0.0326 -0.1646  0.0757
  860POPE   NH3 9769  15.445   3.950   5.731  0.4339 -0.2134 -0.0322
  860POPE   PO4 9770  15.104   4.347   5.875 -0.2783  0.0177 -0.0449
  860POPE   GL1 9771  15.254   4.326   6.313  0.1007 -0.2833  0.0293
  860POPE   GL2 9772  14.921   4.267   6.394 -0.2038 -0.1839  0.0549
  860POPE   C1A 9773  15.331   4.462   6.702  0.1587 -0.1339  0.0755
  860POPE   D2A 9774  15.249   4.230   7.194 -0.0285 -0.2181 -0.3053
  860POPE   C3A 9775  15.206   4.574   7.527  0.0966 -0.1767 -0.0070
  860POPE   C4A 9776  15.082   4.589   7.901 -0.3191  0.0071  0.0092
  860POPE   C1B 9777  15.115   3.966   6.712 -0.0178  0.0803 -0.0051
  860POPE   C2B 9778  15.212   3.703   7.038 -0.0504 -0.2994  0.0567
  860POPE   C3B 9779  15.225   3.598   7.423 -0.0544 -0.0308  0.0083
  860POPE   C4B 9780  15.365   3.579   7.814  0.2407 -0.5311 -0.0968
  861POPE   NH3 9781  10.479  10.334   6.223 -0.3313  0.0385 -0.1257
  861POPE   PO4 9782  10.279  10.690   6.189 -0.0264  0.0933 -0.2286
  861POPE   GL1 9783  10.487  11.034   6.514 -0.2047  0.1581  0.1124
  861POPE   GL2 9784  10.382  11.365   6.481 -0.0611 -0.0441 -0.2139
  861POPE   C1A 9785  10.679  11.004   6.850  0.1812  0.0396  0.1261
  861POPE   D2A 9786  10.880  11.089   7.336  0.0706  0.0821 -0.0412
  861POPE   C3A 9787  11.023  11.047   7.679 -0.0694 -0.0952 -0.1060
  861POPE   C4A 9788  11.105  11.484   7.814 -0.2710 -0.4163  0.0570
  861POPE   C1B 9789  10.321  11.759   6.784  0.2983 -0.0724 -0.2031
  861POPE   C2B 9790  10.303  11.873   7.260 -0.0777 -0.1932  0.1930
  861POPE   C3B 9791  10.483  11.746   7.654  0.0669  0.3282  0.0432
  861POPE   C4B 9792  10.676  11.718   7.987 -0.0710 -0.1155 -0.3997
  862POPE   NH3 9793  15.364   3.030   5.774 -0.1108  0.0592  0.2643
  862POPE   PO4 9794  14.815   2.942   5.699 -0.0999  0.1782 -0.0739
  862POPE   GL1 9795  14.839   3.045   6.107  0.0266 -0.1350 -0.2902
  862POPE   GL2 9796  15.089   3.253   6.170 -0.1662  0.1501 -0.0983
  862POPE   C1A 9797  14.905   2.988   6.573 -0.0599 -0.3170 -0.0934
  862POPE   D2A 9798  14.869   2.926   6.980 -0.0315  0.1614 -0.1373
  862POPE   C3A 9799  14.769   2.563   7.243  0.0424 -0.3132  0.2568
  862POPE   C4A 9800  14.569   2.404   7.427 -0.0698  0.2282 -0.1038
  862POPE   C1B 9801  14.872   3.501   6.642  0.0725  0.0890 -0.1151
  862POPE   C2B 9802  14.819   3.400   7.059 -0.1276  0.1055  0.0423
  862POPE   C3B 9803  14.765   3.508   7.499 -0.0999 -0.1837 -0.0666
  862POPE   C4B 9804  14.846   3.600   7.860  0.1370 -0.2136 -0.0724
  863POPE   NH3 9805  12.001  15.516   5.907  0.1206 -0.0597 -0.0673
  863POPE   PO4 9806  11.620  15.684   5.943 -0.0450 -0.0695 -0.0548
  863POPE   GL1 9807  11.834  15.711   6.386 -0.0150 -0.0600  0.0129
  863POPE   GL2 9808  12.127  15.563   6.378  0.1863 -0.0347 -0.2070
  863POPE   C1A 9809  11.721  15.560   6.733  0.0145  0.0342 -0.0275
  863POPE   D2A 9810  11.753  15.580   7.101  0.0921 -0.1390 -0.1023
  863POPE   C3A 9811  11.932  15.805   7.452  0.0030 -0.2558  0.1147
  863POPE   C4A 9812  12.033  15.746   7.879 -0.0277  0.2112  0.0848
  863POPE   C1B 9813  12.221  15.770   6.694  0.0791 -0.1416 -0.0920
  863POPE   C2B 9814  12.469  16.149   6.817  0.0133 -0.1449  0.3266
  863POPE   C3B 9815  12.534  16.615   7.029  0.0960  0.1432  0.1264
  863POPE   C4B 9816  12.610  16.885   7.347 -0.2224 -0.3484  0.0419
  864POPE   NH3 9817   6.465  15.383   6.227  0.3874 -0.1544 -0.2421
  864POPE   PO4 9818   6.846  15.671   6.189  0.0517 -0.0199  0.3106
  864POPE   GL1 9819   6.887  15.842   6.563 -0.1403  0.0095  0.2442
  864POPE   GL2 9820   6.608  15.673   6.671 -0.1126 -0.1616 -0.0759
  864POPE   C1A 9821   7.048  15.927   6.967  0.1076  0.0384  0.2454
  864POPE   D2A 9822   7.171  16.222   7.286 -0.0795 -0.0190 -0.0221
  864POPE   C3A 9823   7.450  16.183   7.679  0.0545  0.1652 -0.2679
  864POPE   C4A 9824   7.602  16.159   8.034  0.1105  0.2608  0.0896
  864POPE   C1B 9825   6.629  15.774   7.090  0.3062 -0.0304 -0.1392
  864POPE   C2B 9826   6.975  15.815   7.446  0.0951  0.0573  0.0050
  864POPE   C3B 9827   7.094  15.853   7.937  0.2010 -0.1279 -0.1330
  864POPE   C4B 9828   7.303  15.814   8.298  0.0528  0.1534  0.1105
  865POPE   NH3 9829   5.504   5.161   5.755  0.0435  0.4032  0.2929
  865POPE   PO4 9830   5.342   4.912   6.096  0.0908 -0.0506 -0.3609
  865POPE   GL1 9831   5.165   4.630   6.435 -0.1936  0.1510  0.0016
  865POPE   GL2 9832   4.885   4.515   6.421  0.1704  0.1181  0.0879
  865POPE   C1A 9833   5.055   4.602   6.926  0.0550  0.1598  0.0617
  865POPE   D2A 9834   4.897   4.583   7.252  0.1745 -0.3236 -0.3117
  865POPE   C3A 9835   4.966   4.549   7.707 -0.1746  0.0763  0.0234
  865POPE   C4A 9836   5.249   4.671   7.958 -0.3169  0.1654  0.0787
  865POPE   C1B 9837   4.561   4.425   6.787  0.2537 -0.4088 -0.0925
  865POPE   C2B 9838   4.695   4.158   7.204 -0.1603 -0.3661  0.0888
  865POPE   C3B 9839   4.893   4.033   7.640 -0.0085  0.0776  0.3869
  865POPE   C4B 9840   5.156   4.076   7.930  0.1133  0.3434  0.3435
  866POPE   NH3 9841  17.057  15.707   6.448  0.0633  0.0926 -0.1812
  866POPE   PO4 9842  16.809  16.024   6.581 -0.1914 -0.1700 -0.1838
  866POPE   GL1 9843  16.681  15.692   6.918 -0.3416  0.2239  0.0449
  866POPE   GL2 9844  16.508  15.901   6.965 -0.0132  0.1539 -0.2916
  866POPE   C1A 9845  16.771  15.514   7.322 -0.0978 -0.0911  0.0591
  866POPE   D2A 9846  16.582  15.531   7.732 -0.1801 -0.0294 -0.2269
  866POPE   C3A 9847  16.311  15.271   7.968 -0.0534  0.1212 -0.2898
  866POPE   C4A 9848  16.302  15.179   8.413  0.2617  0.0387 -0.1762
  866POPE   C1B 9849  16.632  16.006   7.315  0.1540 -0.0374  0.0364
  866POPE   C2B 9850  16.504  16.049   7.734 -0.3793  0.0480  0.0434
  866POPE   C3B 9851  16.338  15.746   8.124  0.2238 -0.3819  0.2539
  866POPE   C4B 9852  16.301  15.710   8.600  0.1084  0.2134  0.5480
  867POPE   NH3 9853  17.504   0.001   6.665  0.1965  0.1878 -0.0870
  867POPE   PO4 9854  17.175   0.113   6.440  0.2611  0.3252  0.2047
  867POPE   GL1 9855  17.105   0.326   6.794 -0.0790  0.0384  0.0624
  867POPE   GL2 9856  16.784   0.323   6.914 -0.2125 -0.1689  0.1531
  867POPE   C1A 9857  17.140   0.304   7.255 -0.0033 -0.0201  0.3137
  867POPE   D2A 9858  17.035   0.214   7.603 -0.3020  0.0036  0.0984
  867POPE   C3A 9859  17.143   0.576   7.834  0.3310  0.0135  0.0746
  867POPE   C4A 9860  17.315   0.791   8.069 -0.2649 -0.0245 -0.0792
  867POPE   C1B 9861  16.621   0.348   7.319 -0.1297 -0.2514 -0.1618
  867POPE   C2B 9862  16.638   0.501   7.734  0.0792 -0.1469  0.2251
  867POPE   C3B 9863  16.761   0.472   8.159  0.3970 -0.1453  0.3924
  867POPE   C4B 9864  16.828   0.685   8.507 -0.1033  0.2036 -0.0234
  868POPE   NH3 9865   3.531  14.631   5.939 -0.0176 -0.0908 -0.0709
  868POPE   PO4 9866   3.670  14.716   6.390 -0.2449  0.0389 -0.0713
  868POPE   GL1 9867   3.582  14.660   6.859  0.0354 -0.2830 -0.2754
  868POPE   GL2 9868   3.316  14.654   7.101 -0.0385 -0.0839  0.4126
  868POPE   C1A 9869   3.776  14.710   7.268  0.0210 -0.2848 -0.4120
  868POPE   D2A 9870   3.645  14.732   7.780 -0.2050  0.1212  0.1689
  868POPE   C3A 9871   3.823  14.891   8.195  0.1832 -0.0697  0.0880
  868POPE   C4A 9872   4.280  15.084   8.334  0.0270  0.1756 -0.2063
  868POPE   C1B 9873   2.986  14.329   7.241  0.0992 -0.1904 -0.0279
  868POPE   C2B 9874   2.803  14.383   7.675 -0.0659  0.0714  0.0957
  868POPE   C3B 9875   2.423  14.402   7.916 -0.1960  0.1386  0.0097
  868POPE   C4B 9876   2.325  14.230   8.365  0.0409 -0.1340 -0.1055
  869YOPE   NH3 9877   5.610   0.215   6.268  0.0075  0.1592 -0.0453
  869YOPE   PO4 9878   5.252   0.102   6.377  0.2871 -0.2605 -0.1922
  869YOPE   GL1 9879   5.186   0.533   6.531 -0.1716 -0.0513 -0.0901
  869YOPE   GL2 9880   5.506   0.520   6.693 -0.0270 -0.2627 -0.2079
  869YOPE   C1A 9881   5.149   0.685   6.949  0.1866 -0.0710 -0.0753
  869YOPE   D2A 9882   5.286   0.721   7.389  0.1529 -0.0383 -0.2130
  869YOPE   C3A 9883   5.007   0.730   7.730  0.0337 -0.1299  0.1947
  869YOPE   C4A 9884   4.797   0.518   7.956  0.3342  0.1489  0.1214
  869YOPE   C1B 9885   5.578   0.435   7.121 -0.0870 -0.0463 -0.1171
  869YOPE   C2B 9886   5.734   0.532   7.529  0.1219 -0.3109 -0.0005
  869YOPE   D3B 9887   5.499   0.648   7.873 -0.1892 -0.1834  0.2205
  869YOPE   C4B 9888   5.332   1.092   7.930  0.0046 -0.2005  0.2173
  870YOPE   NH3 9889   5.618  14.886   6.284  0.1322  0.0739  0.1522
  870YOPE   PO4 9890   5.636  15.263   6.223 -0.3862 -0.0660 -0.3293
  870YOPE   GL1 9891   5.675  15.346   6.637  0.0433  0.0131 -0.0305
  870YOPE   GL2 9892   5.747  15.710   6.653  0.0162 -0.1367  0.0785
  870YOPE   C1A 9893   5.387  15.297   7.048  0.2005  0.0013 -0.4624
  870YOPE   D2A 9894   5.019  15.203   7.372  0.2782  0.0794  0.1655
  870YOPE   C3A 9895   5.058  15.214   7.748  0.1528  0.0370 -0.1418
  870YOPE   C4A 9896   5.088  15.503   8.078  0.1806 -0.1913  0.0574
  870YOPE   C1B 9897   5.691  15.787   7.020  0.1911  0.3112 -0.1558
  870YOPE   C2B 9898   5.939  15.654   7.438 -0.1525 -0.1466  0.2458
  870YOPE   D3B 9899   5.892  15.749   7.842 -0.0544 -0.1458  0.1753
  870YOPE   C4B 9900   5.547  15.636   8.174 -0.0237 -0.1465 -0.1010
  871YOPE   NH3 9901  15.236  14.375   6.192 -0.3715  0.1669  0.1623
  871YOPE   PO4 9902  14.890  14.378   6.416  0.2344 -0.4373 -0.1586
  871YOPE   GL1 9903  14.874  14.277   6.797  0.2683  0.2608 -0.0485
  871YOPE   GL2 9904  15.083  14.424   7.018 -0.3970 -0.3891  0.1142
  871YOPE   C1A 9905  14.677  13.976   7.031 -0.1389  0.0543 -0.1351
  871YOPE   D2A 9906  14.535  13.884   7.439 -0.0431  0.2434 -0.1024
  871YOPE   C3A 9907  14.327  14.204   7.683  0.3353 -0.0421  0.2363
  871YOPE   C4A 9908  14.235  14.260   8.045  0.1573  0.1085  0.2171
  871YOPE   C1B 9909  14.968  14.290   7.319 -0.2782 -0.0926  0.1492
  871YOPE   C2B 9910  14.824  14.155   7.699 -0.0342  0.1738 -0.2092
  871YOPE   D3B 9911  14.544  13.843   7.972 -0.1379 -0.0811  0.4617
  871YOPE   C4B 9912  14.195  13.581   8.206  0.1847 -0.0278  0.2108
  872YOPE   NH3 9913  13.554   0.525   6.419  0.0012  0.2111 -0.2184
  872YOPE   PO4 9914  13.191   0.385   6.176  0.0459  0.2249 -0.0547
  872YOPE   GL1 9915  13.158   0.086   6.504  0.2225  0.0566 -0.0273
  872YOPE   GL2 9916  13.493   0.070   6.672 -0.2754 -0.1009  0.0334
  872YOPE   C1A 9917  12.911   0.162   6.962  0.1471 -0.3890  0.0208
  872YOPE   D2A 9918  12.825   0.374   7.224 -0.2604 -0.1130 -0.0094
  872YOPE   C3A 9919  12.834   0.344   7.654  0.0824 -0.1237  0.0315
  872YOPE   C4A 9920  12.574   0.285   8.003 -0.4351  0.0569 -0.0739
  872YOPE   C1B 9921  13.771  -0.157   7.017 -0.0638 -0.0768  0.2580
  872YOPE   C2B 9922  13.730  -0.211   7.452  0.0604 -0.1089 -0.0636
  872YOPE   D3B 9923  13.554  -0.214   7.809 -0.0540  0.1435  0.0615
  872YOPE   C4B 9924  13.304  -0.250   8.284  0.1932  0.1771  0.2682
  873YOPE   NH3 9925  13.118  12.356   6.175 -0.0976  0.1438 -0.0825
  873YOPE   PO4 9926  13.437  12.730   6.127 -0.2716 -0.0342  0.1209
  873YOPE   GL1 9927  13.671  12.817   6.416  0.1049 -0.4198 -0.0475
  873YOPE   GL2 9928  13.989  12.690   6.499  0.1710 -0.0365 -0.3334
  873YOPE   C1A 9929  13.555  12.790   6.849  0.2844  0.2598 -0.3641
  873YOPE   D2A 9930  13.309  12.900   7.165 -0.0978 -0.2043 -0.1539
  873YOPE   C3A 9931  13.357  13.014   7.655  0.0448  0.0672  0.0011
  873YOPE   C4A 9932  13.208  12.805   8.129  0.2864  0.1087  0.1990
  873YOPE   C1B 9933  14.034  12.590   6.941 -0.2026 -0.1264  0.0668
  873YOPE   C2B 9934  14.109  12.572   7.420 -0.3672  0.0590  0.2213
  873YOPE   D3B 9935  14.014  12.755   7.762 -0.3133  0.1834  0.1192
  873YOPE   C4B 9936  14.050  13.212   7.846 -0.0664  0.0078 -0.2493
  874YOPE   NH3 9937  14.390   6.450   5.996 -0.3056  0.0669  0.3373
  874YOPE   PO4 9938  14.836   6.453   6.020  0.0051 -0.1031 -0.0177
  874YOPE   GL1 9939  15.097   6.371   6.429  0.1285 -0.1610  0.1925
  874YOPE   GL2 9940  15.463   6.407   6.498 -0.1550 -0.1657 -0.1009
  874YOPE   C1A 9941  15.094   6.445   6.877  0.3099  0.1065 -0.0654
  874YOPE   D2A 9942  15.179   6.542   7.338 -0.3063  0.0785  0.1350
  874YOPE   C3A 9943  15.529   6.397   7.694 -0.1340 -0.2805 -0.0244
  874YOPE   C4A 9944  15.434   6.261   8.098  0.2548 -0.0202 -0.0049
  874YOPE   C1B 9945  15.552   6.502   6.929 -0.0074 -0.2823  0.2317
  874YOPE   C2B 9946  15.848   6.508   7.264  0.1910 -0.0186  0.2692
  874YOPE   D3B 9947  15.928   6.124   7.481  0.2170  0.1719 -0.2679
  874YOPE   C4B 9948  15.867   6.039   7.913  0.0731 -0.2733 -0.0656
  875YOPE   NH3 9949   6.278  10.750   6.713  0.1541  0.1843  0.2018
  875YOPE   PO4 9950   6.419  11.189   6.747  0.3411 -0.0704  0.0182
  875YOPE   GL1 9951   6.468  11.023   7.089 -0.2304 -0.0653 -0.0876
  875YOPE   GL2 9952   6.657  11.163   7.188  0.0866  0.2077  0.0548
  875YOPE   C1A 9953   6.256  11.303   7.421 -0.0229  0.1770 -0.4455
  875YOPE   D2A 9954   6.152  11.227   7.849  0.0002  0.0888 -0.0617
  875YOPE   C3A 9955   6.227  10.797   8.092 -0.1636  0.3510  0.0721
  875YOPE   C4A 9956   6.345  10.762   8.472  0.0663  0.1714  0.0648
  875YOPE   C1B 9957   6.837  11.350   7.489 -0.1939  0.0469  0.1536
  875YOPE   C2B 9958   6.652  11.395   7.847  0.0631 -0.1359  0.0064
  875YOPE   D3B 9959   6.486  11.394   8.179 -0.0956  0.0260 -0.3216
  875YOPE   C4B 9960   6.150  11.190   8.500  0.4200 -0.0131  0.2638
  876YOPE   NH3 9961   8.679   3.208   5.854  0.0860  0.2933 -0.0213
  876YOPE   PO4 9962   8.946   3.600   5.955  0.0086 -0.0734 -0.0464
  876YOPE   GL1 9963   8.712   3.627   6.223  0.2067 -0.0183  0.1692
  876YOPE   GL2 9964   8.628   3.924   6.217 -0.0792  0.0965 -0.0031
  876YOPE   C1A 9965   8.776   3.569   6.629  0.0736  0.3481  0.1680
  876YOPE   D2A 9966   8.952   3.497   7.077 -0.0825 -0.3104  0.0802
  876YOPE   C3A 9967   8.840   3.254   7.523  0.0452 -0.1514  0.2509
  876YOPE   C4A 9968   8.855   2.865   7.789  0.0311  0.3849  0.0024
  876YOPE   C1B 9969   8.426   3.957   6.633 -0.0755  0.0747 -0.1838
  876YOPE   C2B 9970   8.637   3.893   7.043 -0.0796 -0.0055 -0.0161
  876YOPE   D3B 9971   8.660   3.801   7.419 -0.1410  0.0453 -0.0023
  876YOPE   C4B 9972   8.982   3.748   7.760  0.0470  0.2019 -0.0599
  877YOPE   NH3 9973  14.519  17.299   6.492 -0.1504 -0.1626 -0.1786
  877YOPE   PO4 9974  14.216  17.509   6.246 -0.5202  0.2505 -0.1193
  877YOPE   GL1 9975  14.118  17.636   6.634  0.1470 -0.2610  0.0182
  877YOPE   GL2 9976  14.445  17.542   6.920 -0.3424 -0.0328 -0.0706
  877YOPE   C1A 9977  13.957  17.473   6.963 -0.0643  0.0527  0.0870
  877YOPE   D2A 9978  14.061  17.556   7.205  0.0953 -0.0609 -0.0606
  877YOPE   C3A 9979  13.797  17.542   7.578 -0.1028  0.0189  0.2915
  877YOPE   C4A 9980  13.859  17.599   8.039  0.0369  0.0594 -0.3951
  877YOPE   C1B 9981  14.716  17.682   7.168 -0.1337 -0.0363 -0.1253
  877YOPE   C2B 9982  14.593  17.625   7.664  0.0983 -0.2541  0.1762
  877YOPE   D3B 9983  14.812  17.608   8.057  0.1305 -0.4988  0.1297
  877YOPE   C4B 9984  14.740  17.681   8.540  0.0649 -0.2377 -0.2048
  878YOPE   NH3 9985   7.614   7.066   6.400 -0.0951 -0.0585 -0.0209
  878YOPE   PO4 9986   7.974   7.290   6.342 -0.1797 -0.0502  0.0149
  878YOPE   GL1 9987   7.997   7.065   6.717  0.2132  0.3814 -0.1862
  878YOPE   GL2 9988   8.042   6.813   6.727  0.0289 -0.1016 -0.1704
  878YOPE   C1A 9989   7.911   7.119   7.166 -0.0811  0.1103 -0.0808
  878YOPE   D2A 9990   7.842   6.969   7.537  0.2506 -0.2029  0.0135
  878YOPE   C3A 9991   7.896   7.093   7.919 -0.1329  0.0581 -0.1463
  878YOPE   C4A 9992   8.173   7.108   8.246  0.3793 -0.0245 -0.0148
  878YOPE   C1B 9993   8.166   6.741   7.040 -0.1094  0.1470  0.1456
  878YOPE   C2B 9994   8.249   6.609   7.364  0.0355  0.0290 -0.1959
  878YOPE   D3B 9995   8.128   6.565   7.793  0.2045  0.0425  0.0250
  878YOPE   C4B 9996   8.171   6.632   8.111  0.1147  0.5805 -0.3701
  879YOPE   NH3 9997  16.965  14.816   6.436  0.0710  0.2577  0.0196
  879YOPE   PO4 9998  16.720  14.515   6.436  0.1407  0.1928 -0.3192
  879YOPE   GL1 9999  16.690  14.205   6.800 -0.0142 -0.0194 -0.1325
  879YOPE   GL210000  16.963  13.999   6.920  0.0846 -0.0324 -0.2757
  879YOPE   C1A10001  16.495  13.806   7.012  0.1517 -0.0848 -0.1486
  879YOPE   D2A10002  16.412  13.420   7.237  0.3633  0.0442  0.2759
  879YOPE   C3A10003  16.039  13.292   7.382 -0.0632 -0.1819 -0.0578
  879YOPE   C4A10004  15.792  13.212   7.674 -0.0595  0.0764 -0.0783
  879YOPE   C1B10005  17.440  13.989   7.276  0.0678 -0.1324 -0.3088
  879YOPE   C2B10006  17.506  13.992   7.619 -0.1001  0.1906 -0.0084
  879YOPE   D3B10007  17.497  13.851   7.888 -0.0303 -0.1092 -0.2124
  879YOPE   C4B10008  17.490  13.712   8.312  0.0147  0.0195  0.0184
  880YOPE   NH310009   7.199   7.662   6.398  0.1598  0.1329  0.3232
  880YOPE   PO410010   7.515   7.569   6.279 -0.1360  0.0798 -0.0945
  880YOPE   GL110011   7.695   7.464   6.735  0.0356 -0.0196  0.1185
  880YOPE   GL210012   7.490   7.253   6.814 -0.1474 -0.1022 -0.1286
  880YOPE   C1A10013   7.621   7.547   7.211 -0.0335  0.0321 -0.2494
  880YOPE   D2A10014   7.592   7.398   7.644  0.0219 -0.1026  0.0321
  880YOPE   C3A10015   7.423   7.195   7.970 -0.0849  0.0793 -0.1926
  880YOPE   C4A10016   7.149   6.951   8.180 -0.1624 -0.0432  0.1449
  880YOPE   C1B10017   7.409   7.055   7.217  0.1562 -0.0686 -0.4577
  880YOPE   C2B10018   7.238   6.896   7.582 -0.1703 -0.1144 -0.2634
  880YOPE   D3B10019   6.963   6.601   7.814  0.2433  0.0395 -0.0796
  880YOPE   C4B10020   6.644   6.256   8.031  0.1807 -0.1874  0.4119
  881YOPE   NH310021  13.171   2.256   6.103 -0.0688  0.1844 -0.0787
  881YOPE   PO410022  13.527   2.017   6.151 -0.0284  0.1595 -0.0994
  881YOPE   GL110023  13.477   1.955   6.516 -0.0185  0.0936  0.3224
  881YOPE   GL210024  13.160   2.168   6.632  0.0672 -0.1352 -0.0657
  881YOPE   C1A10025  13.658   1.668   6.781  0.1762 -0.2352 -0.0577
  881YOPE   D2A10026  13.645   1.518   7.223  0.2840 -0.4398 -0.1451
  881YOPE   C3A10027  13.861   1.709   7.549 -0.1079  0.0999 -0.1166
  881YOPE   C4A10028  14.268   1.669   7.757  0.0435 -0.0807  0.2733
  881YOPE   C1B10029  13.350   1.981   7.094  0.0799  0.1447  0.1146
  881YOPE   C2B10030  13.405   1.923   7.494 -0.2313  0.2653 -0.2548
  881YOPE   D3B10031  13.337   1.792   7.831  0.0680 -0.0565  0.0674
  881YOPE   C4B10032  13.620   1.982   8.186  0.0810 -0.2672  0.0790
  882YOPE   NH310033  14.467  14.481   6.207 -0.0245 -0.1018  0.0677
  882YOPE   PO410034  14.672  13.982   6.068 -0.0591  0.1939  0.1014
  882YOPE   GL110035  14.564  13.938   6.564 -0.1825 -0.3821 -0.2842
  882YOPE   GL210036  14.812  13.623   6.693 -0.1041  0.0565 -0.1423
  882YOPE   C1A10037  14.292  13.733   6.895  0.2743 -0.0106 -0.4285
  882YOPE   D2A10038  14.076  13.518   7.205 -0.0122  0.0046  0.0778
  882YOPE   C3A10039  14.038  13.722   7.478  0.1928 -0.3049 -0.1289
  882YOPE   C4A10040  13.936  13.835   7.919  0.0796 -0.1068 -0.0632
  882YOPE   C1B10041  14.731  13.439   7.110  0.1306 -0.0644 -0.0115
  882YOPE   C2B10042  14.617  13.380   7.565 -0.2218  0.1149 -0.1372
  882YOPE   D3B10043  14.579  13.298   8.000  0.1253  0.0200  0.0387
  882YOPE   C4B10044  14.837  13.305   8.214  0.1994 -0.0343  0.0995
  883YOPE   NH310045  14.725   7.201   5.662  0.0870 -0.1148  0.1139
  883YOPE   PO410046  14.841   7.372   6.040  0.3299 -0.0194  0.0359
  883YOPE   GL110047  14.713   7.470   6.431 -0.3690 -0.1103 -0.2308
  883YOPE   GL210048  14.899   7.791   6.475  0.0635  0.1747  0.2742
  883YOPE   C1A10049  14.679   7.303   6.801  0.1268  0.2189 -0.0614
  883YOPE   D2A10050  14.403   7.135   7.110  0.2401 -0.0169 -0.3956
  883YOPE   C3A10051  14.271   7.366   7.492 -0.2747 -0.5709 -0.4067
  883YOPE   C4A10052  14.104   7.231   7.850  0.3004 -0.0979 -0.1479
  883YOPE   C1B10053  14.796   7.782   6.867 -0.0961 -0.1835  0.2228
  883YOPE   C2B10054  14.461   7.730   7.139  0.0519  0.0900 -0.0567
  883YOPE   D3B10055  14.269   7.922   7.546  0.5120  0.0987 -0.0334
  883YOPE   C4B10056  14.008   7.700   7.883  0.0018  0.1273 -0.1956
  884YOPE   NH310057  15.151   8.183   6.305 -0.0508 -0.0667  0.1483
  884YOPE   PO410058  14.738   8.372   6.283  0.0700 -0.2193  0.1539
  884YOPE   GL110059  14.721   8.259   6.669  0.1029  0.0616 -0.1186
  884YOPE   GL210060  15.055   8.177   6.831  0.2609  0.0175  0.0099
  884YOPE   C1A10061  14.565   8.242   7.142  0.1357 -0.1558  0.1864
  884YOPE   D2A10062  14.471   8.303   7.659  0.1139 -0.0309 -0.0672
  884YOPE   C3A10063  14.219   8.170   7.957  0.2845 -0.2624  0.0597
  884YOPE   C4A10064  14.069   8.509   8.210  0.3997  0.2395 -0.4921
  884YOPE   C1B10065  15.018   8.201   7.237 -0.1951  0.1582  0.3221
  884YOPE   C2B10066  14.791   7.929   7.493 -0.1937  0.2907  0.0520
  884YOPE   D3B10067  14.570   7.673   7.868 -0.0614  0.0898  0.0968
  884YOPE   C4B10068  14.499   7.490   8.199 -0.1461 -0.2378 -0.2580
  885YOPE   NH310069   0.676   7.925   6.847 -0.1436  0.0554  0.0153
  885YOPE   PO410070   0.498   7.601   6.849  0.0117  0.1943  0.3794
  885YOPE   GL110071   0.285   7.795   7.170 -0.1408 -0.1718  0.0478
  885YOPE   GL210072   0.357   8.100   7.279 -0.2002 -0.1295  0.4345
  885YOPE   C1A10073   0.081   7.754   7.585  0.0095 -0.0054  0.2401
  885YOPE   D2A10074   0.098   7.962   7.908 -0.0988 -0.0928 -0.2172
  885YOPE   C3A10075  -0.131   7.743   8.333 -0.0869  0.1255 -0.5037
  885YOPE   C4A10076  -0.298   7.387   8.654 -0.0435 -0.1893  0.1391
  885YOPE   C1B10077   0.490   8.107   7.678  0.2592 -0.2691 -0.2204
  885YOPE   C2B10078   0.878   8.065   7.892  0.1502  0.2051 -0.1762
  885YOPE   D3B10079   0.793   8.026   8.320  0.1045  0.1420 -0.2685
  885YOPE   C4B10080   0.693   7.957   8.770 -0.2552  0.1137 -0.2329
  886YOPE   NH310081  17.560  10.940   6.400 -0.0067  0.1326 -0.1804
  886YOPE   PO410082  17.522  10.469   6.515  0.0901  0.0379  0.1192
  886YOPE   GL110083  17.586  10.221   6.876  0.4203 -0.0756  0.0064
  886YOPE   GL210084  17.327  10.418   7.001  0.1346  0.0230  0.2371
  886YOPE   C1A10085  17.583  10.002   7.328 -0.1323 -0.4698  0.1068
  886YOPE   D2A10086  17.436   9.775   7.558 -0.0198 -0.0888  0.0276
  886YOPE   C3A10087  17.345   9.790   7.983 -0.0178 -0.0986 -0.1039
  886YOPE   C4A10088  17.120   9.890   8.352  0.0254  0.2423  0.0088
  886YOPE   C1B10089  17.453  10.722   7.351 -0.0492 -0.0164 -0.0534
  886YOPE   C2B10090  17.338  10.724   7.802  0.1223  0.2768  0.2816
  886YOPE   D3B10091  17.256  11.124   7.977 -0.0121  0.1731  0.0959
  886YOPE   C4B10092  16.943  11.407   7.858  0.0238 -0.0241 -0.2852
  887YOPE   NH310093  13.961   5.776   5.920  0.0444  0.3773 -0.0229
  887YOPE   PO410094  13.913   6.224   5.991  0.0242 -0.2864 -0.0122
  887YOPE   GL110095  13.880   6.097   6.379 -0.1702  0.2415  0.0001
  887YOPE   GL210096  14.154   5.910   6.331 -0.1524  0.1325  0.1423
  887YOPE   C1A10097  14.010   6.365   6.726  0.2464  0.0129 -0.0110
  887YOPE   D2A10098  13.949   6.724   6.795 -0.2573  0.1604 -0.0693
  887YOPE   C3A10099  14.070   6.643   7.243 -0.2133 -0.5289  0.0755
  887YOPE   C4A10100  14.309   6.832   7.605  0.2167  0.0269  0.0857
  887YOPE   C1B10101  14.232   5.922   6.815 -0.1981 -0.2586  0.1110
  887YOPE   C2B10102  14.097   6.164   7.171 -0.1611 -0.2038 -0.1018
  887YOPE   D3B10103  14.127   6.252   7.536  0.0784 -0.0039  0.1624
  887YOPE   C4B10104  14.095   6.310   7.955 -0.2306  0.1033 -0.3148
  888YOPE   NH310105   0.721   0.004   6.596 -0.2361  0.0893  0.0850
  888YOPE   PO410106   0.475  -0.364   6.609 -0.2523 -0.0815  0.1333
  888YOPE   GL110107   0.234  -0.260   6.955  0.3011  0.0461  0.0362
  888YOPE   GL210108   0.395   0.075   7.124 -0.2250 -0.0366 -0.0009
  888YOPE   C1A10109   0.274  -0.486   7.350  0.0569  0.1397 -0.3045
  888YOPE   D2A10110   0.081  -0.435   7.776  0.3434  0.0129  0.1459
  888YOPE   C3A10111   0.205  -0.641   8.125  0.4075  0.0235 -0.1958
  888YOPE   C4A10112   0.133  -0.644   8.514 -0.0333 -0.0483 -0.2325
  888YOPE   C1B10113   0.324  -0.028   7.499  0.1469 -0.1761  0.0581
  888YOPE   C2B10114   0.342  -0.029   7.883  0.0106  0.1446  0.0948
  888YOPE   D3B10115   0.165  -0.151   8.256 -0.1426 -0.1158  0.0703
  888YOPE   C4B10116   0.226  -0.188   8.708 -0.0618  0.0504 -0.0080
  889YOPE   NH310117  17.752   2.538   6.106 -0.0159  0.1513  0.0659
  889YOPE   PO410118  18.244   2.601   6.127 -0.3137  0.0284 -0.1404
  889YOPE   GL110119  18.357   2.339   6.428  0.1030  0.0262  0.1777
  889YOPE   GL210120  18.270   2.017   6.417  0.2352  0.0953  0.1770
  889YOPE   C1A10121  18.572   2.159   6.856  0.1819 -0.0692  0.0144
  889YOPE   D2A10122  18.745   2.291   7.246  0.0988  0.2373 -0.0126
  889YOPE   C3A10123  19.056   2.372   7.437  0.1771  0.0208  0.1962
  889YOPE   C4A10124  19.528   2.300   7.415  0.2377  0.0177  0.2599
  889YOPE   C1B10125  18.087   1.977   6.811 -0.1933 -0.0004 -0.0971
  889YOPE   C2B10126  18.278   1.954   7.190 -0.2773  0.0849  0.3091
  889YOPE   D3B10127  18.385   2.039   7.591 -0.0387  0.1084  0.3305
  889YOPE   C4B10128  18.189   1.839   7.946  0.3674 -0.1257  0.0209
  890YOPE   NH310129   0.769   8.912   6.722  0.1822  0.1186  0.0010
  890YOPE   PO410130   0.717   8.399   6.609 -0.2186 -0.5175  0.0636
  890YOPE   GL110131   0.496   8.560   6.985 -0.4697  0.1364 -0.0652
  890YOPE   GL210132   0.319   8.799   6.971  0.0104  0.2067 -0.0972
  890YOPE   C1A10133   0.254   8.563   7.379 -0.1793 -0.0456  0.0869
  890YOPE   D2A10134   0.291   8.555   7.827  0.0184 -0.4013  0.1169
  890YOPE   C3A10135   0.399   8.293   8.209 -0.3378 -0.0810  0.0500
  890YOPE   C4A10136   0.173   8.083   8.516  0.0815 -0.0729 -0.0401
  890YOPE   C1B10137   0.088   9.030   7.262 -0.1847  0.0146 -0.0959
  890YOPE   C2B10138  -0.305   9.202   7.333  0.1285  0.2393 -0.0203
  890YOPE   D3B10139  -0.415   9.245   7.626 -0.0750  0.0732 -0.2654
  890YOPE   C4B10140  -0.392   9.530   8.036  0.2302  0.2399  0.1806
  891YOPE   NH310141   0.953  11.782   6.164 -0.3255  0.1266  0.3815
  891YOPE   PO410142   0.857  11.313   6.301 -0.3610  0.3426  0.3431
  891YOPE   GL110143   0.944  11.392   6.652 -0.0005 -0.4692 -0.0621
  891YOPE   GL210144   0.914  11.775   6.694 -0.0035  0.2344  0.1044
  891YOPE   C1A10145   1.132  11.180   7.000 -0.2110 -0.5195 -0.0178
  891YOPE   D2A10146   1.370  11.196   7.430 -0.1499  0.3474  0.0309
  891YOPE   C3A10147   1.182  11.184   7.842 -0.2176  0.1571 -0.1789
  891YOPE   C4A10148   0.804  11.141   7.991  0.0266 -0.0254  0.0331
  891YOPE   C1B10149   0.825  11.495   7.185 -0.0054  0.3054 -0.1409
  891YOPE   C2B10150   0.844  11.516   7.639 -0.4997 -0.0801  0.1638
  891YOPE   D3B10151   1.015  11.609   8.058 -0.2294  0.3175 -0.2255
  891YOPE   C4B10152   1.270  11.790   8.454  0.0455  0.1370  0.1964
  892YOPE   NH310153  17.404   9.556   6.457 -0.1148  0.2851 -0.0773
  892YOPE   PO410154  17.324   9.967   6.536  0.1268  0.0019 -0.1058
  892YOPE   GL110155  17.019  10.075   6.774  0.1984  0.0987 -0.2218
  892YOPE   GL210156  16.878  10.467   6.830 -0.1419 -0.1018  0.0110
  892YOPE   C1A10157  17.066   9.792   7.177 -0.0568 -0.0240 -0.4233
  892YOPE   D2A10158  16.960   9.627   7.497 -0.3081  0.1397  0.2082
  892YOPE   C3A10159  16.896   9.905   7.784  0.0889  0.1204 -0.2667
  892YOPE   C4A10160  16.992  10.289   7.995  0.1779  0.0420 -0.0479
  892YOPE   C1B10161  16.831  10.314   7.154 -0.2094 -0.0287 -0.0931
  892YOPE   C2B10162  17.113  10.195   7.428  0.2895  0.3789  0.0292
  892YOPE   D3B10163  17.430  10.237   7.722  0.0675 -0.2955  0.0883
  892YOPE   C4B10164  17.534  10.342   8.094 -0.2749  0.0263 -0.0582
  893YOPE   NH310165   7.522  11.491   6.396 -0.4182  0.0715  0.1657
  893YOPE   PO410166   7.826  11.080   6.350 -0.0430 -0.2640  0.3987
  893YOPE   GL110167   7.820  11.262   6.758 -0.0194  0.0713 -0.1659
  893YOPE   GL210168   8.113  11.340   6.858  0.1516  0.2354 -0.0885
  893YOPE   C1A10169   7.735  11.439   7.174 -0.1902 -0.0991  0.1829
  893YOPE   D2A10170   7.671  11.598   7.537  0.2158 -0.0664  0.1940
  893YOPE   C3A10171   7.885  11.607   7.894 -0.0425 -0.0652  0.1615
  893YOPE   C4A10172   8.406  11.571   7.909  0.1640  0.2280  0.0129
  893YOPE   C1B10173   8.399  11.151   7.108  0.1430  0.2103 -0.0098
  893YOPE   C2B10174   8.576  11.066   7.505  0.1112  0.3356 -0.1497
  893YOPE   D3B10175   8.803  11.239   7.856 -0.2457 -0.3451  0.0044
  893YOPE   C4B10176   8.786  11.427   8.246 -0.1591  0.3970 -0.0169
  894YOPE   NH310177  16.373   7.757   6.317 -0.1178  0.3468 -0.2630
  894YOPE   PO410178  15.949   8.026   6.476  0.1915  0.0320  0.6739
  894YOPE   GL110179  16.009   7.772   6.811 -0.2437  0.1612  0.0597
  894YOPE   GL210180  15.927   8.089   7.040  0.1801 -0.1761  0.0084
  894YOPE   C1A10181  16.171   7.538   7.180 -0.1715 -0.5913  0.3635
  894YOPE   D2A10182  16.077   7.665   7.520  0.2006 -0.4246 -0.2780
  894YOPE   C3A10183  16.306   7.726   7.832 -0.0137  0.0997 -0.0578
  894YOPE   C4A10184  16.139   7.579   8.254  0.0954 -0.2448 -0.1863
  894YOPE   C1B10185  15.742   7.994   7.445 -0.1059  0.0973 -0.2873
  894YOPE   C2B10186  15.732   7.788   7.876  0.2133  0.1633  0.3505
  894YOPE   D3B10187  15.919   7.365   7.917 -0.3962  0.0901 -0.0811
  894YOPE   C4B10188  15.918   7.055   8.091 -0.0404 -0.2624  0.1798
  895YOPE   NH310189  10.137   5.708   5.973  0.1644 -0.2145 -0.1964
  895YOPE   PO410190  10.434   5.746   6.292 -0.0884 -0.0876 -0.2720
  895YOPE   GL110191  10.418   5.790   6.697  0.0313 -0.0895 -0.2957
  895YOPE   GL210192  10.198   5.640   6.897 -0.0899 -0.0729  0.2327
  895YOPE   C1A10193  10.741   6.011   6.996 -0.1816  0.0457 -0.0436
  895YOPE   D2A10194  10.992   5.838   7.280 -0.2657 -0.2201  0.0531
  895YOPE   C3A10195  11.225   6.015   7.643  0.0652  0.1863  0.2352
  895YOPE   C4A10196  11.342   6.209   8.005  0.0068 -0.4282 -0.0141
  895YOPE   C1B10197  10.459   5.754   7.273 -0.0039 -0.0337 -0.0772
  895YOPE   C2B10198  10.420   5.609   7.697  0.1055  0.2512 -0.1956
  895YOPE   D3B10199  10.493   5.782   8.118  0.2189 -0.0907 -0.0306
  895YOPE   C4B10200  10.265   5.887   8.449  0.0145  0.2126  0.2859
  896YOPE   NH310201   8.464   3.836   5.789 -0.1236 -0.0429  0.2121
  896YOPE   PO410202   8.236   3.459   5.817  0.0799  0.1588 -0.2956
  896YOPE   GL110203   7.998   3.552   6.219 -0.0889  0.2931 -0.0051
  896YOPE   GL210204   8.183   3.600   6.440  0.2845 -0.1096  0.1040
  896YOPE   C1A10205   7.820   3.342   6.651  0.3324  0.1375 -0.1053
  896YOPE   D2A10206   7.781   3.070   6.908  0.0776  0.0782 -0.2969
  896YOPE   C3A10207   7.917   3.055   7.359 -0.0925 -0.1152  0.3203
  896YOPE   C4A10208   7.863   3.217   7.766  0.0126 -0.4340  0.0805
  896YOPE   C1B10209   8.190   3.649   6.887  0.0359 -0.0151 -0.0327
  896YOPE   C2B10210   7.922   3.611   7.237  0.2233  0.2671  0.0565
  896YOPE   D3B10211   7.614   3.599   7.665 -0.4421  0.1623  0.1752
  896YOPE   C4B10212   7.179   3.805   7.751  0.2496  0.1799 -0.1786
  897YOPE   NH310213   1.430   0.408   6.457 -0.0562 -0.2386 -0.1931
  897YOPE   PO410214   0.980   0.408   6.608 -0.0367  0.0118  0.0439
  897YOPE   GL110215   0.962   0.394   7.057  0.3224 -0.0217 -0.2484
  897YOPE   GL210216   0.995   0.698   7.059  0.1986  0.1007 -0.1165
  897YOPE   C1A10217   0.844   0.263   7.444  0.1355 -0.0861  0.0768
  897YOPE   D2A10218   0.907   0.127   7.878 -0.2566  0.1289  0.0906
  897YOPE   C3A10219   1.293  -0.003   8.083 -0.0105 -0.3096  0.0368
  897YOPE   C4A10220   1.490  -0.316   8.406  0.0378 -0.0096  0.2567
  897YOPE   C1B10221   0.930   0.760   7.512 -0.1454 -0.0027  0.2390
  897YOPE   C2B10222   0.806   0.820   7.824  0.0601 -0.1678 -0.1162
  897YOPE   D3B10223   0.764   0.901   8.152 -0.3520 -0.0205 -0.2318
  897YOPE   C4B10224   0.608   0.679   8.540  0.1617  0.2544  0.0311
  898YOPE   NH310225   9.960  16.572   5.563  0.2219 -0.0592 -0.1537
  898YOPE   PO410226  10.327  16.442   5.687 -0.1084  0.2300  0.0100
  898YOPE   GL110227  10.561  16.627   5.938 -0.0154 -0.0163 -0.1337
  898YOPE   GL210228  10.624  16.316   6.072 -0.0090  0.0621 -0.1131
  898YOPE   C1A10229  10.581  16.779   6.341  0.3060 -0.1211  0.0626
  898YOPE   D2A10230  10.378  17.105   6.535 -0.2465  0.1381 -0.1706
  898YOPE   C3A10231  10.259  16.932   6.981  0.3670  0.1488 -0.0095
  898YOPE   C4A10232  10.331  16.732   7.367  0.2758 -0.0243  0.2439
  898YOPE   C1B10233  10.477  16.359   6.544 -0.1060  0.0727  0.1345
  898YOPE   C2B10234  10.520  16.162   6.933 -0.0618  0.2409 -0.3471
  898YOPE   D3B10235  10.456  16.176   7.344  0.0659 -0.1699 -0.0363
  898YOPE   C4B10236  10.258  16.222   7.751 -0.0413  0.0367 -0.1419
  899YOPE   NH310237   1.517   5.537   6.084 -0.0482  0.1773 -0.3405
  899YOPE   PO410238   1.345   5.964   6.118 -0.2275 -0.2685  0.1638
  899YOPE   GL110239   1.322   5.990   6.515  0.1074 -0.0612 -0.0906
  899YOPE   GL210240   1.370   5.778   6.705 -0.1781 -0.1003  0.1415
  899YOPE   C1A10241   1.256   6.237   6.921 -0.2242 -0.0404  0.0530
  899YOPE   D2A10242   1.210   6.018   7.401 -0.2057 -0.2134 -0.1537
  899YOPE   C3A10243   0.919   6.247   7.762 -0.0387 -0.1689 -0.0683
  899YOPE   C4A10244   0.565   6.187   7.970  0.0655  0.1354  0.2179
  899YOPE   C1B10245   1.155   5.617   7.000 -0.1730  0.0325  0.2372
  899YOPE   C2B10246   1.137   5.413   7.313 -0.0127  0.2399 -0.0235
  899YOPE   D3B10247   1.047   5.286   7.682  0.0104 -0.0142  0.2501
  899YOPE   C4B10248   1.158   4.953   7.933  0.2945  0.1161  0.0725
  900YOPE   NH310249   1.730  17.943   6.517 -0.0936  0.1438  0.0607
  900YOPE   PO410250   1.824  18.394   6.553  0.0563 -0.0367  0.1700
  900YOPE   GL110251   1.689  18.302   6.963 -0.2803  0.0028 -0.0884
  900YOPE   GL210252   1.394  18.389   6.970 -0.1229 -0.1958  0.1021
  900YOPE   C1A10253   1.683  18.306   7.357 -0.1156  0.1629  0.3599
  900YOPE   D2A10254   1.705  18.462   7.752  0.0753 -0.0123  0.0531
  900YOPE   C3A10255   1.872  18.294   8.088  0.0498  0.1284 -0.1075
  900YOPE   C4A10256   2.155  18.301   8.459  0.0612 -0.1680  0.1008
  900YOPE   C1B10257   1.293  18.652   7.397 -0.1189 -0.0214  0.2909
  900YOPE   C2B10258   1.309  18.773   7.744  0.1262  0.4206  0.0925
  900YOPE   D3B10259   1.155  18.747   8.134  0.1390  0.0833 -0.0253
  900YOPE   C4B10260   1.145  19.051   8.501  0.0566 -0.1066  0.0926
  901YOPE   NH310261  11.672  11.419   6.026 -0.1629  0.2112  0.0973
  901YOPE   PO410262  11.401  11.754   6.265 -0.1676  0.2444 -0.0234
  901YOPE   GL110263  11.669  11.890   6.638 -0.0792  0.2714 -0.1071
  901YOPE   GL210264  11.694  12.178   6.634  0.0436  0.1151 -0.1233
  901YOPE   C1A10265  11.738  11.800   7.093  0.0393  0.0266  0.2817
  901YOPE   D2A10266  11.982  11.589   7.377 -0.1340 -0.2072 -0.0071
  901YOPE   C3A10267  11.879  11.460   7.696  0.0244  0.3175 -0.0604
  901YOPE   C4A10268  11.704  11.399   8.115 -0.1284  0.1772 -0.0953
  901YOPE   C1B10269  11.767  12.364   7.011  0.1682  0.2891  0.0686
  901YOPE   C2B10270  11.945  12.499   7.403  0.0332 -0.2523  0.2320
  901YOPE   D3B10271  11.884  12.936   7.461  0.2544  0.0614 -0.2910
  901YOPE   C4B10272  11.965  13.251   7.848 -0.0276  0.0094 -0.3011
  902YOPE   NH310273   0.461  16.436   6.609 -0.0521 -0.1684  0.2136
  902YOPE   PO410274   0.645  16.857   6.561  0.1888  0.0639  0.4460
  902YOPE   GL110275   0.751  16.694   6.965 -0.0483  0.0616  0.0681
  902YOPE   GL210276   1.089  16.796   7.025  0.0292  0.0709  0.0478
  902YOPE   C1A10277   0.560  16.686   7.329  0.3400 -0.0162 -0.0836
  902YOPE   D2A10278   0.690  16.677   7.769  0.0558 -0.1076  0.0358
  902YOPE   C3A10279   0.885  16.409   8.171 -0.0923  0.2830 -0.4068
  902YOPE   C4A10280   1.022  16.216   8.541 -0.0821 -0.0892  0.1214
  902YOPE   C1B10281   1.048  16.759   7.436  0.2801  0.0373 -0.0714
  902YOPE   C2B10282   1.165  16.651   7.809  0.1827 -0.0355  0.0239
  902YOPE   D3B10283   1.461  16.728   7.981 -0.0387 -0.0322  0.2941
  902YOPE   C4B10284   1.623  16.942   8.276  0.2438 -0.0981 -0.2857
  903YOPE   NH310285   8.148   5.628   5.958  0.0710 -0.0526  0.5228
  903YOPE   PO410286   8.539   5.764   5.875 -0.3067 -0.1118  0.2811
  903YOPE   GL110287   8.430   5.983   6.345  0.1057  0.2463  0.0694
  903YOPE   GL210288   8.424   5.711   6.386  0.0249  0.1622  0.0051
  903YOPE   C1A10289   8.254   5.845   6.820 -0.0632 -0.2179  0.0536
  903YOPE   D2A10290   8.508   5.687   7.116 -0.0117 -0.4636 -0.0605
  903YOPE   C3A10291   8.246   5.493   7.345  0.0543 -0.1062  0.0328
  903YOPE   C4A10292   8.010   5.125   7.492 -0.0062 -0.2210 -0.0585
  903YOPE   C1B10293   8.789   5.724   6.576 -0.1534  0.3970 -0.1487
  903YOPE   C2B10294   9.192   5.526   6.556  0.1216  0.1137  0.2007
  903YOPE   D3B10295   9.601   5.568   6.824 -0.1164 -0.1824  0.0711
  903YOPE   C4B10296   9.765   5.895   6.912  0.0354  0.1027  0.0758
  904YOPE   NH310297   8.954  15.335   5.708  0.0432 -0.0250  0.1478
  904YOPE   PO410298   8.728  15.027   6.008  0.0706  0.5357 -0.0258
  904YOPE   GL110299   8.904  15.215   6.295  0.4007 -0.0812  0.2159
  904YOPE   GL210300   9.246  15.041   6.260 -0.2693 -0.0005  0.1929
  904YOPE   C1A10301   8.765  15.224   6.740 -0.1589  0.1893 -0.0007
  904YOPE   D2A10302   8.748  15.318   7.171  0.1476  0.1052 -0.2328
  904YOPE   C3A10303   8.560  15.213   7.510  0.0608  0.3112 -0.1645
  904YOPE   C4A10304   8.264  15.093   7.678  0.0083 -0.1923 -0.1151
  904YOPE   C1B10305   9.543  14.910   6.591  0.3576  0.1355  0.0091
  904YOPE   C2B10306   9.739  14.866   6.949  0.2157 -0.0965  0.2669
  904YOPE   D3B10307   9.807  14.776   7.345  0.0472  0.2168  0.1754
  904YOPE   C4B10308   9.940  14.791   7.775 -0.0218  0.0991 -0.0283
  905YOPE   NH310309   0.946   7.484   6.789  0.0856  0.0473 -0.1061
  905YOPE   PO410310   1.203   7.425   6.458 -0.0165 -0.4092 -0.0461
  905YOPE   GL110311   1.487   7.477   6.876  0.0711 -0.0661 -0.1566
  905YOPE   GL210312   1.281   7.332   7.219  0.3578  0.1003 -0.2429
  905YOPE   C1A10313   1.733   7.648   7.149 -0.1202  0.0325  0.1614
  905YOPE   D2A10314   1.582   7.912   7.406 -0.0455 -0.1328 -0.0890
  905YOPE   C3A10315   1.731   8.178   7.752 -0.1484 -0.0325 -0.0411
  905YOPE   C4A10316   2.051   8.180   8.070  0.1474  0.3458 -0.1220
  905YOPE   C1B10317   0.999   7.143   7.622 -0.0566  0.1564 -0.1201
  905YOPE   C2B10318   0.894   7.086   8.031 -0.1508 -0.0993  0.1371
  905YOPE   D3B10319   0.953   6.825   8.331 -0.0877  0.1649 -0.0219
  905YOPE   C4B10320   1.080   6.588   8.714 -0.2452  0.0725 -0.2026
  906YOPE   NH310321  16.374  12.909   6.330  0.1336  0.3732  0.0151
  906YOPE   PO410322  16.242  13.337   6.264  0.0940  0.0366  0.1078
  906YOPE   GL110323  16.251  13.437   6.629 -0.2345 -0.1627 -0.0035
  906YOPE   GL210324  16.396  13.196   6.828  0.1462  0.0058 -0.1360
  906YOPE   C1A10325  16.014  13.647   6.946 -0.2099 -0.0547 -0.0569
  906YOPE   D2A10326  16.024  13.821   7.319  0.2621 -0.0463  0.0559
  906YOPE   C3A10327  16.005  13.686   7.748 -0.0711  0.2149  0.1828
  906YOPE   C4A10328  15.881  13.378   8.142 -0.1943  0.1483 -0.0326
  906YOPE   C1B10329  16.198  12.887   7.061  0.1623  0.1066 -0.3303
  906YOPE   C2B10330  16.232  12.864   7.518 -0.3270 -0.0694 -0.0154
  906YOPE   D3B10331  16.182  13.009   7.888  0.2447  0.0622  0.5651
  906YOPE   C4B10332  16.228  13.015   8.412  0.2187 -0.0508  0.1486
  907YOPE   NH310333  12.045   3.752   5.763  0.0501 -0.2049 -0.2581
  907YOPE   PO410334  12.352   3.936   6.047 -0.0368  0.2554 -0.1170
  907YOPE   GL110335  12.483   4.070   6.380  0.1103  0.0487  0.1108
  907YOPE   GL210336  12.535   4.347   6.281  0.0194 -0.1597  0.1587
  907YOPE   C1A10337  12.686   3.729   6.644  0.0631  0.0839 -0.1058
  907YOPE   D2A10338  12.932   3.817   7.110  0.4477 -0.2442 -0.0351
  907YOPE   C3A10339  12.778   3.652   7.514  0.0948  0.1440  0.3678
  907YOPE   C4A10340  12.829   3.401   7.935 -0.1976  0.0947  0.3349
  907YOPE   C1B10341  12.502   4.619   6.667  0.1098 -0.0650 -0.2524
  907YOPE   C2B10342  12.422   4.560   7.115  0.3597 -0.0279  0.0399
  907YOPE   D3B10343  12.037   4.721   7.309 -0.1051 -0.1907 -0.4057
  907YOPE   C4B10344  11.624   4.765   7.195 -0.0726  0.2009 -0.0783
  908YOPE   NH310345  17.068  12.941   6.696  0.0576  0.3955 -0.0015
  908YOPE   PO410346  16.733  12.725   6.601 -0.1875 -0.1353  0.0960
  908YOPE   GL110347  16.658  12.782   6.979  0.3696  0.1564  0.0119
  908YOPE   GL210348  16.816  13.013   7.123 -0.0438 -0.1176  0.3105
  908YOPE   C1A10349  16.617  12.620   7.387 -0.1791  0.2256 -0.0179
  908YOPE   D2A10350  16.609  12.665   7.836 -0.3382  0.3213  0.0456
  908YOPE   C3A10351  16.789  12.357   8.138  0.1936  0.0622 -0.0977
  908YOPE   C4A10352  16.598  12.088   8.415 -0.2505  0.3509 -0.2060
  908YOPE   C1B10353  16.682  13.062   7.511  0.0336 -0.6302 -0.0477
  908YOPE   C2B10354  16.505  13.368   7.737 -0.0068  0.0035  0.1164
  908YOPE   D3B10355  16.374  13.409   8.182 -0.1879 -0.2319 -0.0925
  908YOPE   C4B10356  16.083  13.575   8.560  0.0331  0.0763  0.0226
  909YOPE   NH310357  10.763  16.199   5.601  0.0438 -0.0816  0.0099
  909YOPE   PO410358  10.685  15.830   5.945  0.1577  0.3320 -0.0571
  909YOPE   GL110359  10.845  15.780   6.368 -0.3155 -0.3516 -0.1759
  909YOPE   GL210360  11.138  15.746   6.366  0.1167 -0.2350  0.1275
  909YOPE   C1A10361  10.918  16.005   6.752 -0.0497  0.1915 -0.3182
  909YOPE   D2A10362  11.300  15.840   6.961  0.1604  0.1228  0.0531
  909YOPE   C3A10363  11.327  15.752   7.448 -0.2329 -0.1068  0.0048
  909YOPE   C4A10364  11.345  15.787   7.855  0.1224 -0.1951  0.0732
  909YOPE   C1B10365  10.945  15.515   6.835  0.1310 -0.1355  0.0777
  909YOPE   C2B10366  11.239  15.257   7.035  0.0761  0.0640 -0.0491
  909YOPE   D3B10367  11.318  15.215   7.457  0.1409 -0.0569  0.2253
  909YOPE   C4B10368  11.491  15.235   7.853 -0.3758  0.1108 -0.0799
  910YOPE   NH310369  14.354   3.159   5.916 -0.1262  0.2672 -0.1594
  910YOPE   PO410370  14.012   3.513   5.895 -0.1639 -0.3012  0.2338
  910YOPE   GL110371  13.765   3.318   6.167 -0.2293  0.0521  0.0600
  910YOPE   GL210372  14.073   3.206   6.414 -0.0668 -0.2455 -0.1239
  910YOPE   C1A10373  13.570   3.355   6.639  0.0383  0.1909  0.1095
  910YOPE   D2A10374  13.700   3.235   7.087  0.0541  0.1024 -0.0929
  910YOPE   C3A10375  13.709   3.457   7.523 -0.0264  0.2586 -0.0336
  910YOPE   C4A10376  13.531   3.660   7.839 -0.1120  0.1692 -0.2839
  910YOPE   C1B10377  13.914   2.986   6.721  0.4254 -0.2559  0.1686
  910YOPE   C2B10378  13.911   2.797   7.024  0.0020  0.0580 -0.0284
  910YOPE   D3B10379  13.728   2.790   7.522  0.1396 -0.0577  0.1432
  910YOPE   C4B10380  13.835   3.037   7.852 -0.4194  0.0794  0.0964
  911YOPE   NH310381   4.794   7.420   5.853  0.4653  0.0771  0.1877
  911YOPE   PO410382   4.793   6.969   5.885 -0.3491  0.0529  0.5664
  911YOPE   GL110383   4.719   7.016   6.296  0.0024  0.1015 -0.3346
  911YOPE   GL210384   5.059   7.174   6.348 -0.2003  0.0155 -0.1923
  911YOPE   C1A10385   4.937   6.724   6.593  0.1168 -0.0928 -0.0391
  911YOPE   D2A10386   4.860   6.385   6.851 -0.0179 -0.2699  0.0533
  911YOPE   C3A10387   5.055   6.271   7.277  0.0395 -0.1834  0.0427
  911YOPE   C4A10388   5.046   6.286   7.742  0.2537 -0.2244 -0.0018
  911YOPE   C1B10389   5.271   7.134   6.581 -0.0154 -0.0395 -0.1272
  911YOPE   C2B10390   5.313   7.253   7.021  0.1053  0.1081  0.3093
  911YOPE   D3B10391   5.130   7.213   7.300 -0.5441  0.0003 -0.0406
  911YOPE   C4B10392   4.997   7.411   7.663 -0.3130 -0.2641 -0.1671
  912YOPE   NH310393   8.279   6.461   6.430  0.1719 -0.2258 -0.0054
  912YOPE   PO410394   8.741   6.559   6.416  0.0562  0.0525 -0.0241
  912YOPE   GL110395   8.596   6.612   6.774  0.1804  0.0378  0.1040
  912YOPE   GL210396   8.521   6.231   6.837  0.0401  0.1704  0.2269
  912YOPE   C1A10397   8.653   6.700   7.163 -0.0584  0.0928  0.2505
  912YOPE   D2A10398   8.604   6.616   7.666  0.1342  0.0909 -0.0403
  912YOPE   C3A10399   8.572   6.346   7.956 -0.0801 -0.1342 -0.0686
  912YOPE   C4A10400   8.561   6.260   8.361 -0.0775  0.3012  0.2228
  912YOPE   C1B10401   8.537   6.233   7.262 -0.0594  0.1340 -0.0266
  912YOPE   C2B10402   8.591   6.009   7.521 -0.0058 -0.1284 -0.4011
  912YOPE   D3B10403   8.552   5.643   7.644  0.0477  0.0992 -0.3823
  912YOPE   C4B10404   8.287   5.358   7.837 -0.2729 -0.5940 -0.1424
  913YOPE   NH310405   7.435  12.540   6.110 -0.1275  0.0884 -0.1503
  913YOPE   PO410406   7.036  12.746   6.085 -0.1561  0.2378  0.1545
  913YOPE   GL110407   6.979  12.928   6.527  0.1597  0.0754  0.0328
  913YOPE   GL210408   6.936  12.639   6.681 -0.0678  0.0338 -0.3874
  913YOPE   C1A10409   7.074  13.132   6.941  0.1520 -0.1632 -0.0851
  913YOPE   D2A10410   7.076  13.334   7.299  0.0350 -0.0645  0.0919
  913YOPE   C3A10411   6.872  13.430   7.717 -0.0885  0.1072  0.1884
  913YOPE   C4A10412   6.775  13.348   8.167  0.2962 -0.1517 -0.0416
  913YOPE   C1B10413   6.935  12.640   7.057  0.2050  0.0874  0.0661
  913YOPE   C2B10414   7.112  12.792   7.530  0.1579  0.1228 -0.3101
  913YOPE   D3B10415   7.270  13.109   7.831  0.0656  0.1147 -0.0186
  913YOPE   C4B10416   7.230  13.413   8.127 -0.0825  0.1742  0.0500
  914YOPE   NH310417   9.238   6.655   6.370 -0.2760 -0.2456 -0.0371
  914YOPE   PO410418   9.344   7.104   6.259  0.2093  0.1232  0.4744
  914YOPE   GL110419   9.372   7.162   6.688  0.2387 -0.2685 -0.1841
  914YOPE   GL210420   9.367   6.898   6.794  0.0818  0.0968 -0.1242
  914YOPE   C1A10421   9.528   7.413   7.048 -0.0237 -0.0641  0.3065
  914YOPE   D2A10422   9.345   7.600   7.337 -0.3090  0.1235 -0.1430
  914YOPE   C3A10423   9.450   7.660   7.776 -0.1087 -0.0555 -0.0198
  914YOPE   C4A10424   9.546   7.471   8.192 -0.3636  0.0272  0.1459
  914YOPE   C1B10425   9.432   6.723   7.124 -0.1280  0.2405 -0.1436
  914YOPE   C2B10426   9.473   6.660   7.535  0.0770 -0.0535  0.1454
  914YOPE   D3B10427   9.524   6.669   7.963  0.0743  0.2601  0.1166
  914YOPE   C4B10428   9.547   6.951   8.275  0.0331 -0.3524  0.0920
  915YOPE   NH310429   6.178  16.126   5.885 -0.0048 -0.1120  0.0321
  915YOPE   PO410430   6.458  15.786   5.898  0.1119  0.1598 -0.3451
  915YOPE   GL110431   6.501  15.995   6.314  0.0421  0.0137 -0.1056
  915YOPE   GL210432   6.179  15.993   6.441 -0.2510 -0.0722 -0.2397
  915YOPE   C1A10433   6.602  16.279   6.636 -0.1091  0.1230 -0.2670
  915YOPE   D2A10434   6.741  16.349   7.009  0.1290 -0.0751  0.0639
  915YOPE   C3A10435   6.672  16.212   7.324 -0.4937 -0.1985  0.2666
  915YOPE   C4A10436   6.479  15.853   7.591  0.1586 -0.1395 -0.1504
  915YOPE   C1B10437   6.242  16.035   6.906  0.0617 -0.3497  0.1170
  915YOPE   C2B10438   6.118  16.141   7.388 -0.2071 -0.4005 -0.0213
  915YOPE   D3B10439   6.326  16.330   7.736  0.2001 -0.2316  0.0901
  915YOPE   C4B10440   6.495  16.496   8.146 -0.2720  0.0381  0.1176
  916YOPE   NH310441  15.348  17.101   6.589  0.1445 -0.0710  0.0785
  916YOPE   PO410442  15.222  16.649   6.637 -0.0213 -0.2792  0.3156
  916YOPE   GL110443  15.324  16.378   6.925 -0.0893 -0.1796 -0.0848
  916YOPE   GL210444  15.154  16.111   6.926  0.0107 -0.0979  0.0003
  916YOPE   C1A10445  15.319  16.446   7.378 -0.1956  0.0638 -0.2366
  916YOPE   D2A10446  15.112  16.353   7.700  0.2878 -0.0702 -0.0069
  916YOPE   C3A10447  14.975  16.664   8.081 -0.0699  0.3047  0.0454
  916YOPE   C4A10448  15.019  16.600   8.513 -0.0492  0.2815 -0.0641
  916YOPE   C1B10449  14.938  16.224   7.239 -0.1965 -0.2965  0.0372
  916YOPE   C2B10450  14.624  16.134   7.599  0.1864  0.2105 -0.1685
  916YOPE   D3B10451  14.670  16.310   7.986 -0.0148 -0.3718  0.1799
  916YOPE   C4B10452  14.918  16.112   8.424  0.2441  0.1504  0.2886
  917YOPE   NH310453   1.345  15.456   6.459 -0.1668 -0.0608 -0.2826
  917YOPE   PO410454   1.396  15.066   6.405  0.3407  0.1708 -0.0748
  917YOPE   GL110455   1.709  15.027   6.735 -0.0582  0.0283 -0.3303
  917YOPE   GL210456   2.042  15.184   6.823 -0.0582  0.1428  0.0434
  917YOPE   C1A10457   1.736  14.958   7.138 -0.0366 -0.3123  0.2136
  917YOPE   D2A10458   1.795  14.899   7.536 -0.1196 -0.0993  0.1317
  917YOPE   C3A10459   1.721  14.772   7.935  0.1782 -0.1422  0.1261
  917YOPE   C4A10460   1.998  14.508   8.116  0.2045 -0.0419  0.3611
  917YOPE   C1B10461   2.150  15.245   7.250  0.2937  0.1373 -0.3671
  917YOPE   C2B10462   2.096  15.445   7.635 -0.1291 -0.1313 -0.0151
  917YOPE   D3B10463   2.124  15.713   8.080  0.1920 -0.0297  0.0151
  917YOPE   C4B10464   2.343  15.763   8.421  0.0359 -0.2229  0.3633
  918YOPE   NH310465   8.979   4.095   5.786  0.1176  0.0593 -0.0048
  918YOPE   PO410466   8.605   4.332   5.817  0.2971  0.1122 -0.0559
  918YOPE   GL110467   8.665   4.437   6.289  0.5509  0.1157  0.3166
  918YOPE   GL210468   8.341   4.585   6.378 -0.0914  0.0494 -0.0039
  918YOPE   C1A10469   8.637   4.371   6.771 -0.0692 -0.0191  0.1646
  918YOPE   D2A10470   8.541   4.400   7.140  0.1988 -0.0010 -0.0450
  918YOPE   C3A10471   8.735   4.473   7.625 -0.0218 -0.0491 -0.1103
  918YOPE   C4A10472   8.859   4.735   7.986 -0.2025  0.0547  0.1286
  918YOPE   C1B10473   8.122   4.425   6.764  0.3108 -0.2404  0.2158
  918YOPE   C2B10474   8.114   4.140   7.093 -0.0427 -0.1843 -0.1706
  918YOPE   D3B10475   8.222   3.974   7.596 -0.0025 -0.0118 -0.2550
  918YOPE   C4B10476   8.028   3.686   7.901 -0.3191 -0.1855  0.0841
  919YOPE   NH310477   8.116   9.208   6.621 -0.0053 -0.0138 -0.2282
  919YOPE   PO410478   8.304   9.560   6.388  0.0012  0.2125  0.0684
  919YOPE   GL110479   8.580   9.821   6.653  0.3899  0.2900  0.1407
  919YOPE   GL210480   8.633  10.139   6.694  0.0096 -0.1267  0.0404
  919YOPE   C1A10481   8.812   9.987   7.134 -0.2242 -0.1432  0.3375
  919YOPE   D2A10482   8.887  10.001   7.566  0.2044 -0.0571  0.3894
  919YOPE   C3A10483   8.685   9.997   7.941 -0.0869  0.0413  0.2429
  919YOPE   C4A10484   8.987   9.803   8.162  0.0738 -0.4296  0.1354
  919YOPE   C1B10485   8.323  10.084   7.018  0.2717 -0.1716 -0.0203
  919YOPE   C2B10486   8.287   9.934   7.377 -0.5208 -0.0282  0.0111
  919YOPE   D3B10487   8.217   9.920   7.821 -0.0690 -0.0364 -0.3408
  919YOPE   C4B10488   8.162  10.289   8.176 -0.0316 -0.0699 -0.0599
  920YOPE   NH310489  17.605  17.013   6.579  0.1225 -0.2287  0.0154
  920YOPE   PO410490  17.564  16.569   6.448  0.0762  0.0677 -0.1134
  920YOPE   GL110491  17.685  16.514   6.837  0.1656  0.2034 -0.1435
  920YOPE   GL210492  17.811  16.741   6.947 -0.0597  0.0426  0.2887
  920YOPE   C1A10493  17.599  16.251   7.142 -0.0956 -0.1205  0.2111
  920YOPE   D2A10494  17.291  16.198   7.428 -0.0996  0.3017  0.1404
  920YOPE   C3A10495  16.998  15.890   7.595  0.0694 -0.3679  0.1061
  920YOPE   C4A10496  16.885  15.821   8.001 -0.2638  0.1320  0.0039
  920YOPE   C1B10497  17.871  16.811   7.330 -0.0983 -0.1023 -0.1427
  920YOPE   C2B10498  17.865  16.775   7.803 -0.4225 -0.1884 -0.2267
  920YOPE   D3B10499  17.754  16.476   8.139  0.1898 -0.1777  0.1248
  920YOPE   C4B10500  17.728  16.098   8.269  0.1964 -0.1029 -0.1576
  921YOPE   NH310501   8.939  15.993   6.112  0.1604 -0.2607 -0.1383
  921YOPE   PO410502   8.755  15.601   6.082  0.0909  0.0486 -0.0710
  921YOPE   GL110503   8.838  15.734   6.546  0.1311 -0.2631  0.1141
  921YOPE   GL210504   9.206  15.937   6.556  0.0053 -0.0456 -0.1882
  921YOPE   C1A10505   8.941  15.717   6.984 -0.2628  0.2347  0.0786
  921YOPE   D2A10506   8.898  15.688   7.480  0.1892  0.2123 -0.1827
  921YOPE   C3A10507   9.021  15.307   7.710 -0.0164 -0.0347 -0.0819
  921YOPE   C4A10508   9.039  14.863   7.569  0.1803  0.0902  0.1108
  921YOPE   C1B10509   9.548  15.781   6.734 -0.0264  0.1840 -0.0606
  921YOPE   C2B10510   9.511  15.506   7.036 -0.0547  0.3237 -0.1045
  921YOPE   D3B10511   9.377  15.625   7.427 -0.2014  0.0333  0.0910
  921YOPE   C4B10512   9.246  15.929   7.691 -0.0949  0.4146 -0.1351
  922YOPE   NH310513  10.161   6.712   6.125 -0.1396  0.1887  0.0921
  922YOPE   PO410514  10.357   6.986   6.381 -0.0910 -0.0739  0.1173
  922YOPE   GL110515  10.270   6.727   6.637 -0.4716 -0.0016 -0.2177
  922YOPE   GL210516  10.123   6.517   6.647  0.0505  0.3398  0.3305
  922YOPE   C1A10517  10.592   6.472   6.977 -0.1618 -0.2001 -0.3888
  922YOPE   D2A10518  10.565   6.265   7.367 -0.0995  0.0779  0.1688
  922YOPE   C3A10519  10.726   5.996   7.688 -0.1283 -0.3320  0.1269
  922YOPE   C4A10520  10.914   6.220   8.149  0.2630 -0.0089 -0.0153
  922YOPE   C1B10521  10.134   6.196   6.996 -0.0817  0.1214 -0.0265
  922YOPE   C2B10522  10.097   5.990   7.473 -0.2192 -0.2969  0.0691
  922YOPE   D3B10523   9.926   5.760   7.778 -0.3017  0.1275  0.6096
  922YOPE   C4B10524   9.870   5.675   8.229 -0.1857  0.2253 -0.0034
  923YOPE   NH310525  15.523  13.086   6.200  0.0288  0.0442  0.4830
  923YOPE   PO410526  15.938  12.969   6.086 -0.1366  0.0971 -0.0760
  923YOPE   GL110527  15.928  12.972   6.500 -0.4383 -0.1232  0.3569
  923YOPE   GL210528  15.831  13.185   6.719  0.2261 -0.3385  0.0774
  923YOPE   C1A10529  15.766  12.650   6.802 -0.0687 -0.1856  0.1652
  923YOPE   D2A10530  15.558  12.388   7.101 -0.2267  0.1243 -0.0575
  923YOPE   C3A10531  15.642  12.254   7.550  0.2825  0.1426 -0.0375
  923YOPE   C4A10532  15.759  12.001   7.888 -0.2614  0.2647  0.0905
  923YOPE   C1B10533  15.720  13.100   7.080 -0.0828 -0.0653  0.0871
  923YOPE   C2B10534  15.743  12.773   7.357  0.0209  0.2725  0.1915
  923YOPE   D3B10535  15.769  12.712   7.771  0.0007  0.1381  0.3145
  923YOPE   C4B10536  15.681  12.946   8.200 -0.1726  0.0003  0.1873
  924YOPE   NH310537   0.609  10.083   6.534 -0.3653 -0.1122  0.2644
  924YOPE   PO410538   0.453   9.734   6.633  0.1561  0.2391 -0.0358
  924YOPE   GL110539   0.921   9.786   6.803 -0.5469 -0.1484  0.1151
  924YOPE   GL210540   0.993   9.469   7.019  0.3288  0.1502  0.1589
  924YOPE   C1A10541   1.169   9.948   7.247 -0.1524  0.0813  0.2733
  924YOPE   D2A10542   1.420  10.058   7.517 -0.1994  0.0577 -0.4394
  924YOPE   C3A10543   1.415  10.101   8.012 -0.2154 -0.2763  0.1657
  924YOPE   C4A10544   1.359   9.951   8.341  0.1850 -0.0295 -0.1017
  924YOPE   C1B10545   0.788   9.605   7.380 -0.1007 -0.1638  0.3357
  924YOPE   C2B10546   0.561   9.462   7.784 -0.0171  0.4703  0.0763
  924YOPE   D3B10547   0.598   9.529   8.170 -0.0010 -0.2260  0.0612
  924YOPE   C4B10548   0.723   9.194   8.443  0.2132  0.1436 -0.0348
  925YOPE   NH310549  11.434   7.774   6.244  0.1041  0.0521  0.0106
  925YOPE   PO410550  11.902   7.765   6.262  0.1490  0.1053  0.2611
  925YOPE   GL110551  11.925   7.841   6.705 -0.1369  0.1420  0.1847
  925YOPE   GL210552  12.218   7.933   6.715  0.1330 -0.0357 -0.1662
  925YOPE   C1A10553  11.713   7.847   6.942  0.1767  0.0699 -0.0669
  925YOPE   D2A10554  11.850   8.064   7.277  0.0436  0.0449 -0.0521
  925YOPE   C3A10555  11.658   8.242   7.652  0.5004 -0.1351  0.5341
  925YOPE   C4A10556  11.255   8.074   7.884 -0.3353  0.1676  0.0790
  925YOPE   C1B10557  12.176   7.723   7.142 -0.1409  0.1380  0.0629
  925YOPE   C2B10558  12.268   7.591   7.469  0.0798 -0.1486 -0.2165
  925YOPE   D3B10559  12.115   7.495   7.928  0.0305  0.2216 -0.0435
  925YOPE   C4B10560  11.845   7.573   8.272 -0.1276 -0.2030  0.0227
  926YOPE   NH310561   1.064  13.948   6.336 -0.0620 -0.2483 -0.2082
  926YOPE   PO410562   1.239  13.679   6.000  0.2518  0.1599 -0.1010
  926YOPE   GL110563   1.390  13.558   6.436 -0.1006  0.6022  0.1252
  926YOPE   GL210564   1.684  13.590   6.419  0.0943 -0.3650  0.0184
  926YOPE   C1A10565   1.414  13.659   6.881  0.1935 -0.0986  0.0171
  926YOPE   D2A10566   1.459  13.573   7.256  0.0256 -0.0455  0.1366
  926YOPE   C3A10567   1.288  13.442   7.631 -0.1800  0.0765 -0.0474
  926YOPE   C4A10568   1.129  13.332   8.006 -0.0689  0.0185 -0.3237
  926YOPE   C1B10569   1.823  13.412   6.882  0.4143 -0.3629 -0.0566
  926YOPE   C2B10570   1.837  13.258   7.362 -0.0878 -0.0062  0.1446
  926YOPE   D3B10571   1.737  13.228   7.724 -0.3010  0.1225  0.3343
  926YOPE   C4B10572   1.615  13.174   8.047  0.0601 -0.2072 -0.1147
  927YOPE   NH310573   2.284   3.153   6.671  0.0679  0.1904 -0.0686
  927YOPE   PO410574   2.324   2.769   6.348 -0.0345 -0.3033 -0.3936
  927YOPE   GL110575   2.378   2.482   6.661 -0.1403  0.2911  0.0403
  927YOPE   GL210576   2.150   2.532   6.919  0.1629  0.0280  0.4062
  927YOPE   C1A10577   2.664   2.494   7.014  0.0844 -0.1245 -0.1048
  927YOPE   D2A10578   3.061   2.449   7.225 -0.0725 -0.1680  0.0102
  927YOPE   C3A10579   3.065   2.490   7.749 -0.0843 -0.2968 -0.0774
  927YOPE   C4A10580   3.022   2.686   8.144  0.5721  0.2648  0.0812
  927YOPE   C1B10581   2.254   2.452   7.357 -0.0251  0.1826 -0.1089
  927YOPE   C2B10582   2.281   2.577   7.794  0.2677 -0.0858 -0.1183
  927YOPE   D3B10583   2.524   2.528   8.187  0.1069 -0.0883 -0.1028
  927YOPE   C4B10584   2.715   2.481   8.430  0.0609 -0.0033  0.5245
  928YOPE   NH310585  11.253  14.380   5.784  0.0542  0.1211 -0.0745
  928YOPE   PO410586  11.557  14.661   5.817  0.2594 -0.0273 -0.1692
  928YOPE   GL110587  11.420  14.695   6.268  0.3209 -0.1054 -0.1114
  928YOPE   GL210588  11.423  14.425   6.495 -0.1254  0.2379  0.0888
  928YOPE   C1A10589  11.500  14.857   6.710 -0.0926 -0.2476 -0.1120
  928YOPE   D2A10590  11.679  15.035   7.107  0.1886 -0.0943  0.2087
  928YOPE   C3A10591  11.732  14.815   7.363  0.2535 -0.1181 -0.0219
  928YOPE   C4A10592  11.464  14.600   7.574 -0.0383 -0.0694  0.0848
  928YOPE   C1B10593  11.002  14.576   6.790  0.2952  0.0332  0.0137
  928YOPE   C2B10594  10.663  14.595   7.114 -0.1417 -0.4953 -0.1243
  928YOPE   D3B10595  10.860  14.488   7.421  0.0377 -0.2987  0.1401
  928YOPE   C4B10596  11.022  14.355   7.868 -0.0968 -0.0823 -0.1930
  929YOPE   NH310597   9.558   8.666   6.426  0.3383  0.3067 -0.0427
  929YOPE   PO410598   9.982   8.635   6.300 -0.0597 -0.1009 -0.1222
  929YOPE   GL110599   9.940   8.561   6.804 -0.1955  0.1235  0.2323
  929YOPE   GL210600   9.717   8.768   6.903  0.0707 -0.1913  0.3422
  929YOPE   C1A10601   9.908   8.539   7.297 -0.0631 -0.1708  0.0734
  929YOPE   D2A10602  10.121   8.503   7.754  0.1369  0.2328 -0.1794
  929YOPE   C3A10603  10.111   8.263   8.171 -0.4073  0.0931  0.1277
  929YOPE   C4A10604  10.388   8.035   8.439  0.1615 -0.2323  0.2017
  929YOPE   C1B10605   9.690   8.985   7.242 -0.3908 -0.2044  0.1423
  929YOPE   C2B10606   9.325   9.208   7.464  0.0830  0.1911  0.1204
  929YOPE   D3B10607   9.188   9.373   7.813 -0.0048  0.0177  0.2866
  929YOPE   C4B10608   9.133   9.235   8.298 -0.0232 -0.0705 -0.0932
  930YOPE   NH310609   8.511  18.175   6.077 -0.1747 -0.0946 -0.2460
  930YOPE   PO410610   8.782  17.835   5.716 -0.1624 -0.1704 -0.5621
  930YOPE   GL110611   8.866  17.859   6.182 -0.3824  0.1140 -0.0411
  930YOPE   GL210612   8.860  17.553   6.258  0.4806  0.2477  0.0144
  930YOPE   C1A10613   8.811  17.849   6.642  0.0859  0.1123 -0.3829
  930YOPE   D2A10614   8.607  17.974   7.001 -0.3269 -0.1679  0.0245
  930YOPE   C3A10615   8.726  18.048   7.495 -0.2249  0.1365 -0.1656
  930YOPE   C4A10616   8.847  17.729   7.743  0.0709 -0.1959  0.0228
  930YOPE   C1B10617   8.733  17.331   6.522 -0.0537  0.0039 -0.1455
  930YOPE   C2B10618   8.617  17.428   6.970 -0.0861  0.1984  0.1294
  930YOPE   D3B10619   8.499  17.544   7.434 -0.0929  0.2070 -0.0697
  930YOPE   C4B10620   8.316  17.801   7.800 -0.2907  0.1036 -0.1515
  931YOPE   NH310621   5.230   2.203   6.177  0.1402 -0.0557  0.1967
  931YOPE   PO410622   4.972   1.827   6.264  0.0938 -0.1805 -0.1047
  931YOPE   GL110623   5.268   1.956   6.589 -0.1516  0.0790  0.0836
  931YOPE   GL210624   5.412   2.298   6.681  0.2406  0.2660 -0.0951
  931YOPE   C1A10625   5.514   1.928   7.012  0.2596  0.2991  0.0261
  931YOPE   D2A10626   5.681   1.795   7.303 -0.0409  0.0735  0.1592
  931YOPE   C3A10627   5.961   1.816   7.584 -0.0485  0.1424 -0.2355
  931YOPE   C4A10628   5.800   1.717   8.054  0.2310  0.1659 -0.0083
  931YOPE   C1B10629   5.457   2.569   7.037 -0.2730  0.0033 -0.3685
  931YOPE   C2B10630   5.449   2.742   7.526  0.2828 -0.2424 -0.1092
  931YOPE   D3B10631   5.761   2.906   7.771 -0.0209  0.2246  0.3594
  931YOPE   C4B10632   5.954   3.302   7.831 -0.0928  0.0871  0.1293
  932YOPE   NH310633   2.830  12.266   6.252  0.3008  0.0678 -0.0055
  932YOPE   PO410634   3.101  11.956   6.382 -0.1559 -0.1400 -0.0310
  932YOPE   GL110635   2.989  11.877   6.816 -0.3339 -0.0677 -0.1601
  932YOPE   GL210636   3.012  11.600   6.915 -0.1551  0.1403  0.0370
  932YOPE   C1A10637   2.746  11.989   7.225 -0.0479  0.2897 -0.0675
  932YOPE   D2A10638   2.666  12.187   7.675  0.0227 -0.0002  0.2359
  932YOPE   C3A10639   2.817  11.793   7.865  0.1666  0.2747 -0.1034
  932YOPE   C4A10640   2.764  11.399   8.143 -0.1446  0.0733 -0.0100
  932YOPE   C1B10641   2.920  11.544   7.395  0.2615  0.1762  0.0613
  932YOPE   C2B10642   2.569  11.423   7.668  0.3438 -0.0169 -0.1190
  932YOPE   D3B10643   2.279  11.302   8.060 -0.0327  0.0888 -0.0989
  932YOPE   C4B10644   2.014  11.221   8.340 -0.0122  0.0045 -0.2057
  933YOPE   NH310645   2.192  10.429   6.560 -0.2040  0.0121  0.0792
  933YOPE   PO410646   1.926  10.866   6.423  0.2368 -0.0738 -0.2378
  933YOPE   GL110647   1.711  10.853   6.824 -0.1227  0.0175  0.2075
  933YOPE   GL210648   1.935  10.572   6.996  0.1084  0.0468  0.0440
  933YOPE   C1A10649   1.752  10.956   7.279  0.0630  0.1056  0.3751
  933YOPE   D2A10650   1.615  10.941   7.787 -0.0329  0.2648 -0.1400
  933YOPE   C3A10651   1.644  10.538   8.008 -0.2773 -0.1633 -0.1438
  933YOPE   C4A10652   1.879  10.255   8.071  0.4228 -0.3795  0.2082
  933YOPE   C1B10653   2.228  10.597   7.207 -0.3020 -0.2363  0.2484
  933YOPE   C2B10654   2.593  10.366   7.375  0.0811 -0.4850  0.1185
  933YOPE   D3B10655   2.696  10.041   7.605  0.0828  0.1813 -0.0453
  933YOPE   C4B10656   2.446   9.971   7.798 -0.0136  0.2862  0.1569
  934YOPE   NH310657   9.582   2.519   5.944 -0.0703  0.1237 -0.0892
  934YOPE   PO410658   9.516   2.092   5.942 -0.0149 -0.3777  0.0431
  934YOPE   GL110659   9.570   2.180   6.424  0.1696  0.1747 -0.0372
  934YOPE   GL210660   9.709   2.468   6.511  0.1421 -0.0302 -0.2953
  934YOPE   C1A10661   9.560   2.101   6.872 -0.0679  0.1413  0.1852
  934YOPE   D2A10662   9.828   2.247   7.120  0.1298 -0.2152 -0.0158
  934YOPE   C3A10663   9.830   2.405   7.526  0.0723  0.0315  0.2921
  934YOPE   C4A10664   9.707   2.646   7.876 -0.3252 -0.1125  0.0818
  934YOPE   C1B10665   9.739   2.680   6.964 -0.0080  0.0355  0.0929
  934YOPE   C2B10666   9.754   2.810   7.250 -0.3619 -0.0204  0.2486
  934YOPE   D3B10667   9.949   3.013   7.570 -0.0091  0.0287 -0.1409
  934YOPE   C4B10668   9.923   3.280   7.896 -0.0354  0.0834 -0.3486
  935YOPE   NH310669  15.048   0.211   6.308  0.0447 -0.1213  0.1328
  935YOPE   PO410670  14.763   0.049   6.364 -0.0625  0.2893  0.0460
  935YOPE   GL110671  14.896   0.142   6.790  0.0154 -0.0136  0.1873
  935YOPE   GL210672  14.884   0.457   6.804  0.3182 -0.0207 -0.1278
  935YOPE   C1A10673  14.817  -0.050   7.149  0.0333 -0.1505 -0.1186
  935YOPE   D2A10674  14.806   0.054   7.512  0.0079  0.0420  0.0201
  935YOPE   C3A10675  14.612  -0.165   7.787  0.0245  0.1153  0.0969
  935YOPE   C4A10676  14.372  -0.446   8.101  0.1291 -0.2628 -0.1407
  935YOPE   C1B10677  14.894   0.643   7.243 -0.0882 -0.0983 -0.1340
  935YOPE   C2B10678  15.028   0.677   7.735 -0.2141  0.3706 -0.0828
  935YOPE   D3B10679  15.058   0.745   8.088 -0.1723 -0.0038 -0.0353
  935YOPE   C4B10680  15.016   0.736   8.493 -0.2743  0.1091  0.3365
  936YOPE   NH310681  17.245   8.091   6.646 -0.1377 -0.2607 -0.1531
  936YOPE   PO410682  17.656   8.204   6.464  0.0959 -0.0811 -0.0674
  936YOPE   GL110683  17.969   8.237   6.705 -0.1854 -0.2861  0.3175
  936YOPE   GL210684  18.136   8.570   6.788  0.1566 -0.4465  0.1779
  936YOPE   C1A10685  18.119   8.178   7.119 -0.1339 -0.1295  0.0860
  936YOPE   D2A10686  18.041   8.152   7.558 -0.3968  0.0525  0.2773
  936YOPE   C3A10687  17.871   7.861   7.892 -0.4727 -0.1477 -0.1844
  936YOPE   C4A10688  17.645   7.872   8.231 -0.1946 -0.1559  0.3611
  936YOPE   C1B10689  17.888   8.762   7.104 -0.1618  0.1129 -0.1911
  936YOPE   C2B10690  18.035   8.717   7.499 -0.3760 -0.2080  0.2553
  936YOPE   D3B10691  17.926   8.442   7.928 -0.1107  0.1270 -0.3146
  936YOPE   C4B10692  17.908   8.269   8.401  0.2783  0.0360 -0.2692
  937YOPE   NH310693   4.958   9.581   6.274  0.2526 -0.3343  0.1495
  937YOPE   PO410694   5.274   9.921   6.403  0.0137 -0.1478  0.0731
  937YOPE   GL110695   5.097   9.684   6.744  0.2034  0.1813 -0.0202
  937YOPE   GL210696   4.880   9.675   6.997 -0.1252  0.0858 -0.1183
  937YOPE   C1A10697   5.312   9.350   6.966  0.2389 -0.0862 -0.1259
  937YOPE   D2A10698   5.495   9.266   7.397 -0.0783 -0.0708 -0.0009
  937YOPE   C3A10699   5.643   8.928   7.740  0.2061  0.0432 -0.1202
  937YOPE   C4A10700   5.542   8.656   8.046  0.0901  0.2070 -0.3107
  937YOPE   C1B10701   5.041   9.600   7.362  0.3623 -0.1242 -0.1568
  937YOPE   C2B10702   5.187   9.396   7.762 -0.0831 -0.0974  0.1064
  937YOPE   D3B10703   5.456   9.224   8.060  0.1966 -0.2003 -0.1641
  937YOPE   C4B10704   5.791   8.998   8.241 -0.1376  0.4852  0.2053
  938YOPE   NH310705   2.313  12.917   6.137  0.3071  0.2624  0.1506
  938YOPE   PO410706   2.658  13.131   6.288 -0.2602 -0.0138 -0.1465
  938YOPE   GL110707   2.476  13.123   6.721 -0.1534  0.1071 -0.2118
  938YOPE   GL210708   2.278  13.289   6.943  0.2291  0.0807 -0.0907
  938YOPE   C1A10709   2.613  12.871   6.990  0.1184  0.0512  0.1666
  938YOPE   D2A10710   2.670  12.798   7.408 -0.1339  0.1216  0.0430
  938YOPE   C3A10711   2.672  12.684   7.848 -0.0138 -0.2180 -0.1128
  938YOPE   C4A10712   2.437  12.715   8.298  0.0208  0.0814  0.2357
  938YOPE   C1B10713   2.349  13.160   7.311 -0.0478 -0.1036 -0.0858
  938YOPE   C2B10714   2.179  13.017   7.725 -0.2619 -0.1281 -0.2560
  938YOPE   D3B10715   2.068  13.003   8.111  0.1536  0.0040 -0.0029
  938YOPE   C4B10716   1.970  13.268   8.480 -0.3003 -0.0250 -0.0682
  939POPC   NC310717   6.154   2.150   5.741  0.0494  0.0209 -0.1061
  939POPC   PO410718   5.797   2.215   5.919  0.0701 -0.0046  0.1589
  939POPC   GL110719   5.655   2.448   6.280  0.1971  0.0728  0.1775
  939POPC   GL210720   5.692   2.782   6.372  0.0372  0.0449 -0.1012
  939POPC   C1A10721   5.937   2.419   6.674  0.0898  0.0679  0.0341
  939POPC   D2A10722   5.971   2.337   7.083  0.0016  0.2602  0.0465
  939POPC   C3A10723   5.718   2.282   7.464  0.0804 -0.1003 -0.0743
  939POPC   C4A10724   5.619   2.317   7.905  0.1865  0.0881 -0.0135
  939POPC   C1B10725   5.852   2.900   6.674 -0.0249 -0.1634 -0.0453
  939POPC   C2B10726   6.181   3.022   6.872 -0.3675 -0.1767  0.2327
  939POPC   C3B10727   6.278   3.464   6.871  0.2613  0.0607 -0.0484
  939POPC   C4B10728   6.206   3.822   7.201  0.0828 -0.1556  0.0144
  940POPC   NC310729  17.098  11.323   6.363 -0.3779 -0.0009 -0.3260
  940POPC   PO410730  17.370  11.205   6.761 -0.2291  0.2057 -0.3676
  940POPC   GL110731  17.468  11.216   7.194 -0.0638 -0.2843  0.0402
  940POPC   GL210732  17.251  11.235   7.394 -0.0143 -0.0916 -0.1515
  940POPC   C1A10733  17.770  11.064   7.575  0.4391 -0.2219 -0.0106
  940POPC   D2A10734  18.035  11.149   7.926  0.1892  0.1454  0.0734
  940POPC   C3A10735  17.963  11.223   8.387  0.1280  0.1444  0.1895
  940POPC   C4A10736  17.606  11.276   8.614 -0.1653 -0.0996  0.1424
  940POPC   C1B10737  16.900  11.386   7.357  0.1884 -0.1411 -0.0834
  940POPC   C2B10738  16.524  11.394   7.570 -0.0297 -0.2333  0.0520
  940POPC   C3B10739  16.373  11.353   8.009 -0.0644  0.2286  0.0049
  940POPC   C4B10740  16.336  11.139   8.401  0.1804 -0.0146 -0.3268
  941POPC   NC310741   4.126   0.546   6.103  0.1319 -0.0324 -0.3341
  941POPC   PO410742   3.816   0.958   6.162 -0.3323 -0.1927 -0.0290
  941POPC   GL110743   3.882   1.045   6.593  0.2930 -0.1521 -0.1067
  941POPC   GL210744   3.657   0.908   6.781  0.1099 -0.0281  0.2077
  941POPC   C1A10745   3.944   1.347   6.946 -0.2307 -0.4158 -0.1098
  941POPC   D2A10746   4.006   1.284   7.332  0.0596  0.3494  0.1198
  941POPC   C3A10747   4.270   1.588   7.583 -0.2391  0.0026 -0.0834
  941POPC   C4A10748   4.389   1.519   7.997  0.1305  0.3903  0.3768
  941POPC   C1B10749   3.551   1.074   7.182  0.2095  0.3352  0.1296
  941POPC   C2B10750   3.265   1.222   7.475 -0.0531  0.0773  0.0504
  941POPC   C3B10751   3.093   1.493   7.854 -0.0675 -0.1454 -0.2642
  941POPC   C4B10752   2.872   1.633   8.211 -0.0236 -0.3189  0.0921
  942POPC   NC310753   6.062   0.924   5.751 -0.1180 -0.1144  0.1977
  942POPC   PO410754   6.485   0.776   5.977  0.0426 -0.0155  0.1227
  942POPC   GL110755   6.694   1.006   6.392  0.0501  0.0017  0.0338
  942POPC   GL210756   6.671   1.326   6.445 -0.0849 -0.0329  0.1575
  942POPC   C1A10757   6.848   1.092   6.834  0.2429 -0.1223 -0.1690
  942POPC   D2A10758   6.946   1.141   7.214 -0.3550  0.1654  0.0646
  942POPC   C3A10759   7.082   0.951   7.596 -0.2548  0.1569  0.0315
  942POPC   C4A10760   7.332   0.885   7.995  0.0932 -0.1981  0.1589
  942POPC   C1B10761   6.446   1.468   6.866 -0.0781  0.0610 -0.2802
  942POPC   C2B10762   6.646   1.635   7.283  0.0405  0.0544  0.0621
  942POPC   C3B10763   6.591   1.881   7.720  0.0107  0.1481 -0.2465
  942POPC   C4B10764   6.525   2.150   7.937  0.1265  0.2509  0.0837
  943POPC   NC310765  16.662   6.402   6.022  0.2302  0.1014 -0.0365
  943POPC   PO410766  16.938   6.351   6.333 -0.0799  0.1958 -0.1160
  943POPC   GL110767  16.957   6.127   6.704 -0.0233 -0.1595 -0.0290
  943POPC   GL210768  17.124   5.904   6.679 -0.0641  0.3298  0.1397
  943POPC   C1A10769  16.847   6.235   7.121 -0.2995  0.2166 -0.0011
  943POPC   D2A10770  16.981   6.231   7.544 -0.0436 -0.1435  0.0621
  943POPC   C3A10771  16.767   5.988   7.699  0.1560 -0.1686 -0.0552
  943POPC   C4A10772  16.354   5.979   7.861  0.1050 -0.0131  0.0414
  943POPC   C1B10773  16.862   5.702   7.076  0.2079  0.2152 -0.0324
  943POPC   C2B10774  16.629   5.553   7.542  0.0942 -0.0351 -0.2287
  943POPC   C3B10775  16.329   5.348   7.750 -0.0443 -0.2042 -0.0721
  943POPC   C4B10776  16.124   5.008   7.966  0.1435 -0.1724  0.1599
  944POPC   NC310777  10.697   7.663   5.657  0.3766 -0.1039  0.0525
  944POPC   PO410778  10.983   7.709   6.017  0.0352  0.0542 -0.0440
  944POPC   GL110779  10.957   7.733   6.544 -0.0765 -0.1678  0.0655
  944POPC   GL210780  10.671   7.711   6.678  0.0447  0.0009  0.2854
  944POPC   C1A10781  11.220   7.954   6.827  0.0787  0.0221 -0.0350
  944POPC   D2A10782  11.281   8.042   7.205  0.2232  0.1935  0.0096
  944POPC   C3A10783  11.543   7.658   7.441  0.0741  0.2604  0.0691
  944POPC   C4A10784  11.742   7.778   7.749 -0.1126 -0.2942  0.0082
  944POPC   C1B10785  10.775   7.752   7.113 -0.1899  0.0978  0.1680
  944POPC   C2B10786  10.665   7.609   7.464 -0.1494  0.0818  0.0488
  944POPC   C3B10787  10.518   7.369   7.609 -0.2453  0.0444 -0.3930
  944POPC   C4B10788  10.400   7.099   7.908  0.2299  0.0201  0.0078
  945POPC   NC310789  16.215   3.158   5.797 -0.1850 -0.0382 -0.3622
  945POPC   PO410790  15.827   3.410   5.661  0.0910  0.1098  0.1044
  945POPC   GL110791  15.639   3.285   6.071  0.1669  0.2882 -0.0427
  945POPC   GL210792  15.518   3.624   6.092 -0.0430 -0.0247  0.1430
  945POPC   C1A10793  15.508   3.055   6.451  0.2936 -0.0711  0.1527
  945POPC   D2A10794  15.772   2.814   6.698 -0.2280 -0.1183  0.3413
  945POPC   C3A10795  15.564   2.892   7.137  0.1234  0.1752 -0.0244
  945POPC   C4A10796  15.548   3.205   7.531  0.1885 -0.2034 -0.2651
  945POPC   C1B10797  15.371   3.540   6.558 -0.1114 -0.2483 -0.1429
  945POPC   C2B10798  15.280   3.231   6.924 -0.0337 -0.0053 -0.1148
  945POPC   C3B10799  15.061   3.016   7.404  0.0161  0.0324  0.2818
  945POPC   C4B10800  14.943   2.649   7.718 -0.2497 -0.1493  0.1278
  946POPC   NC310801  13.152  18.127   6.016 -0.2854 -0.0070  0.0228
  946POPC   PO410802  12.688  18.008   6.056  0.0945  0.2404 -0.0674
  946POPC   GL110803  12.471  17.699   6.278  0.1730 -0.0783 -0.2856
  946POPC   GL210804  12.363  17.487   6.461  0.0866  0.0890  0.3684
  946POPC   C1A10805  12.281  17.917   6.674 -0.2218 -0.1486  0.0361
  946POPC   D2A10806  12.238  17.819   7.078  0.1037  0.0279 -0.2134
  946POPC   C3A10807  12.110  18.070   7.479 -0.0556  0.0559  0.0964
  946POPC   C4A10808  12.102  18.466   7.730 -0.1368 -0.0642 -0.0421
  946POPC   C1B10809  12.566  17.537   6.950  0.2415  0.4209  0.1043
  946POPC   C2B10810  12.485  17.424   7.352  0.0367  0.2375  0.2819
  946POPC   C3B10811  12.387  17.207   7.688  0.2309 -0.3542  0.1571
  946POPC   C4B10812  12.443  17.038   8.037 -0.0336 -0.0426 -0.2718
  947POPC   NC310813  15.959  14.882   6.581 -0.4218  0.2766  0.0965
  947POPC   PO410814  16.036  15.374   6.573  0.0019  0.0019  0.4093
  947POPC   GL110815  16.192  15.480   6.954  0.0125 -0.0224  0.0752
  947POPC   GL210816  16.398  15.206   7.102  0.0310 -0.1317 -0.1814
  947POPC   C1A10817  16.283  15.634   7.350  0.0311  0.4501 -0.0872
  947POPC   D2A10818  16.012  15.631   7.776 -0.0941 -0.2524  0.0455
  947POPC   C3A10819  15.643  15.775   7.728 -0.0633  0.0452 -0.3494
  947POPC   C4A10820  15.216  15.899   7.965 -0.1105 -0.1511 -0.0037
  947POPC   C1B10821  16.249  15.088   7.507 -0.1074  0.0780 -0.4756
  947POPC   C2B10822  16.082  14.836   7.846 -0.0324 -0.1968  0.0993
  947POPC   C3B10823  16.073  14.685   8.310  0.2773 -0.0058 -0.1462
  947POPC   C4B10824  16.335  14.699   8.621 -0.2587  0.3841 -0.1377
  948POPC   NC310825   2.204   0.573   6.433  0.0071  0.0532 -0.0212
  948POPC   PO410826   2.179   1.099   6.527 -0.1136  0.2186  0.1054
  948POPC   GL110827   2.086   1.240   6.855  0.1811  0.1515  0.0690
  948POPC   GL210828   1.834   1.125   7.031  0.5486  0.0577 -0.1187
  948POPC   C1A10829   1.920   1.535   7.198 -0.1842  0.3597 -0.0748
  948POPC   D2A10830   2.098   1.494   7.632 -0.1101 -0.1966 -0.0235
  948POPC   C3A10831   1.919   1.710   7.908  0.0351  0.1669 -0.0388
  948POPC   C4A10832   2.076   1.679   8.315  0.0988 -0.0961  0.1997
  948POPC   C1B10833   1.774   1.145   7.492 -0.2055  0.1732 -0.0798
  948POPC   C2B10834   1.823   1.226   7.953 -0.0656 -0.0098  0.0183
  948POPC   C3B10835   2.287   1.338   8.049  0.1333  0.1111 -0.1057
  948POPC   C4B10836   2.640   1.222   7.956  0.2541  0.1527 -0.0837
  949POPC   NC310837   6.101   0.425   6.207 -0.1566  0.2068 -0.1099
  949POPC   PO410838   5.787   0.717   6.270 -0.0039  0.0511  0.1785
  949POPC   GL110839   6.100   0.828   6.610  0.2860  0.0344 -0.2636
  949POPC   GL210840   6.358   1.012   6.744  0.1324  0.1836 -0.1873
  949POPC   C1A10841   5.983   0.772   7.008 -0.1758 -0.2620  0.0163
  949POPC   D2A10842   6.100   0.893   7.491 -0.0459  0.2126 -0.2048
  949POPC   C3A10843   6.001   0.768   7.907  0.1647  0.0067  0.1203
  949POPC   C4A10844   6.317   0.670   8.265 -0.5514  0.2333  0.2156
  949POPC   C1B10845   6.450   0.998   7.177 -0.1779 -0.1391 -0.0665
  949POPC   C2B10846   6.586   0.967   7.566 -0.0635  0.0705  0.1284
  949POPC   C3B10847   6.469   0.615   7.827 -0.2217 -0.0113  0.0335
  949POPC   C4B10848   6.598   0.198   7.987 -0.1212  0.0048 -0.2643
  950POPC   NC310849   3.231  13.839   6.552  0.1459  0.0848  0.0352
  950POPC   PO410850   3.284  13.429   6.471  0.2237  0.0135  0.0762
  950POPC   GL110851   3.255  13.446   6.931 -0.0246  0.0266  0.2847
  950POPC   GL210852   3.540  13.328   6.926 -0.0177 -0.1458 -0.2530
  950POPC   C1A10853   3.301  13.406   7.321 -0.0811 -0.2724  0.1245
  950POPC   D2A10854   3.218  13.453   7.862  0.0178 -0.1170 -0.1000
  950POPC   C3A10855   3.139  13.254   8.203 -0.2128 -0.1067  0.0975
  950POPC   C4A10856   2.914  12.885   8.218 -0.2594 -0.2966  0.2823
  950POPC   C1B10857   3.817  13.334   7.303  0.0572 -0.1114 -0.3064
  950POPC   C2B10858   3.778  13.242   7.709  0.1836  0.2165 -0.2339
  950POPC   C3B10859   3.600  13.034   8.048  0.0155  0.1011 -0.0617
  950POPC   C4B10860   3.445  12.948   8.392 -0.0025 -0.0275  0.0165
  951POPC   NC310861  18.062   2.971   5.839 -0.2523 -0.1545 -0.1090
  951POPC   PO410862  17.869   3.013   6.207 -0.2150 -0.2284  0.2696
  951POPC   GL110863  17.635   3.007   6.535 -0.0734  0.0829  0.1563
  951POPC   GL210864  17.295   3.152   6.671 -0.0713 -0.2350  0.1470
  951POPC   C1A10865  17.607   2.853   6.963 -0.2990 -0.1872 -0.1432
  951POPC   D2A10866  17.617   2.844   7.397 -0.1127 -0.2411 -0.1640
  951POPC   C3A10867  17.761   2.970   7.762  0.2276 -0.1461  0.1119
  951POPC   C4A10868  18.162   2.876   7.966  0.2367 -0.2187 -0.2722
  951POPC   C1B10869  17.287   3.185   7.149  0.0833  0.2319  0.1373
  951POPC   C2B10870  17.126   3.218   7.600 -0.0753  0.1795  0.1255
  951POPC   C3B10871  17.053   2.983   8.111 -0.0969 -0.1911  0.0127
  951POPC   C4B10872  17.056   2.547   8.299 -0.0650  0.0742  0.0747
  952POPC   NC310873  15.719  13.862   5.593 -0.2349 -0.3043  0.0147
  952POPC   PO410874  15.625  13.915   6.089  0.1219  0.2767  0.0466
  952POPC   GL110875  15.572  14.012   6.546  0.1596  0.3461  0.1101
  952POPC   GL210876  15.396  14.207   6.643 -0.2576 -0.0883  0.0508
  952POPC   C1A10877  15.555  13.705   6.846  0.4308  0.2879  0.0099
  952POPC   D2A10878  15.618  13.611   7.192  0.2976 -0.0405 -0.2255
  952POPC   C3A10879  15.563  13.709   7.601 -0.1148  0.0758 -0.0381
  952POPC   C4A10880  15.666  13.808   8.065 -0.0147  0.0710 -0.2927
  952POPC   C1B10881  15.171  13.920   6.944 -0.1250 -0.0787  0.0033
  952POPC   C2B10882  15.041  13.791   7.447  0.0581  0.3155  0.1345
  952POPC   C3B10883  15.098  13.680   7.800  0.1252  0.2481  0.1622
  952POPC   C4B10884  15.032  13.768   8.253 -0.1273 -0.2396 -0.4880
  953POPC   NC310885  13.266   8.258   5.446 -0.1253 -0.1953  0.1000
  953POPC   PO410886  13.117   8.379   5.871  0.2082 -0.0900 -0.2214
  953POPC   GL110887  13.117   8.337   6.321  0.0963 -0.0284 -0.0701
  953POPC   GL210888  13.444   8.176   6.447  0.1515 -0.0661 -0.1234
  953POPC   C1A10889  13.124   8.477   6.745  0.0992 -0.1286  0.0493
  953POPC   D2A10890  13.097   8.499   7.159  0.0064 -0.2430  0.1683
  953POPC   C3A10891  13.439   8.465   7.378  0.3093  0.1778  0.0431
  953POPC   C4A10892  13.383   8.306   7.776 -0.1266 -0.1304  0.0592
  953POPC   C1B10893  13.581   8.144   6.877  0.0134 -0.1252 -0.0359
  953POPC   C2B10894  13.513   7.999   7.331  0.3255 -0.2029 -0.4042
  953POPC   C3B10895  13.543   7.725   7.721  0.0176 -0.2090 -0.0657
  953POPC   C4B10896  13.606   7.659   8.163  0.0249  0.0936 -0.2795
  954POPC   NC310897   9.286   5.465   5.620 -0.1735 -0.1703 -0.3103
  954POPC   PO410898   9.665   5.523   5.832 -0.1093 -0.2432 -0.1427
  954POPC   GL110899   9.717   5.453   6.313  0.1123  0.1308 -0.0215
  954POPC   GL210900  10.028   5.490   6.477  0.0639  0.1486 -0.0310
  954POPC   C1A10901   9.467   5.077   6.566  0.0423 -0.0748 -0.0382
  954POPC   D2A10902   9.322   5.163   6.937 -0.1613 -0.0423 -0.0310
  954POPC   C3A10903   8.891   5.169   6.894  0.0598  0.0401 -0.0641
  954POPC   C4A10904   8.469   5.363   6.772 -0.2391 -0.0685 -0.1032
  954POPC   C1B10905   9.890   5.145   6.823  0.1934  0.2579  0.2356
  954POPC   C2B10906   9.766   4.990   7.205 -0.3162 -0.0715  0.2663
  954POPC   C3B10907   9.781   4.693   7.533 -0.1954 -0.2310  0.0961
  954POPC   C4B10908   9.766   4.385   7.801  0.1714  0.0369 -0.1440
  955POPC   NC310909   0.924  12.837   5.898  0.2056  0.0351 -0.0750
  955POPC   PO410910   0.541  12.782   6.151 -0.1310 -0.1535  0.0001
  955POPC   GL110911   0.467  13.186   6.449 -0.2753 -0.0494 -0.0368
  955POPC   GL210912   0.774  13.349   6.464 -0.0676 -0.0751  0.0853
  955POPC   C1A10913   0.397  13.184   6.839 -0.1181  0.0676 -0.3888
  955POPC   D2A10914   0.589  12.941   7.060  0.0678  0.1195  0.0605
  955POPC   C3A10915   0.541  12.444   7.169  0.0332 -0.1727 -0.2297
  955POPC   C4A10916   0.219  12.289   7.349  0.0439 -0.2010 -0.1423
  955POPC   C1B10917   0.940  13.129   6.770  0.0679  0.0638 -0.0399
  955POPC   C2B10918   1.046  12.729   6.978 -0.4718  0.3125 -0.2060
  955POPC   C3B10919   0.952  12.614   7.433 -0.1993 -0.0900  0.3432
  955POPC   C4B10920   0.951  12.506   7.845  0.3408 -0.0551 -0.1698
  956POPC   NC310921  11.510  13.503   6.004 -0.0741  0.4816 -0.3889
  956POPC   PO410922  11.549  13.069   6.291 -0.1302 -0.1665 -0.0582
  956POPC   GL110923  11.619  12.815   6.714 -0.2035  0.2219  0.1521
  956POPC   GL210924  11.434  12.584   6.666 -0.0534 -0.0405 -0.2762
  956POPC   C1A10925  11.517  12.805   7.156  0.0565  0.2077 -0.0036
  956POPC   D2A10926  11.373  12.808   7.634  0.1381  0.0321 -0.1012
  956POPC   C3A10927  11.638  12.845   7.907  0.3185  0.1235  0.0653
  956POPC   C4A10928  11.647  13.184   8.234 -0.0467  0.0492 -0.2247
  956POPC   C1B10929  11.075  12.664   6.802  0.2615 -0.0312 -0.1056
  956POPC   C2B10930  11.000  12.761   7.181 -0.0057  0.2452  0.2382
  956POPC   C3B10931  10.879  12.619   7.658  0.4838 -0.0728 -0.0974
  956POPC   C4B10932  10.698  12.458   8.045 -0.1359 -0.0098 -0.1313
  957POPC   NC310933  11.411  16.910   5.838 -0.3402 -0.0802  0.1500
  957POPC   PO410934  11.824  16.995   5.924  0.1313  0.1889 -0.3585
  957POPC   GL110935  11.622  16.972   6.272 -0.1095 -0.1695 -0.0112
  957POPC   GL210936  11.573  16.641   6.307  0.2260 -0.3501  0.1390
  957POPC   C1A10937  11.593  17.045   6.686  0.3173  0.0618 -0.1434
  957POPC   D2A10938  11.769  17.228   7.086  0.0114  0.1467 -0.0958
  957POPC   C3A10939  12.150  17.003   7.309  0.0406  0.0189  0.0865
  957POPC   C4A10940  12.321  16.678   7.684  0.1542 -0.0381 -0.0908
  957POPC   C1B10941  11.360  16.437   6.674 -0.2557 -0.0974  0.2708
  957POPC   C2B10942  11.165  16.594   6.954  0.0478  0.0384 -0.0407
  957POPC   C3B10943  11.366  16.874   7.112  0.0039 -0.2450  0.0764
  957POPC   C4B10944  11.374  17.194   7.510 -0.2487  0.1566  0.0624
  958POPC   NC310945  15.816  18.088   6.228  0.0768 -0.0313 -0.1139
  958POPC   PO410946  15.591  17.916   6.690 -0.1275 -0.3948 -0.1355
  958POPC   GL110947  15.322  18.139   6.852 -0.2451  0.0599  0.2235
  958POPC   GL210948  15.402  18.453   6.712 -0.0960 -0.0647  0.0554
  958POPC   C1A10949  15.282  18.323   7.267  0.0650 -0.1333  0.1848
  958POPC   D2A10950  15.302  18.509   7.656 -0.2140  0.1413  0.0354
  958POPC   C3A10951  14.991  18.484   7.966  0.1093 -0.1070  0.2290
  958POPC   C4A10952  15.142  18.553   8.339 -0.0746  0.1830 -0.0275
  958POPC   C1B10953  15.708  18.486   6.978  0.2832 -0.1297  0.0741
  958POPC   C2B10954  15.774  18.497   7.438 -0.0973 -0.1815 -0.1137
  958POPC   C3B10955  15.847  18.593   7.827 -0.0870  0.1286  0.1664
  958POPC   C4B10956  15.521  18.687   8.098 -0.0988 -0.0214  0.1727
  959POPC   NC310957   0.261  13.940   5.910  0.3060  0.0691  0.2532
  959POPC   PO410958   0.605  13.753   6.154 -0.0438  0.0204  0.1211
  959POPC   GL110959   0.640  13.775   6.619  0.0632  0.2159  0.0611
  959POPC   GL210960   0.425  13.978   6.830 -0.0142  0.3018  0.2204
  959POPC   C1A10961   0.726  13.478   6.988  0.3463  0.1284  0.2363
  959POPC   D2A10962   0.974  13.248   7.310  0.1678  0.1419  0.2248
  959POPC   C3A10963   0.787  13.157   7.603  0.1810 -0.1179  0.0300
  959POPC   C4A10964   0.625  12.901   7.960 -0.0203  0.2474 -0.1033
  959POPC   C1B10965   0.501  13.865   7.201 -0.2897 -0.0933  0.1815
  959POPC   C2B10966   0.437  13.508   7.476 -0.0814 -0.1477 -0.2411
  959POPC   C3B10967   0.257  13.315   7.781 -0.2911  0.0571  0.0177
  959POPC   C4B10968   0.011  13.343   8.104  0.3411  0.0301 -0.0763
  960POPC   NC310969   6.656   4.448   5.932 -0.1358 -0.3308 -0.0360
  960POPC   PO410970   6.843   4.124   5.937 -0.5089  0.0907  0.1403
  960POPC   GL110971   7.082   4.156   6.392  0.2840 -0.2007 -0.1210
  960POPC   GL210972   7.411   4.453   6.371  0.3980 -0.0678  0.2225
  960POPC   C1A10973   7.217   4.035   6.811 -0.1916  0.0837  0.1149
  960POPC   D2A10974   7.407   3.925   7.258  0.1426 -0.0446  0.0142
  960POPC   C3A10975   7.723   4.077   7.520 -0.2461  0.2424 -0.2433
  960POPC   C4A10976   7.914   4.303   7.877  0.4441  0.0359  0.0601
  960POPC   C1B10977   7.600   4.416   6.824  0.1935  0.1494  0.1019
  960POPC   C2B10978   7.713   4.487   7.274  0.2236  0.0699  0.0422
  960POPC   C3B10979   7.615   4.614   7.653 -0.1305 -0.0298  0.0819
  960POPC   C4B10980   7.561   4.598   8.090 -0.0391  0.0463 -0.0957
  961POPC   NC310981   7.733   9.840   6.622  0.0971  0.2059  0.0742
  961POPC   PO410982   7.580   9.492   6.750 -0.1003  0.1324  0.0863
  961POPC   GL110983   7.571   9.624   7.198  0.4099 -0.0538 -0.0267
  961POPC   GL210984   7.792   9.762   7.169 -0.2205  0.0371 -0.1343
  961POPC   C1A10985   7.445   9.658   7.707  0.0660  0.0502  0.1763
  961POPC   D2A10986   7.299  10.008   7.809 -0.0475 -0.0432  0.0970
  961POPC   C3A10987   7.564  10.344   8.004  0.2161 -0.0287 -0.1804
  961POPC   C4A10988   7.444  10.474   8.419 -0.1797 -0.2949  0.0637
  961POPC   C1B10989   7.795   9.971   7.539  0.0278 -0.0211  0.2165
  961POPC   C2B10990   7.764   9.894   8.038 -0.3393 -0.1499 -0.2344
  961POPC   C3B10991   7.861   9.897   8.474  0.3580 -0.1919  0.2120
  961POPC   C4B10992   8.188   9.748   8.709 -0.0331 -0.2820 -0.1829
  962POPC   NC310993  15.554  15.381   6.550 -0.2245 -0.1152 -0.0016
  962POPC   PO410994  15.294  15.758   6.564  0.3829  0.1717 -0.1785
  962POPC   GL110995  15.257  15.601   7.006 -0.1532 -0.1704  0.2128
  962POPC   GL210996  14.987  15.439   7.006  0.3821  0.0354  0.2171
  962POPC   C1A10997  15.347  15.341   7.367 -0.2089  0.1480  0.0388
  962POPC   D2A10998  15.221  15.408   7.757  0.2793 -0.3688  0.0083
  962POPC   C3A10999  15.525  15.534   8.127  0.4953  0.3683  0.1236
  962POPC   C4A11000  15.813  15.589   8.430  0.0176  0.0957  0.1363
  962POPC   C1B11001  14.808  15.259   7.363 -0.0616  0.2627  0.0240
  962POPC   C2B11002  14.774  15.110   7.804  0.0435  0.0146 -0.1135
  962POPC   C3B11003  14.701  15.280   8.104  0.1765  0.1397  0.2230
  962POPC   C4B11004  14.989  15.568   8.260  0.0436  0.0881  0.0748
  963POPC   NC311005   3.114  13.127   6.128  0.0677 -0.0592  0.0486
  963POPC   PO411006   3.020  12.727   6.132 -0.0256  0.0559 -0.1633
  963POPC   GL111007   2.879  12.668   6.586  0.3031  0.0842  0.0509
  963POPC   GL211008   2.978  13.058   6.649  0.1473 -0.1718  0.0268
  963POPC   C1A11009   2.973  12.432   6.996  0.1523 -0.0522  0.2130
  963POPC   D2A11010   3.070  12.475   7.464  0.1388  0.1419 -0.3729
  963POPC   C3A11011   3.527  12.582   7.542 -0.1807 -0.0644  0.3301
  963POPC   C4A11012   3.626  12.868   7.391  0.0825 -0.2785  0.1516
  963POPC   C1B11013   3.179  12.908   6.925  0.2264  0.2438  0.3866
  963POPC   C2B11014   3.159  12.922   7.296  0.1674  0.1125 -0.0228
  963POPC   C3B11015   3.128  12.962   7.705 -0.1370 -0.0694 -0.1729
  963POPC   C4B11016   3.302  12.690   8.013  0.1055 -0.0392 -0.4260
  964POPC   NC311017   4.855   5.099   6.214  0.0247  0.4394  0.3248
  964POPC   PO411018   4.381   4.969   6.242  0.0963 -0.1172  0.0111
  964POPC   GL111019   4.532   5.101   6.638 -0.2813 -0.0620 -0.1811
  964POPC   GL211020   4.742   4.914   6.756  0.2813  0.0211  0.0417
  964POPC   C1A11021   4.811   5.433   6.847  0.2370  0.0321  0.3023
  964POPC   D2A11022   5.085   5.458   7.183  0.3110 -0.2532  0.0708
  964POPC   C3A11023   5.113   5.322   7.544  0.1803  0.3389  0.1976
  964POPC   C4A11024   5.300   5.158   7.882 -0.1596  0.0425  0.1354
  964POPC   C1B11025   4.791   5.042   7.181  0.2553 -0.1022 -0.0007
  964POPC   C2B11026   4.386   5.137   7.522 -0.0457  0.0299 -0.0817
  964POPC   C3B11027   4.257   4.878   7.956  0.2075  0.0828  0.0906
  964POPC   C4B11028   4.213   4.491   8.188 -0.0802  0.0999  0.1271
  965POPC   NC311029   3.860   9.846   6.674 -0.0386 -0.0330 -0.3818
  965POPC   PO411030   3.559   9.493   6.725  0.2190 -0.0468 -0.1930
  965POPC   GL111031   3.330   9.682   7.053 -0.0688  0.0301  0.0822
  965POPC   GL211032   3.023   9.495   7.052  0.0605  0.0130  0.1630
  965POPC   C1A11033   3.131   9.760   7.543 -0.1225 -0.0211  0.1946
  965POPC   D2A11034   3.095   9.876   7.848  0.1776  0.0500 -0.0119
  965POPC   C3A11035   3.221   9.812   8.316  0.3151 -0.2817  0.3289
  965POPC   C4A11036   3.615   9.991   8.447 -0.0809 -0.3231  0.0407
  965POPC   C1B11037   3.205   9.290   7.387 -0.2338 -0.0347  0.1356
  965POPC   C2B11038   3.155   9.239   7.766  0.3501 -0.0040  0.0279
  965POPC   C3B11039   3.136   8.899   8.039 -0.1204  0.4647 -0.0265
  965POPC   C4B11040   3.183   8.734   8.380  0.0754 -0.0647 -0.2693
  966POPC   NC311041   8.739   0.703   5.403  0.1735  0.0282  0.0369
  966POPC   PO411042   8.940   0.605   5.866  0.0057 -0.1035  0.0492
  966POPC   GL111043   8.894   0.385   6.306 -0.2525  0.4175  0.1672
  966POPC   GL211044   8.859   0.074   6.392 -0.3278  0.1337 -0.0993
  966POPC   C1A11045   9.047   0.463   6.636  0.2761 -0.0916  0.0077
  966POPC   D2A11046   9.329   0.388   6.958 -0.2243  0.0491  0.3298
  966POPC   C3A11047   9.366   0.456   7.481 -0.0818 -0.2886  0.0918
  966POPC   C4A11048   9.664   0.620   7.854  0.1721 -0.1342 -0.2022
  966POPC   C1B11049   9.034   0.015   6.746  0.0508  0.2031  0.2415
  966POPC   C2B11050   9.119  -0.041   7.159 -0.0643 -0.0785  0.1989
  966POPC   C3B11051   9.218  -0.250   7.512  0.2217 -0.1725 -0.1294
  966POPC   C4B11052   9.305  -0.725   7.572  0.0140 -0.0055  0.0239
  967POPC   NC311053   6.033   1.677   6.024 -0.0089 -0.1034 -0.3847
  967POPC   PO411054   6.414   1.968   6.134 -0.1131  0.0917  0.0325
  967POPC   GL111055   6.348   1.964   6.435  0.2076  0.1272  0.0997
  967POPC   GL211056   6.638   1.889   6.661 -0.0921 -0.2144  0.1446
  967POPC   C1A11057   6.106   1.888   6.782  0.1609 -0.1871 -0.3568
  967POPC   D2A11058   6.178   1.836   7.191 -0.0956 -0.2419 -0.1438
  967POPC   C3A11059   6.335   2.160   7.453  0.1732 -0.0344  0.0573
  967POPC   C4A11060   6.080   2.534   7.736 -0.2253  0.2960  0.1724
  967POPC   C1B11061   6.745   2.078   7.102 -0.1140 -0.1176  0.4721
  967POPC   C2B11062   6.723   2.400   7.506  0.0528 -0.0841 -0.1181
  967POPC   C3B11063   6.618   2.684   7.904  0.1730 -0.0764  0.0842
  967POPC   C4B11064   6.296   2.939   8.121 -0.2553 -0.0790 -0.4190
  968POPC   NC311065  17.252  16.573   6.059  0.1753 -0.0576  0.2038
  968POPC   PO411066  17.183  16.909   6.396  0.2698  0.0057  0.1827
  968POPC   GL111067  17.171  16.855   6.802 -0.0163 -0.2539 -0.0013
  968POPC   GL211068  17.248  17.058   7.036 -0.1618  0.2333 -0.0732
  968POPC   C1A11069  17.362  16.637   7.216 -0.0726 -0.0858 -0.0631
  968POPC   D2A11070  17.454  16.616   7.614  0.0013 -0.1908  0.0267
  968POPC   C3A11071  17.280  16.653   8.004  0.1735  0.1508  0.0393
  968POPC   C4A11072  16.906  16.759   8.263 -0.0336 -0.2007  0.0451
  968POPC   C1B11073  17.118  17.010   7.487  0.0159  0.1180  0.0926
  968POPC   C2B11074  17.057  17.054   7.836 -0.2007 -0.1185 -0.2559
  968POPC   C3B11075  17.210  17.194   8.335  0.0079 -0.0361 -0.0118
  968POPC   C4B11076  17.025  16.961   8.740  0.0999 -0.0202  0.2452
  969POPC   NC311077   7.158  16.397   5.779 -0.2796 -0.0822 -0.1385
  969POPC   PO411078   7.203  16.807   5.852 -0.1804  0.3372  0.1075
  969POPC   GL111079   7.425  16.563   6.192 -0.0914 -0.0642 -0.0409
  969POPC   GL211080   7.750  16.547   6.257  0.3119 -0.1035 -0.0049
  969POPC   C1A11081   7.433  16.179   6.483  0.1250  0.0246 -0.0683
  969POPC   D2A11082   7.570  16.029   6.855 -0.0884  0.1195 -0.1381
  969POPC   C3A11083   7.681  16.131   7.244  0.1018 -0.0205  0.0130
  969POPC   C4A11084   7.980  16.009   7.586  0.2775 -0.1777  0.2884
  969POPC   C1B11085   7.888  16.601   6.663  0.0195  0.4898 -0.2961
  969POPC   C2B11086   7.920  16.643   7.223 -0.0536 -0.1323 -0.0522
  969POPC   C3B11087   7.860  16.510   7.649 -0.1162  0.1985  0.0670
  969POPC   C4B11088   8.058  16.395   7.930 -0.1510 -0.0849  0.4105
  970POPC   NC311089   1.060   1.599   5.974  0.0515  0.2420  0.0183
  970POPC   PO411090   1.442   1.717   6.298  0.1077 -0.3182 -0.0816
  970POPC   GL111091   1.236   1.638   6.761 -0.0262 -0.1377 -0.0840
  970POPC   GL211092   1.343   1.345   6.921 -0.2700 -0.2072 -0.0579
  970POPC   C1A11093   0.807   1.644   6.855  0.0669 -0.1539  0.2285
  970POPC   D2A11094   0.523   1.825   7.163 -0.1828  0.2780  0.0824
  970POPC   C3A11095   0.591   1.827   7.539 -0.3362 -0.0801  0.0230
  970POPC   C4A11096   0.599   1.841   7.942 -0.0975 -0.0514 -0.1037
  970POPC   C1B11097   1.336   1.495   7.311 -0.1321  0.0765  0.1204
  970POPC   C2B11098   1.408   1.582   7.817  0.0814 -0.1997  0.1742
  970POPC   C3B11099   1.582   1.613   8.250  0.2609  0.0116 -0.3239
  970POPC   C4B11100   1.543   1.696   8.672 -0.1883  0.0674 -0.1471
  971POPC   NC311101   9.848   0.946   5.658  0.2320  0.0374 -0.1300
  971POPC   PO411102   9.840   1.192   6.116  0.0723  0.1591 -0.2935
  971POPC   GL111103   9.658   1.004   6.412 -0.0185  0.0422  0.0676
  971POPC   GL211104   9.488   0.734   6.413  0.2548  0.0659  0.2266
  971POPC   C1A11105   9.619   1.195   6.809 -0.0444  0.1698 -0.0566
  971POPC   D2A11106   9.509   1.405   7.244  0.3176  0.0964 -0.1380
  971POPC   C3A11107   9.563   1.405   7.678  0.2012  0.0127  0.3064
  971POPC   C4A11108   9.681   1.518   7.939  0.2482 -0.0927 -0.0190
  971POPC   C1B11109   9.688   0.701   6.806 -0.2393 -0.2841  0.1048
  971POPC   C2B11110   9.765   0.614   7.218  0.0401  0.2561  0.0322
  971POPC   C3B11111  10.087   0.425   7.569 -0.0787  0.0496  0.1016
  971POPC   C4B11112  10.437   0.254   7.729 -0.4509  0.0060 -0.3670
  972POPC   NC311113  17.859  16.161   6.568 -0.0774  0.1386  0.0185
  972POPC   PO411114  17.601  15.808   6.509 -0.0097 -0.3849 -0.2046
  972POPC   GL111115  17.567  15.586   6.955 -0.2124 -0.3359 -0.0737
  972POPC   GL211116  17.208  15.406   7.061  0.1406 -0.0358 -0.0520
  972POPC   C1A11117  17.657  15.183   7.134  0.1437 -0.2719  0.3357
  972POPC   D2A11118  17.430  14.944   7.460 -0.1584  0.0300 -0.1640
  972POPC   C3A11119  17.341  14.996   7.855 -0.0519 -0.1041 -0.0942
  972POPC   C4A11120  17.032  14.742   8.023  0.4427  0.0723  0.0670
  972POPC   C1B11121  17.303  15.459   7.462  0.0205  0.2211  0.3473
  972POPC   C2B11122  17.063  15.377   7.779  0.0114 -0.0247 -0.2381
  972POPC   C3B11123  17.028  15.284   8.149  0.1617 -0.1508 -0.1678
  972POPC   C4B11124  16.682  15.468   8.493  0.0719  0.1132  0.0319
  973POPC   NC311125   0.020  10.314   6.144 -0.1294 -0.0279  0.1662
  973POPC   PO411126   0.127  10.017   6.399 -0.0412 -0.0851 -0.0166
  973POPC   GL111127   0.040   9.975   6.821 -0.3107 -0.0699 -0.1262
  973POPC   GL211128   0.353   9.980   7.034  0.1680  0.0858  0.0452
  973POPC   C1A11129  -0.187  10.112   7.180  0.2040  0.1797 -0.2838
  973POPC   D2A11130  -0.174   9.854   7.558 -0.4997 -0.4105  0.2026
  973POPC   C3A11131  -0.398   9.963   7.896  0.1095  0.1783 -0.1732
  973POPC   C4A11132  -0.560   9.921   8.291 -0.4980  0.0093  0.1391
  973POPC   C1B11133   0.293  10.036   7.492  0.1496 -0.0560  0.2101
  973POPC   C2B11134   0.436   9.960   7.827  0.1188  0.2112  0.1083
  973POPC   C3B11135   0.414  10.184   8.179 -0.0815  0.1462 -0.0318
  973POPC   C4B11136   0.228  10.349   8.523  0.0316 -0.2253  0.0605
  974POPC   NC311137  12.772   1.265   6.347 -0.1759 -0.1539 -0.0271
  974POPC   PO411138  12.481   1.715   6.203  0.0665  0.2214 -0.0091
  974POPC   GL111139  12.274   1.948   6.401  0.0506  0.2047 -0.2187
  974POPC   GL211140  12.169   2.329   6.452 -0.0368  0.3144  0.1629
  974POPC   C1A11141  12.264   1.962   6.815 -0.1089  0.0683 -0.0184
  974POPC   D2A11142  12.250   1.925   7.256 -0.2572  0.0321 -0.3276
  974POPC   C3A11143  12.369   1.973   7.714  0.1431 -0.0096 -0.0714
  974POPC   C4A11144  12.367   2.059   8.194 -0.0498  0.0977 -0.1142
  974POPC   C1B11145  12.247   2.479   6.891  0.0963 -0.0813  0.2703
  974POPC   C2B11146  12.376   2.456   7.301  0.0208 -0.4145  0.1962
  974POPC   C3B11147  12.671   2.501   7.606 -0.0097 -0.2099  0.2033
  974POPC   C4B11148  12.672   2.450   8.092  0.0292 -0.0187 -0.0518
  975POPC   NC311149  16.477  16.074   6.222  0.1681 -0.2290  0.2213
  975POPC   PO411150  16.396  16.314   6.588  0.0200 -0.1907 -0.1081
  975POPC   GL111151  16.223  16.381   6.988  0.1404 -0.3301 -0.0871
  975POPC   GL211152  16.101  16.131   7.078 -0.1414  0.1915  0.2304
  975POPC   C1A11153  16.395  16.414   7.380  0.1848  0.1053 -0.3027
  975POPC   D2A11154  16.284  16.511   7.750  0.0096  0.1895  0.2776
  975POPC   C3A11155  16.123  16.213   7.998  0.0235 -0.1292  0.0567
  975POPC   C4A11156  15.735  16.026   8.194  0.0736  0.1142  0.1230
  975POPC   C1B11157  15.930  16.234   7.420  0.2510 -0.0603 -0.2346
  975POPC   C2B11158  15.684  16.284   7.758 -0.1675  0.1335 -0.0503
  975POPC   C3B11159  15.729  16.590   8.045 -0.0777  0.0332  0.1426
  975POPC   C4B11160  15.795  16.624   8.419  0.1413  0.2584 -0.3342
  976POPC   NC311161  11.346   8.542   5.750  0.0478  0.1470  0.0672
  976POPC   PO411162  10.900   8.520   5.984 -0.0092  0.0272 -0.0991
  976POPC   GL111163  10.957   8.815   6.359  0.0323  0.0926 -0.0221
  976POPC   GL211164  11.134   8.528   6.600 -0.2529 -0.3360  0.2207
  976POPC   C1A11165  11.014   8.954   6.815 -0.0537  0.0648  0.2712
  976POPC   D2A11166  10.890   8.810   7.248 -0.0831 -0.1660  0.0325
  976POPC   C3A11167  10.977   9.073   7.600  0.0569 -0.2951  0.2841
  976POPC   C4A11168  10.704   9.120   7.928 -0.2835  0.3872  0.0725
  976POPC   C1B11169  11.225   8.528   7.025  0.0297  0.0268  0.0634
  976POPC   C2B11170  11.174   8.421   7.539 -0.0250 -0.1036 -0.2395
  976POPC   C3B11171  10.947   8.652   7.875  0.1839 -0.0373  0.2120
  976POPC   C4B11172  10.664   8.712   8.193  0.0639  0.2287 -0.2462
  977POPC   NC311173   6.757   8.532   6.475 -0.0217 -0.0041  0.3191
  977POPC   PO411174   6.893   8.111   6.328  0.0260 -0.0214 -0.3486
  977POPC   GL111175   6.870   8.047   6.777 -0.1461 -0.3204  0.0180
  977POPC   GL211176   6.691   7.888   6.875  0.0133  0.1816 -0.1097
  977POPC   C1A11177   6.969   8.273   7.091 -0.0953  0.1120 -0.1951
  977POPC   D2A11178   7.030   8.616   7.314 -0.2414  0.0839  0.2580
  977POPC   C3A11179   7.019   8.525   7.756 -0.4898 -0.1783 -0.1456
  977POPC   C4A11180   7.101   8.507   8.133  0.1736  0.2944 -0.0159
  977POPC   C1B11181   6.697   7.929   7.322 -0.2516  0.1676 -0.2584
  977POPC   C2B11182   6.679   7.920   7.820  0.1022 -0.2712  0.0320
  977POPC   C3B11183   6.974   8.062   8.017 -0.2064 -0.0006 -0.3852
  977POPC   C4B11184   7.067   8.070   8.391 -0.1898  0.2294  0.1967
  978POPC   NC311185  12.195  10.384   5.816 -0.1342  0.1947  0.1660
  978POPC   PO411186  12.570  10.065   5.928 -0.1878  0.2465  0.0273
  978POPC   GL111187  12.570  10.263   6.292  0.1625  0.0572 -0.1772
  978POPC   GL211188  12.370  10.458   6.293 -0.2047  0.3964  0.0635
  978POPC   C1A11189  12.734  10.498   6.684  0.0866  0.0718  0.0880
  978POPC   D2A11190  12.635  10.474   7.084  0.1281 -0.1616  0.1621
  978POPC   C3A11191  12.459  10.122   7.389  0.0083  0.1615  0.0284
  978POPC   C4A11192  12.240   9.912   7.589  0.0695 -0.0403 -0.1811
  978POPC   C1B11193  12.017  10.037   6.474 -0.0260 -0.0715 -0.0197
  978POPC   C2B11194  11.742   9.962   6.857  0.1438 -0.0645 -0.3842
  978POPC   C3B11195  11.835   9.690   7.248 -0.1876  0.0706 -0.2467
  978POPC   C4B11196  11.985   9.501   7.706  0.3342 -0.2354 -0.4558
  979YOPC   NC311197   2.602   3.814   6.392  0.0201 -0.1752  0.1597
  979YOPC   PO411198   2.319   3.713   6.612  0.0658 -0.2097 -0.0219
  979YOPC   GL111199   2.291   3.677   7.020 -0.1775 -0.1286  0.1444
  979YOPC   GL211200   2.275   3.334   7.131  0.1018  0.1593  0.2520
  979YOPC   C1A11201   2.404   3.883   7.468 -0.0249 -0.0426  0.0796
  979YOPC   D2A11202   2.542   4.243   7.713 -0.0963 -0.1165  0.0484
  979YOPC   C3A11203   2.385   4.473   8.060  0.3750  0.3844 -0.2080
  979YOPC   C4A11204   2.402   4.214   8.507 -0.0495 -0.2704 -0.1634
  979YOPC   C1B11205   2.330   3.428   7.530  0.0931 -0.2814  0.1674
  979YOPC   C2B11206   2.226   3.343   7.864  0.0310 -0.3706  0.1584
  979YOPC   D3B11207   2.403   3.461   8.292  0.1925  0.0694 -0.1998
  979YOPC   C4B11208   2.245   3.731   8.622 -0.1857 -0.0372 -0.1236
  980YOPC   NC311209  12.102  14.509   5.644  0.0511  0.2774  0.0756
  980YOPC   PO411210  12.207  14.195   5.820 -0.1908  0.0475 -0.1055
  980YOPC   GL111211  12.307  14.299   6.273  0.1040 -0.0803 -0.1430
  980YOPC   GL211212  12.254  14.588   6.461 -0.0359  0.0495 -0.2340
  980YOPC   C1A11213  12.264  14.219   6.777  0.0086  0.1815  0.1019
  980YOPC   D2A11214  12.529  14.295   7.134 -0.0897 -0.0435  0.1868
  980YOPC   C3A11215  12.457  14.433   7.591  0.1333 -0.1061 -0.1679
  980YOPC   C4A11216  12.348  14.310   7.967  0.0371  0.1799  0.1675
  980YOPC   C1B11217  12.473  14.697   6.913  0.0429  0.0022  0.2499
  980YOPC   C2B11218  12.254  14.884   7.254  0.1891 -0.1218  0.1446
  980YOPC   D3B11219  12.522  14.925   7.611 -0.1865 -0.3730  0.0326
  980YOPC   C4B11220  12.539  14.745   7.983 -0.0597 -0.1212  0.1388
  981YOPC   NC311221  14.405   7.554   5.932 -0.0409 -0.3517  0.2894
  981YOPC   PO411222  14.471   7.908   6.258 -0.0862  0.0249  0.0241
  981YOPC   GL111223  14.361   7.784   6.578 -0.2066 -0.0870 -0.0181
  981YOPC   GL211224  14.277   8.051   6.801  0.0014  0.1231 -0.2159
  981YOPC   C1A11225  14.133   7.429   6.800 -0.0279  0.0302 -0.1778
  981YOPC   D2A11226  13.917   7.189   7.135 -0.0273  0.1011 -0.1162
  981YOPC   C3A11227  13.546   6.937   7.228  0.0384  0.3494 -0.2207
  981YOPC   C4A11228  13.210   6.690   7.412  0.1107  0.0551  0.0256
  981YOPC   C1B11229  13.986   7.831   7.115 -0.3944 -0.0156  0.0648
  981YOPC   C2B11230  13.857   7.639   7.393 -0.1397  0.0302  0.1458
  981YOPC   D3B11231  13.711   7.260   7.585 -0.2139  0.0199 -0.1308
  981YOPC   C4B11232  13.351   6.987   7.766  0.0348 -0.0562 -0.1738
  982YOPC   NC311233  14.931   9.724   6.287 -0.2746 -0.1124  0.1593
  982YOPC   PO411234  15.103   9.271   6.159 -0.0117  0.0119 -0.1036
  982YOPC   GL111235  15.080   9.331   6.550  0.1747 -0.1343  0.3440
  982YOPC   GL211236  15.141   9.599   6.698 -0.0160 -0.1801  0.2338
  982YOPC   C1A11237  14.921   9.196   6.955  0.0491  0.1692 -0.1328
  982YOPC   D2A11238  14.983   9.144   7.383  0.2315  0.2402  0.0640
  982YOPC   C3A11239  15.255   9.394   7.666  0.0573 -0.0548 -0.0321
  982YOPC   C4A11240  15.197   9.547   8.128  0.0502 -0.1113  0.3247
  982YOPC   C1B11241  15.402   9.287   7.064  0.4241  0.1105 -0.1567
  982YOPC   C2B11242  15.745   9.232   7.264  0.2003 -0.1005 -0.2273
  982YOPC   D3B11243  15.708   9.311   7.788  0.0844 -0.0143 -0.3805
  982YOPC   C4B11244  15.686   9.273   8.217  0.0561  0.0372 -0.1854
  983YOPC   NC311245   8.606  11.473   6.045  0.1693 -0.4475 -0.2538
  983YOPC   PO411246   9.058  11.460   5.894  0.0784 -0.1044  0.0395
  983YOPC   GL111247   9.153  11.714   6.119  0.0122  0.2098  0.1747
  983YOPC   GL211248   9.523  11.778   6.192 -0.0738 -0.0479  0.1303
  983YOPC   C1A11249   9.145  12.111   6.414 -0.2361 -0.0515 -0.1210
  983YOPC   D2A11250   9.358  12.440   6.548 -0.0536  0.1209 -0.1788
  983YOPC   C3A11251   9.734  12.423   6.818 -0.0261 -0.1437  0.1847
  983YOPC   C4A11252   9.834  12.131   7.161  0.1423  0.0644  0.0245
  983YOPC   C1B11253   9.548  11.911   6.656  0.2000 -0.0416  0.3197
  983YOPC   C2B11254   9.293  12.167   7.017  0.0318 -0.1190  0.0762
  983YOPC   D3B11255   9.003  12.420   6.885 -0.2524  0.0506  0.0876
  983YOPC   C4B11256   8.660  12.543   6.679  0.0360 -0.3250  0.0851
  984YOPC   NC311257  13.565  16.387   6.073  0.2748 -0.0911  0.2187
  984YOPC   PO411258  13.578  16.883   6.298  0.0550  0.1732 -0.0021
  984YOPC   GL111259  13.377  16.954   6.721  0.2699 -0.1614  0.1484
  984YOPC   GL211260  13.653  17.097   6.795 -0.2770  0.1910  0.0941
  984YOPC   C1A11261  13.189  16.774   7.077 -0.0141 -0.2835  0.0537
  984YOPC   D2A11262  13.040  16.643   7.355  0.5154 -0.0441 -0.0592
  984YOPC   C3A11263  13.203  16.812   7.634 -0.0390 -0.2107  0.0054
  984YOPC   C4A11264  13.216  16.622   8.123 -0.0149  0.2558  0.0446
  984YOPC   C1B11265  13.468  17.226   7.183  0.0272 -0.0908 -0.0531
  984YOPC   C2B11266  12.991  17.233   7.347 -0.1277 -0.0872 -0.1234
  984YOPC   D3B11267  12.942  17.275   7.658 -0.1218  0.3290  0.3196
  984YOPC   C4B11268  12.982  17.058   7.993 -0.2157  0.0834 -0.0375
  985YOPC   NC311269  15.493   1.367   6.148  0.2780  0.1606  0.2718
  985YOPC   PO411270  15.299   0.988   5.985 -0.0942  0.2359  0.0778
  985YOPC   GL111271  15.053   1.228   6.336 -0.0120  0.0961 -0.3054
  985YOPC   GL211272  15.227   1.071   6.521  0.1745  0.2084 -0.4420
  985YOPC   C1A11273  14.940   1.583   6.597 -0.0214  0.4589  0.1750
  985YOPC   D2A11274  15.296   1.960   6.706 -0.3787 -0.0284  0.1527
  985YOPC   C3A11275  15.645   1.951   7.028  0.2019  0.0359 -0.0731
  985YOPC   C4A11276  15.626   2.074   7.401  0.1234 -0.0952 -0.2388
  985YOPC   C1B11277  15.146   1.128   7.033  0.0282  0.0117 -0.0372
  985YOPC   C2B11278  14.986   1.143   7.334 -0.1267  0.0202 -0.1551
  985YOPC   D3B11279  14.993   1.189   7.800 -0.3458  0.3246  0.0086
  985YOPC   C4B11280  15.147   1.376   8.185  0.0559  0.1941  0.1870
  986YOPC   NC311281  16.757   5.629   5.920  0.2217 -0.0431  0.1428
  986YOPC   PO411282  16.474   5.906   5.896  0.2799 -0.0086 -0.1355
  986YOPC   GL111283  16.686   5.875   6.348  0.1648  0.0870 -0.1373
  986YOPC   GL211284  16.427   5.763   6.391  0.0689  0.2056  0.3041
  986YOPC   C1A11285  16.845   5.449   6.626  0.2397 -0.0207 -0.2157
  986YOPC   D2A11286  16.933   5.052   6.661  0.2249  0.1226 -0.0565
  986YOPC   C3A11287  17.192   4.783   6.930 -0.0374 -0.2901  0.1962
  986YOPC   C4A11288  17.550   4.727   7.148  0.2850  0.1512  0.0005
  986YOPC   C1B11289  16.288   5.509   6.856 -0.0583  0.0285  0.1442
  986YOPC   C2B11290  16.234   5.354   7.216  0.4271  0.0997 -0.0814
  986YOPC   D3B11291  15.946   5.580   7.470  0.0585 -0.2088 -0.0510
  986YOPC   C4B11292  15.631   5.530   7.779  0.1724  0.4226  0.1385
  987YOPC   NC311293   2.860   1.337   6.418  0.1042 -0.0792 -0.0236
  987YOPC   PO411294   3.182   1.615   6.587 -0.0115 -0.1539 -0.2871
  987YOPC   GL111295   2.976   1.578   7.026  0.0253  0.1913 -0.1428
  987YOPC   GL211296   3.060   1.248   7.060  0.2061 -0.2951  0.0500
  987YOPC   C1A11297   2.747   1.955   7.278 -0.0170 -0.2464  0.1042
  987YOPC   D2A11298   2.645   2.233   7.618 -0.1076 -0.3654  0.2798
  987YOPC   C3A11299   2.775   2.100   8.010 -0.2828 -0.0695 -0.1615
  987YOPC   C4A11300   3.011   2.093   8.384  0.4658 -0.3876  0.1496
  987YOPC   C1B11301   2.786   1.057   7.316 -0.1018 -0.0211 -0.0360
  987YOPC   C2B11302   2.935   0.898   7.666 -0.0222  0.1347 -0.0932
  987YOPC   D3B11303   3.190   1.013   8.060 -0.1555  0.0697 -0.2477
  987YOPC   C4B11304   3.618   1.107   8.291 -0.0143 -0.1874  0.0005
  988YOPC   NC311305   2.943   5.998   5.616  0.0493  0.2666  0.3225
  988YOPC   PO411306   2.865   5.872   6.064  0.1250  0.1530  0.0834
  988YOPC   GL111307   3.012   5.669   6.471  0.0234 -0.1637 -0.0589
  988YOPC   GL211308   3.299   5.754   6.694  0.2389 -0.0820  0.1021
  988YOPC   C1A11309   2.833   5.528   6.803  0.2841 -0.0155 -0.2294
  988YOPC   D2A11310   2.457   5.455   7.023  0.1506  0.1630 -0.0057
  988YOPC   C3A11311   2.340   5.363   7.462 -0.0297  0.0596  0.2097
  988YOPC   C4A11312   2.300   5.449   7.795 -0.2821  0.2559 -0.0900
  988YOPC   C1B11313   3.210   5.589   7.141 -0.5132 -0.3917  0.0542
  988YOPC   C2B11314   3.247   5.770   7.598 -0.0781  0.0882 -0.0516
  988YOPC   D3B11315   3.603   5.871   7.577 -0.0221 -0.0647 -0.1139
  988YOPC   C4B11316   3.878   6.130   7.761 -0.1803 -0.0781  0.2441
  989YOPC   NC311317   3.056   6.737   6.537  0.2764  0.0470 -0.1277
  989YOPC   PO411318   3.317   6.364   6.493 -0.0782  0.0821 -0.2705
  989YOPC   GL111319   2.898   6.365   6.808  0.1613 -0.2799  0.0780
  989YOPC   GL211320   3.002   6.586   7.057  0.1723  0.0811 -0.2869
  989YOPC   C1A11321   2.655   6.072   7.056 -0.1376  0.0043 -0.0711
  989YOPC   D2A11322   2.714   5.787   7.374 -0.1187 -0.1740  0.1367
  989YOPC   C3A11323   2.539   5.860   7.662 -0.0626  0.0601  0.1199
  989YOPC   C4A11324   2.615   6.069   8.036  0.1252 -0.0439 -0.1608
  989YOPC   C1B11325   2.638   6.491   7.275 -0.1509  0.0303 -0.0152
  989YOPC   C2B11326   2.399   6.316   7.533 -0.0879  0.0440 -0.0648
  989YOPC   D3B11327   2.408   6.521   7.856  0.1112  0.0543 -0.4018
  989YOPC   C4B11328   2.640   6.899   8.079  0.1644  0.4743 -0.0692
  990YOPC   NC311329  10.517  12.691   6.132  0.0802  0.1681 -0.3300
  990YOPC   PO411330  10.847  12.452   6.093 -0.1219 -0.0700 -0.3055
  990YOPC   GL111331  10.813  12.288   6.509  0.0007  0.0352 -0.2411
  990YOPC   GL211332  10.510  12.175   6.416 -0.2080  0.0740  0.3281
  990YOPC   C1A11333  10.603  12.155   6.864  0.1172 -0.1692 -0.3187
  990YOPC   D2A11334  10.678  12.342   7.190 -0.1025  0.0427  0.2773
  990YOPC   C3A11335  10.589  12.251   7.565  0.2608 -0.1213  0.0567
  990YOPC   C4A11336  10.118  12.108   7.655 -0.2316 -0.2071 -0.1656
  990YOPC   C1B11337  10.179  12.269   6.716 -0.1983 -0.0584  0.0075
  990YOPC   C2B11338  10.179  12.438   7.170 -0.1977 -0.1884  0.0879
  990YOPC   D3B11339   9.978  12.841   7.216 -0.1388 -0.1541 -0.2730
  990YOPC   C4B11340   9.870  13.107   7.490  0.0145  0.0925 -0.0313
  991YOPC   NC311341  14.614  11.246   6.238  0.2605 -0.0140  0.1446
  991YOPC   PO411342  14.134  11.231   6.253 -0.2223  0.0493 -0.0075
  991YOPC   GL111343  14.188  11.177   6.676 -0.1068 -0.1570 -0.0334
  991YOPC   GL211344  14.071  10.829   6.832 -0.3132 -0.0461  0.2169
  991YOPC   C1A11345  14.348  11.214   7.046  0.0054  0.5499 -0.1582
  991YOPC   D2A11346  14.387  11.164   7.460 -0.0617  0.2530 -0.3585
  991YOPC   C3A11347  14.405  11.048   7.796 -0.0035 -0.1189 -0.1279
  991YOPC   C4A11348  14.511  10.739   8.130 -0.0053  0.0141 -0.2019
  991YOPC   C1B11349  14.002  10.750   7.172  0.3097  0.1722 -0.0310
  991YOPC   C2B11350  14.018  10.759   7.609 -0.1435  0.0710 -0.0505
  991YOPC   D3B11351  13.797  10.645   7.923  0.1099 -0.2609 -0.1747
  991YOPC   C4B11352  13.479  10.748   8.190 -0.0453  0.1516  0.0149
  992YOPC   NC311353   4.722   1.355   6.243 -0.1628 -0.1116  0.0407
  992YOPC   PO411354   4.929   0.956   6.336 -0.0616 -0.1117 -0.1918
  992YOPC   GL111355   4.833   1.088   6.705  0.0480  0.0812  0.1272
  992YOPC   GL211356   5.067   1.453   6.620  0.0966 -0.1175 -0.1151
  992YOPC   C1A11357   4.998   1.115   7.161 -0.1809 -0.1566  0.2883
  992YOPC   D2A11358   5.032   1.161   7.558  0.2349  0.0063 -0.2503
  992YOPC   C3A11359   4.674   1.146   7.865  0.2699 -0.0552 -0.3300
  992YOPC   C4A11360   4.545   0.903   8.215 -0.1816  0.0334 -0.1199
  992YOPC   C1B11361   5.213   1.568   6.963 -0.0809 -0.0260 -0.1692
  992YOPC   C2B11362   5.143   1.603   7.388  0.4877  0.2006 -0.1483
  992YOPC   D3B11363   5.407   1.772   7.697 -0.1219 -0.1943 -0.1058
  992YOPC   C4B11364   5.341   1.929   8.120  0.0128  0.0516 -0.1739
  993YOPC   NC311365   1.718  16.169   5.947 -0.3807 -0.2184 -0.0310
  993YOPC   PO411366   1.584  15.917   6.233 -0.0018 -0.1140 -0.2131
  993YOPC   GL111367   1.407  15.972   6.663  0.0187  0.1938 -0.1961
  993YOPC   GL211368   1.161  15.804   6.823  0.1165  0.0348  0.1979
  993YOPC   C1A11369   1.563  16.126   7.078 -0.1326  0.2059 -0.1060
  993YOPC   D2A11370   1.607  15.964   7.474 -0.1448 -0.1538  0.2862
  993YOPC   C3A11371   1.734  15.946   7.896  0.1799 -0.0256 -0.1431
  993YOPC   C4A11372   1.673  15.702   8.237 -0.3567  0.0896  0.3580
  993YOPC   C1B11373   0.824  15.676   7.091 -0.0421  0.0865  0.3689
  993YOPC   C2B11374   0.602  15.785   7.506 -0.1265  0.0398 -0.0063
  993YOPC   D3B11375   0.768  15.977   7.888  0.0137  0.2064 -0.0258
  993YOPC   C4B11376   0.662  15.887   8.302 -0.0649 -0.1559  0.5098
  994YOPC   NC311377   7.195   4.192   5.552 -0.1266 -0.0738 -0.4264
  994YOPC   PO411378   7.602   4.352   5.651 -0.0602 -0.1195 -0.0951
  994YOPC   GL111379   7.845   4.368   6.032  0.1242 -0.0524  0.4771
  994YOPC   GL211380   8.120   4.146   6.115 -0.0094 -0.0143  0.1803
  994YOPC   C1A11381   7.813   4.665   6.385 -0.3600 -0.1578 -0.1983
  994YOPC   D2A11382   7.807   4.890   6.784  0.0191  0.3108 -0.1973
  994YOPC   C3A11383   8.044   4.804   7.137 -0.1256 -0.1931  0.2174
  994YOPC   C4A11384   8.252   4.726   7.582  0.1479 -0.0721 -0.0076
  994YOPC   C1B11385   7.905   4.089   6.444 -0.0458 -0.2697 -0.2846
  994YOPC   C2B11386   7.706   3.828   6.810 -0.2869  0.0154 -0.0019
  994YOPC   D3B11387   7.499   3.482   6.981 -0.0463 -0.1217 -0.2314
  994YOPC   C4B11388   7.435   3.197   7.305 -0.3179 -0.1635  0.0440
  995YOPC   NC311389   1.028   6.991   6.272 -0.2984 -0.0883  0.0697
  995YOPC   PO411390   0.614   6.989   6.584 -0.3121  0.1036 -0.1736
  995YOPC   GL111391   0.552   7.029   7.010  0.0573 -0.2410 -0.1304
  995YOPC   GL211392   0.258   7.165   7.056  0.0462  0.2336  0.0697
  995YOPC   C1A11393   0.579   7.078   7.420  0.3191  0.0888  0.0809
  995YOPC   D2A11394   0.351   7.054   7.875  0.0333  0.2237 -0.0729
  995YOPC   C3A11395   0.466   7.109   8.261 -0.0202 -0.1410 -0.0729
  995YOPC   C4A11396   0.401   7.195   8.598  0.2463  0.3648  0.1537
  995YOPC   C1B11397   0.058   7.233   7.475  0.2212 -0.1398  0.1870
  995YOPC   C2B11398  -0.083   7.411   7.903 -0.1296 -0.3551  0.1687
  995YOPC   D3B11399  -0.039   7.150   8.237  0.1633 -0.2335  0.1555
  995YOPC   C4B11400  -0.156   6.824   8.486  0.0127 -0.0739  0.0804
  996YOPC   NC311401   0.718   0.797   6.580 -0.1688 -0.0718 -0.0573
  996YOPC   PO411402   0.510   0.520   6.814  0.3891 -0.0507 -0.0606
  996YOPC   GL111403   0.505   0.614   7.212 -0.5043 -0.0159 -0.1332
  996YOPC   GL211404   0.451   0.841   7.302 -0.0863 -0.0020  0.1033
  996YOPC   C1A11405   0.463   0.419   7.666 -0.2086 -0.2343  0.0970
  996YOPC   D2A11406   0.502   0.388   8.137 -0.0491 -0.0374 -0.0200
  996YOPC   C3A11407   0.755   0.161   8.343  0.0519 -0.1571  0.1331
  996YOPC   C4A11408   1.080   0.160   8.500  0.1723 -0.0372 -0.2088
  996YOPC   C1B11409   0.350   0.906   7.632  0.1234 -0.2877  0.0743
  996YOPC   C2B11410   0.315   0.806   7.970  0.0604 -0.0084  0.2970
  996YOPC   D3B11411   0.326   1.109   8.332  0.2079 -0.0110  0.2485
  996YOPC   C4B11412   0.325   1.333   8.749  0.0742 -0.1246 -0.2000
  997YOPC   NC311413  13.902   7.949   6.366  0.2450 -0.1512 -0.0241
  997YOPC   PO411414  13.903   7.609   6.069 -0.0895  0.1210  0.0351
  997YOPC   GL111415  14.183   7.292   6.336 -0.0687  0.2114 -0.2322
  997YOPC   GL211416  13.957   7.063   6.361 -0.0384  0.0844  0.1044
  997YOPC   C1A11417  14.406   6.926   6.545  0.0343 -0.0386 -0.1972
  997YOPC   D2A11418  14.870   6.866   6.716 -0.2041 -0.2337  0.0814
  997YOPC   C3A11419  14.864   6.903   7.111 -0.0879 -0.4264 -0.2243
  997YOPC   C4A11420  14.793   6.851   7.560  0.4106  0.0254  0.1481
  997YOPC   C1B11421  13.568   7.043   6.677  0.2771 -0.2284 -0.1973
  997YOPC   C2B11422  13.179   6.915   6.740 -0.0656  0.0628  0.0357
  997YOPC   D3B11423  12.767   6.889   6.680  0.0374  0.2050 -0.0049
  997YOPC   C4B11424  12.447   6.969   6.382  0.2407 -0.0234  0.0031
  998YOPC   NC311425  13.022   2.798   5.477  0.0856 -0.1162 -0.1225
  998YOPC   PO411426  12.809   2.427   5.730  0.1276  0.1005  0.1834
  998YOPC   GL111427  12.615   2.396   6.088  0.0804 -0.0434 -0.1851
  998YOPC   GL211428  12.729   2.131   6.337 -0.1123 -0.0265  0.1723
  998YOPC   C1A11429  12.533   2.695   6.447 -0.3603  0.0702  0.0862
  998YOPC   D2A11430  12.682   2.937   6.837  0.0015 -0.0576 -0.0018
  998YOPC   C3A11431  12.421   2.948   7.208 -0.0631  0.2032  0.1410
  998YOPC   C4A11432  12.060   2.901   7.449  0.0318 -0.1478  0.1554
  998YOPC   C1B11433  12.673   2.302   6.734 -0.0726 -0.2432 -0.0346
  998YOPC   C2B11434  12.828   2.535   7.090 -0.1178 -0.0418  0.0886
  998YOPC   D3B11435  13.058   2.367   7.222 -0.3647 -0.0228  0.0366
  998YOPC   C4B11436  13.405   2.396   7.387 -0.1319 -0.1011 -0.0441
  999YOPC   NC311437  11.843  16.135   5.731  0.1868  0.0479 -0.1538
  999YOPC   PO411438  12.081  16.003   6.007 -0.2016 -0.1374  0.0076
  999YOPC   GL111439  12.007  16.203   6.468  0.2140 -0.0946 -0.2090
  999YOPC   GL211440  12.114  16.501   6.627 -0.1336 -0.0811  0.1677
  999YOPC   C1A11441  11.737  16.146   6.892  0.0295 -0.0298 -0.1584
  999YOPC   D2A11442  11.448  16.285   7.223  0.0510 -0.0460  0.2710
  999YOPC   C3A11443  11.586  16.166   7.638 -0.1070 -0.0766 -0.0251
  999YOPC   C4A11444  12.084  16.264   7.772  0.1779 -0.0389  0.1504
  999YOPC   C1B11445  11.800  16.661   6.937  0.0454 -0.2565 -0.0291
  999YOPC   C2B11446  11.781  16.697   7.367  0.1002  0.0052 -0.1775
  999YOPC   D3B11447  11.379  16.645   7.591 -0.1717 -0.0099  0.1660
  999YOPC   C4B11448  11.103  16.247   7.713  0.0736  0.0029 -0.4599
 1000YOPC   NC311449   4.198   6.999   6.330  0.0680 -0.2251  0.1653
 1000YOPC   PO411450   4.349   7.412   6.158 -0.2209 -0.1546  0.1652
 1000YOPC   GL111451   4.482   7.498   6.486 -0.0959  0.0383 -0.0511
 1000YOPC   GL211452   4.319   7.833   6.501  0.0028  0.0789  0.0976
 1000YOPC   C1A11453   4.313   7.377   6.914 -0.1595  0.0969 -0.2259
 1000YOPC   D2A11454   4.044   7.325   7.400 -0.1376  0.0636 -0.1780
 1000YOPC   C3A11455   3.827   6.896   7.511  0.2543  0.1747 -0.3488
 1000YOPC   C4A11456   3.806   6.794   7.956 -0.0539  0.0442  0.0755
 1000YOPC   C1B11457   4.583   7.842   6.872 -0.1081  0.1778 -0.0616
 1000YOPC   C2B11458   4.699   8.007   7.278 -0.1946 -0.2029 -0.0133
 1000YOPC   D3B11459   4.844   7.881   7.627 -0.1275 -0.0304  0.0176
 1000YOPC   C4B11460   5.106   7.756   8.020  0.0699 -0.1476 -0.3936
 1001YOPC   NC311461   5.813  15.168   5.812  0.1731  0.2135  0.0177
 1001YOPC   PO411462   6.089  14.898   6.069  0.0256  0.3750  0.2931
 1001YOPC   GL111463   6.139  15.126   6.444 -0.2186  0.2099  0.0878
 1001YOPC   GL211464   6.161  15.476   6.602 -0.0727  0.1020 -0.0346
 1001YOPC   C1A11465   5.998  15.060   6.860 -0.0245 -0.1738  0.1534
 1001YOPC   D2A11466   5.903  15.178   7.232 -0.0223  0.1121  0.1245
 1001YOPC   C3A11467   6.187  15.257   7.534 -0.2315 -0.1368 -0.3035
 1001YOPC   C4A11468   6.375  15.038   7.904 -0.1089  0.0803 -0.3494
 1001YOPC   C1B11469   6.348  15.374   6.973  0.0093 -0.0379  0.2949
 1001YOPC   C2B11470   6.672  15.313   7.306  0.0978  0.0952  0.0790
 1001YOPC   D3B11471   6.685  15.423   7.781 -0.0908 -0.1461  0.0817
 1001YOPC   C4B11472   6.338  15.513   8.001  0.2154 -0.0626 -0.0469
 1002YOPC   NC311473   6.637  14.111   5.718 -0.3037  0.2216  0.1190
 1002YOPC   PO411474   6.755  14.207   6.134 -0.0752 -0.0363 -0.0450
 1002YOPC   GL111475   6.983  14.221   6.417  0.0733  0.0274  0.1469
 1002YOPC   GL211476   6.842  13.974   6.573  0.2922  0.0461 -0.0932
 1002YOPC   C1A11477   7.322  14.009   6.541 -0.3061  0.1227 -0.2593
 1002YOPC   D2A11478   7.621  13.691   6.811 -0.1652 -0.0985 -0.0513
 1002YOPC   C3A11479   7.588  13.542   7.249  0.0152 -0.2353 -0.0225
 1002YOPC   C4A11480   7.496  13.519   7.600  0.2602  0.0397  0.0791
 1002YOPC   C1B11481   6.720  13.958   6.967  0.0374  0.0042  0.2839
 1002YOPC   C2B11482   6.865  13.842   7.372  0.1055  0.1751  0.1935
 1002YOPC   D3B11483   6.746  13.995   7.764 -0.0409 -0.0180 -0.2339
 1002YOPC   C4B11484   6.378  14.041   7.984 -0.1625  0.2652 -0.0847
 1003YOPC   NC311485  13.578   9.053   6.187 -0.1087  0.0315  0.2164
 1003YOPC   PO411486  13.500   8.602   6.111  0.1931 -0.0230  0.1988
 1003YOPC   GL111487  13.407   8.851   6.605 -0.1869 -0.1385 -0.1604
 1003YOPC   GL211488  13.459   9.154   6.684  0.1219 -0.1765 -0.1283
 1003YOPC   C1A11489  13.079   8.988   6.918  0.3354 -0.2008  0.0275
 1003YOPC   D2A11490  13.071   9.038   7.382  0.0465  0.0114 -0.2614
 1003YOPC   C3A11491  12.768   9.170   7.474 -0.0019  0.0362 -0.1918
 1003YOPC   C4A11492  12.459   9.350   7.670 -0.2043  0.0201 -0.3823
 1003YOPC   C1B11493  13.538   9.195   7.178  0.1117 -0.2223 -0.0958
 1003YOPC   C2B11494  13.439   9.236   7.641 -0.1730 -0.2200  0.2203
 1003YOPC   D3B11495  13.080   9.290   7.834  0.3548 -0.4087  0.0793
 1003YOPC   C4B11496  12.768   9.319   8.092  0.1328  0.2857 -0.0631
 1004YOPC   NC311497   4.539  14.616   6.613 -0.3226 -0.2017  0.2052
 1004YOPC   PO411498   4.120  14.512   6.552 -0.0435 -0.0918 -0.1309
 1004YOPC   GL111499   4.224  14.817   6.891  0.1170  0.1527  0.3093
 1004YOPC   GL211500   3.966  15.013   6.898 -0.1390  0.1625 -0.1654
 1004YOPC   C1A11501   4.306  14.598   7.259 -0.0791 -0.0842  0.0568
 1004YOPC   D2A11502   4.161  14.802   7.566  0.1537 -0.0398 -0.0076
 1004YOPC   C3A11503   4.232  14.642   7.987  0.0604 -0.5455 -0.4770
 1004YOPC   C4A11504   4.206  14.615   8.434  0.0282  0.0058 -0.2555
 1004YOPC   C1B11505   3.953  15.250   7.336 -0.2597  0.2146  0.2519
 1004YOPC   C2B11506   4.110  15.230   7.855 -0.1116  0.0621  0.0638
 1004YOPC   D3B11507   3.813  15.364   8.250 -0.1458  0.2176 -0.0423
 1004YOPC   C4B11508   3.637  15.655   8.474 -0.2769 -0.1651  0.0620
 1005YOPC   NC311509  15.827  11.220   6.082  0.1480 -0.2278  0.1870
 1005YOPC   PO411510  15.422  11.067   6.074  0.1773 -0.3298  0.0157
 1005YOPC   GL111511  15.300  11.150   6.452  0.0177  0.0865 -0.0215
 1005YOPC   GL211512  15.291  11.374   6.459  0.1143 -0.0401  0.1133
 1005YOPC   C1A11513  15.347  11.243   6.905  0.0032 -0.2202 -0.0528
 1005YOPC   D2A11514  15.533  11.268   7.280 -0.1734  0.2143 -0.1340
 1005YOPC   C3A11515  15.375  11.369   7.841  0.1038 -0.0042 -0.1437
 1005YOPC   C4A11516  15.360  11.311   8.384  0.1820 -0.1020  0.1943
 1005YOPC   C1B11517  14.944  11.566   6.681 -0.0371  0.3675 -0.0653
 1005YOPC   C2B11518  14.534  11.678   6.793 -0.2874 -0.0602 -0.1628
 1005YOPC   D3B11519  14.432  11.653   7.268 -0.2831  0.2269  0.1993
 1005YOPC   C4B11520  14.480  11.622   7.674 -0.0607 -0.2574 -0.2216
 1006YOPC   NC311521  13.052  16.778   6.389 -0.0502 -0.2069  0.0944
 1006YOPC   PO411522  13.029  16.369   6.203 -0.0868 -0.0328  0.0794
 1006YOPC   GL111523  12.991  16.245   6.630  0.3014  0.1870 -0.3094
 1006YOPC   GL211524  12.897  15.899   6.638 -0.0089 -0.0931 -0.0682
 1006YOPC   C1A11525  12.909  16.286   7.040 -0.0962  0.3632 -0.1101
 1006YOPC   D2A11526  12.642  16.332   7.427 -0.1609  0.1256  0.2228
 1006YOPC   C3A11527  12.581  16.148   7.810 -0.1674 -0.0324 -0.1039
 1006YOPC   C4A11528  12.813  16.196   8.155 -0.0650  0.2312  0.0425
 1006YOPC   C1B11529  12.759  15.743   7.005  0.0166  0.3266 -0.2312
 1006YOPC   C2B11530  12.829  15.876   7.453 -0.2363  0.0409 -0.0535
 1006YOPC   D3B11531  12.802  15.673   7.859  0.1206  0.0131 -0.0391
 1006YOPC   C4B11532  12.466  15.643   8.191  0.0294  0.4092 -0.2797
 1007YOPC   NC311533   6.025   6.391   6.224 -0.0568 -0.1098  0.0746
 1007YOPC   PO411534   5.563   6.300   6.185 -0.0528  0.0642 -0.1763
 1007YOPC   GL111535   5.382   6.242   6.582 -0.1651  0.0862  0.0726
 1007YOPC   GL211536   5.559   6.036   6.641  0.1438 -0.0386 -0.1064
 1007YOPC   C1A11537   5.548   6.297   7.065 -0.0578  0.3508 -0.0442
 1007YOPC   D2A11538   5.526   6.342   7.454 -0.0274 -0.1690 -0.0466
 1007YOPC   C3A11539   5.566   6.129   7.825 -0.4391  0.2198 -0.0307
 1007YOPC   C4A11540   5.731   5.786   8.127  0.0425  0.1243  0.1100
 1007YOPC   C1B11541   5.600   5.566   6.811  0.0870  0.4466  0.1539
 1007YOPC   C2B11542   5.797   5.091   6.797  0.1972 -0.1148 -0.2957
 1007YOPC   D3B11543   5.781   4.824   7.242 -0.2451  0.2557 -0.0667
 1007YOPC   C4B11544   5.372   4.764   7.456  0.0229 -0.0704 -0.2044
 1008YOPC   NC311545  12.268  13.839   5.360 -0.0442  0.0304  0.0997
 1008YOPC   PO411546  11.919  13.722   5.683  0.0598 -0.0397 -0.0256
 1008YOPC   GL111547  11.958  13.836   6.115 -0.0659  0.0887  0.0437
 1008YOPC   GL211548  11.853  13.591   6.397  0.0599 -0.0811 -0.1390
 1008YOPC   C1A11549  11.902  14.075   6.502  0.2267  0.2134 -0.2021
 1008YOPC   D2A11550  11.739  14.176   6.839  0.1133  0.0308 -0.1546
 1008YOPC   C3A11551  11.471  14.509   7.068 -0.0762 -0.0139  0.1717
 1008YOPC   C4A11552  11.208  14.787   7.154  0.2698  0.0531  0.1511
 1008YOPC   C1B11553  11.835  13.289   6.785  0.0837 -0.1019 -0.2297
 1008YOPC   C2B11554  11.796  13.371   7.194  0.0921 -0.0061  0.0180
 1008YOPC   D3B11555  11.863  13.559   7.491 -0.3876  0.0354  0.1693
 1008YOPC   C4B11556  11.598  13.657   7.803 -0.0980  0.0674 -0.0161
 1009YOPC   NC311557   5.653  14.051   6.015 -0.0636  0.0465 -0.0877
 1009YOPC   PO411558   5.698  14.479   5.922 -0.1244 -0.0997 -0.1499
 1009YOPC   GL111559   5.941  14.458   6.324 -0.1949 -0.0878  0.0341
 1009YOPC   GL211560   6.107  14.650   6.507  0.0620 -0.1091  0.0205
 1009YOPC   C1A11561   5.748  14.185   6.663 -0.0868  0.0915 -0.0787
 1009YOPC   D2A11562   5.645  13.932   6.987 -0.0735 -0.0402  0.0772
 1009YOPC   C3A11563   5.788  13.659   7.158  0.1190  0.1282  0.1985
 1009YOPC   C4A11564   6.091  13.489   6.910  0.0834  0.1650 -0.1202
 1009YOPC   C1B11565   6.103  14.433   6.850 -0.0585 -0.0225  0.1678
 1009YOPC   C2B11566   6.187  14.585   7.243  0.3305 -0.0139 -0.2905
 1009YOPC   D3B11567   6.016  14.833   7.593  0.0528 -0.1714  0.1473
 1009YOPC   C4B11568   5.910  14.774   8.039 -0.2275  0.1252 -0.0393
 1010YOPC   NC311569  10.217   0.142   5.372 -0.0250  0.1612  0.2592
 1010YOPC   PO411570   9.792   0.111   5.693 -0.1717 -0.1658  0.1033
 1010YOPC   GL111571   9.532   0.056   6.036 -0.2778  0.0205 -0.2856
 1010YOPC   GL211572   9.372   0.344   6.188 -0.1319  0.1902  0.1433
 1010YOPC   C1A11573   9.307  -0.148   6.290 -0.2280 -0.1559 -0.1846
 1010YOPC   D2A11574   9.288  -0.539   6.488 -0.0658  0.0708 -0.1327
 1010YOPC   C3A11575   9.229  -0.642   6.865 -0.0856  0.1572 -0.2424
 1010YOPC   C4A11576   8.948  -0.562   7.185 -0.0218  0.0052 -0.0303
 1010YOPC   C1B11577   9.610   0.263   6.541  0.2362 -0.0071  0.0742
 1010YOPC   C2B11578   9.779   0.169   6.886 -0.3437 -0.2695 -0.1892
 1010YOPC   D3B11579   9.690   0.122   7.376  0.0888 -0.2173  0.0108
 1010YOPC   C4B11580   9.555   0.102   7.801  0.0809 -0.1014  0.1653
 1011YOPC   NC311581   3.347  17.793   6.546 -0.0286  0.1022 -0.2498
 1011YOPC   PO411582   2.976  18.078   6.314  0.1216  0.1406  0.1891
 1011YOPC   GL111583   2.962  18.390   6.640  0.3423  0.1252  0.0663
 1011YOPC   GL211584   3.160  18.574   6.610 -0.1137  0.3065  0.1007
 1011YOPC   C1A11585   3.161  18.358   7.074 -0.1512  0.0626  0.5462
 1011YOPC   D2A11586   3.140  18.318   7.422  0.1209 -0.1009  0.2520
 1011YOPC   C3A11587   3.280  18.328   7.773 -0.0470 -0.2546 -0.0388
 1011YOPC   C4A11588   3.471  18.353   8.072  0.0882  0.1517  0.2386
 1011YOPC   C1B11589   3.658  18.596   6.864 -0.0651  0.2310 -0.0510
 1011YOPC   C2B11590   4.002  18.374   6.992  0.0808  0.2176 -0.1328
 1011YOPC   D3B11591   4.057  18.451   7.444  0.0284  0.2342 -0.3420
 1011YOPC   C4B11592   3.730  18.561   7.621 -0.0474 -0.1574 -0.3300
 1012YOPC   NC311593  16.224  10.937   6.181 -0.0038 -0.2500 -0.5162
 1012YOPC   PO411594  16.640  11.124   6.274 -0.2522  0.1276 -0.0197
 1012YOPC   GL111595  16.740  11.135   6.744  0.0430 -0.1192  0.0391
 1012YOPC   GL211596  16.929  11.434   6.881 -0.0303 -0.1818 -0.0763
 1012YOPC   C1A11597  16.504  11.234   7.051 -0.2124 -0.1608  0.3193
 1012YOPC   D2A11598  16.318  10.906   7.262 -0.1578 -0.0978  0.2540
 1012YOPC   C3A11599  16.440  10.683   7.460 -0.2268  0.0604 -0.3028
 1012YOPC   C4A11600  16.479  10.331   7.707  0.1840  0.0814  0.0829
 1012YOPC   C1B11601  16.583  11.707   7.064  0.1096 -0.0545  0.1698
 1012YOPC   C2B11602  16.216  11.790   7.234 -0.2307 -0.1183 -0.2352
 1012YOPC   D3B11603  16.188  11.779   7.745  0.2828  0.0040  0.0606
 1012YOPC   C4B11604  16.244  11.943   8.170  0.1534  0.0012 -0.2474
 1013YOPC   NC311605  13.559   3.672   5.801  0.2195  0.0483  0.1665
 1013YOPC   PO411606  13.116   3.854   5.816 -0.0982 -0.1103 -0.1256
 1013YOPC   GL111607  13.159   3.980   6.259  0.0075  0.2012 -0.2953
 1013YOPC   GL211608  13.000   4.148   6.424 -0.2125  0.0207 -0.0446
 1013YOPC   C1A11609  13.192   3.785   6.704 -0.2229 -0.0436 -0.2439
 1013YOPC   D2A11610  13.291   3.549   6.984 -0.4086  0.0645 -0.2566
 1013YOPC   C3A11611  13.405   3.783   7.366 -0.1644  0.2013  0.1706
 1013YOPC   C4A11612  13.171   4.118   7.506  0.0384  0.0553  0.1743
 1013YOPC   C1B11613  12.927   4.237   6.799 -0.1142  0.1351 -0.0062
 1013YOPC   C2B11614  13.083   4.469   7.101  0.5953 -0.0080 -0.1251
 1013YOPC   D3B11615  12.866   4.570   7.509 -0.0631  0.0208 -0.2665
 1013YOPC   C4B11616  12.676   4.923   7.591 -0.1537  0.4427  0.0976
 1014YOPC   NC311617   1.450  14.606   6.299  0.2954  0.0208 -0.0448
 1014YOPC   PO411618   1.088  14.433   6.368  0.2573 -0.1999  0.0295
 1014YOPC   GL111619   1.148  14.181   6.762  0.4388  0.2026  0.1323
 1014YOPC   GL211620   0.901  14.290   6.879  0.2609  0.3691 -0.2236
 1014YOPC   C1A11621   0.979  13.864   7.099  0.1049  0.2508 -0.4318
 1014YOPC   D2A11622   0.918  13.701   7.491  0.1111 -0.2776  0.2464
 1014YOPC   C3A11623   0.659  13.513   7.983  0.2561 -0.0145 -0.1480
 1014YOPC   C4A11624   0.431  13.232   8.318  0.0514 -0.1149  0.0119
 1014YOPC   C1B11625   0.865  14.296   7.276  0.0417  0.0742  0.0299
 1014YOPC   C2B11626   0.848  14.231   7.601  0.1980  0.0466 -0.3255
 1014YOPC   D3B11627   0.651  13.991   7.856  0.1384  0.1174  0.3631
 1014YOPC   C4B11628   0.643  13.872   8.292  0.0333 -0.0670  0.2499
 1015YOPC   NC311629   8.633  12.940   5.609 -0.0021  0.2756 -0.0496
 1015YOPC   PO411630   8.860  12.813   5.975  0.1432 -0.1151  0.1977
 1015YOPC   GL111631   8.870  13.194   6.190  0.2654 -0.0699  0.4698
 1015YOPC   GL211632   9.117  13.345   6.118  0.0244  0.2776 -0.1823
 1015YOPC   C1A11633   8.592  13.385   6.593 -0.2520  0.0816 -0.3113
 1015YOPC   D2A11634   8.513  13.463   6.983 -0.0175 -0.1979 -0.0806
 1015YOPC   C3A11635   8.790  13.196   7.317 -0.0645  0.0078 -0.2255
 1015YOPC   C4A11636   8.916  12.724   7.267 -0.3506 -0.0122  0.0317
 1015YOPC   C1B11637   8.983  13.623   6.460 -0.1171  0.0907  0.1631
 1015YOPC   C2B11638   8.983  13.596   6.912  0.0466 -0.1347 -0.1463
 1015YOPC   D3B11639   8.741  13.847   7.215  0.0225 -0.1659 -0.3114
 1015YOPC   C4B11640   8.504  14.184   7.530  0.2048  0.2994  0.1333
 1016YOPC   NC311641  17.845   6.560   6.485 -0.2187 -0.0120  0.0643
 1016YOPC   PO411642  17.875   6.132   6.475 -0.1786 -0.1248 -0.1685
 1016YOPC   GL111643  18.164   6.182   6.739  0.3886  0.3130  0.1032
 1016YOPC   GL211644  18.028   6.391   6.920  0.1326  0.0667  0.0330
 1016YOPC   C1A11645  18.428   5.957   6.931 -0.2693  0.0612 -0.1311
 1016YOPC   D2A11646  18.305   5.714   7.200 -0.2922 -0.0001  0.1854
 1016YOPC   C3A11647  18.348   5.769   7.624  0.3654  0.4597 -0.0179
 1016YOPC   C4A11648  18.345   6.196   7.827 -0.0634  0.2072 -0.0239
 1016YOPC   C1B11649  18.001   6.157   7.288 -0.0064  0.1765 -0.2636
 1016YOPC   C2B11650  17.816   5.948   7.605 -0.0419  0.0181  0.1376
 1016YOPC   D3B11651  17.913   5.997   8.026  0.2442 -0.1505  0.0828
 1016YOPC   C4B11652  18.178   6.289   8.251 -0.1933  0.0547 -0.1065
 1017YOPC   NC311653   4.465   1.846   6.469 -0.1494  0.1212 -0.2691
 1017YOPC   PO411654   4.227   1.487   6.320 -0.0926 -0.3322 -0.1550
 1017YOPC   GL111655   4.399   1.248   6.629 -0.0226  0.0014 -0.0875
 1017YOPC   GL211656   4.557   1.457   6.780 -0.1766  0.2460 -0.0614
 1017YOPC   C1A11657   4.446   1.026   7.057 -0.1387  0.2092 -0.0508
 1017YOPC   D2A11658   4.427   1.105   7.419  0.1466 -0.2704 -0.3421
 1017YOPC   C3A11659   4.189   1.104   7.782  0.1008  0.2801 -0.2446
 1017YOPC   C4A11660   4.096   1.054   8.201 -0.1137 -0.0126  0.1665
 1017YOPC   C1B11661   4.706   1.493   7.246  0.2383 -0.0374  0.0044
 1017YOPC   C2B11662   4.745   1.595   7.689 -0.1977 -0.1006  0.2468
 1017YOPC   D3B11663   5.044   1.449   7.998 -0.2274  0.0194 -0.1540
 1017YOPC   C4B11664   4.999   1.024   8.263 -0.0761  0.1221  0.0181
 1018YOPC   NC311665   8.456   1.438   5.829 -0.1192 -0.1651 -0.0081
 1018YOPC   PO411666   8.463   1.758   6.122  0.1566 -0.0885  0.0061
 1018YOPC   GL111667   8.320   1.894   6.413  0.0181  0.1898 -0.0904
 1018YOPC   GL211668   8.037   1.778   6.370  0.2063 -0.3487 -0.1634
 1018YOPC   C1A11669   8.355   2.118   6.781 -0.1360  0.0430 -0.1367
 1018YOPC   D2A11670   8.270   2.131   7.110  0.2539  0.0924  0.4312
 1018YOPC   C3A11671   8.347   2.184   7.554  0.3348  0.0136  0.0127
 1018YOPC   C4A11672   8.513   2.451   7.699 -0.1462  0.0528  0.0593
 1018YOPC   C1B11673   8.035   1.736   6.833  0.0527 -0.0059  0.1134
 1018YOPC   C2B11674   8.176   1.668   7.196  0.1277  0.0590  0.0258
 1018YOPC   D3B11675   7.982   1.561   7.589 -0.0548 -0.0833 -0.0980
 1018YOPC   C4B11676   8.089   1.528   7.992  0.3150 -0.0344  0.1289
 1019YOPC   NC311677  15.923   8.502   6.487 -0.2762 -0.3499 -0.2447
 1019YOPC   PO411678  15.957   8.966   6.564  0.0635 -0.0977 -0.1821
 1019YOPC   GL111679  16.082   8.971   6.964  0.0510  0.1247 -0.1631
 1019YOPC   GL211680  16.012   8.622   6.985  0.3194 -0.1645  0.0887
 1019YOPC   C1A11681  16.238   9.247   7.298  0.3264  0.1218  0.2423
 1019YOPC   D2A11682  16.430   9.246   7.667 -0.3098  0.2393  0.2553
 1019YOPC   C3A11683  16.678   9.507   7.959  0.2515  0.0405  0.2580
 1019YOPC   C4A11684  17.003   9.492   8.162 -0.2060  0.1636 -0.0327
 1019YOPC   C1B11685  15.868   8.670   7.277  0.0251  0.1491  0.1162
 1019YOPC   C2B11686  15.918   8.884   7.595  0.1717  0.0812  0.2272
 1019YOPC   D3B11687  15.927   8.782   7.952 -0.0309  0.0897 -0.0120
 1019YOPC   C4B11688  16.195   8.622   8.304 -0.1014  0.4351 -0.2103
 1020YOPC   NC311689  16.964  12.036   6.154  0.1344 -0.0426  0.1734
 1020YOPC   PO411690  17.208  11.840   6.486 -0.1501  0.0331 -0.1971
 1020YOPC   GL111691  17.442  11.664   6.743 -0.2767 -0.2144  0.1481
 1020YOPC   GL211692  17.347  11.660   7.036 -0.1398  0.0698  0.4253
 1020YOPC   C1A11693  17.818  11.836   6.826 -0.0364  0.2300 -0.1522
 1020YOPC   D2A11694  18.029  12.014   7.069 -0.0027 -0.0700 -0.0814
 1020YOPC   C3A11695  18.103  12.008   7.470  0.3100  0.0042  0.0050
 1020YOPC   C4A11696  18.384  12.054   7.827 -0.0142 -0.1880  0.0100
 1020YOPC   C1B11697  17.231  11.731   7.457  0.0394  0.0958  0.1924
 1020YOPC   C2B11698  17.135  11.862   7.835  0.4624 -0.0365  0.0763
 1020YOPC   D3B11699  17.325  12.063   8.178  0.1946  0.5073 -0.1183
 1020YOPC   C4B11700  17.287  12.216   8.521 -0.1182 -0.1603  0.1678
 1021YOPC   NC311701  15.444   5.513   6.030 -0.0454 -0.1300 -0.2470
 1021YOPC   PO411702  15.315   5.076   5.972 -0.1221 -0.0947 -0.1257
 1021YOPC   GL111703  15.358   5.071   6.317 -0.1877  0.0912 -0.1917
 1021YOPC   GL211704  15.587   4.822   6.455  0.0380  0.3982 -0.2032
 1021YOPC   C1A11705  15.547   5.309   6.674 -0.1528  0.1400  0.0572
 1021YOPC   D2A11706  15.786   5.458   6.893 -0.3294 -0.0406 -0.0327
 1021YOPC   C3A11707  15.770   5.149   7.243 -0.2166  0.3275 -0.0349
 1021YOPC   C4A11708  15.744   5.013   7.635 -0.0687 -0.0264  0.1982
 1021YOPC   C1B11709  15.554   4.877   6.938  0.2676  0.1630 -0.1494
 1021YOPC   C2B11710  15.593   4.610   7.212 -0.3162  0.0371  0.1491
 1021YOPC   D3B11711  15.770   4.486   7.663  0.1372 -0.0866 -0.1739
 1021YOPC   C4B11712  16.230   4.481   7.809 -0.1652 -0.0396 -0.0113
 1022YOPC   NC311713   8.272   8.263   6.047 -0.1076  0.0923 -0.1635
 1022YOPC   PO411714   8.064   8.246   6.412  0.0912  0.1692  0.0881
 1022YOPC   GL111715   7.775   8.179   6.821  0.0314  0.3383  0.1423
 1022YOPC   GL211716   7.566   7.921   6.838  0.1048 -0.0002  0.1292
 1022YOPC   C1A11717   7.916   8.068   7.234 -0.0176  0.1598  0.0788
 1022YOPC   D2A11718   7.777   7.889   7.540 -0.2549  0.1844  0.1074
 1022YOPC   C3A11719   7.915   7.905   7.911 -0.0467 -0.0964 -0.0705
 1022YOPC   C4A11720   8.142   8.036   8.218 -0.1163 -0.0444 -0.0921
 1022YOPC   C1B11721   7.429   8.061   7.208  0.0994  0.1828  0.1064
 1022YOPC   C2B11722   7.136   8.053   7.561 -0.2431  0.1055 -0.2277
 1022YOPC   D3B11723   7.402   7.797   7.893 -0.0775  0.2757  0.5100
 1022YOPC   C4B11724   7.564   7.601   8.114 -0.0233  0.2217  0.0139
 1023YOPC   NC311725  11.249   2.095   6.072 -0.1390  0.1337 -0.1156
 1023YOPC   PO411726  11.697   1.993   5.934  0.2491  0.0641  0.0034
 1023YOPC   GL111727  11.733   2.001   6.321  0.0205 -0.1409 -0.0397
 1023YOPC   GL211728  11.742   2.148   6.510 -0.1383 -0.2626 -0.3101
 1023YOPC   C1A11729  11.731   1.702   6.715 -0.2579  0.0195  0.1971
 1023YOPC   D2A11730  11.980   1.587   7.020 -0.0650  0.1579 -0.0997
 1023YOPC   C3A11731  11.829   1.315   7.314  0.1023 -0.1862 -0.2081
 1023YOPC   C4A11732  11.454   1.230   7.485 -0.0364 -0.3696  0.1349
 1023YOPC   C1B11733  11.847   2.088   6.996  0.4269  0.1701  0.3363
 1023YOPC   C2B11734  11.773   1.941   7.375 -0.2179 -0.0880  0.0740
 1023YOPC   D3B11735  11.370   1.707   7.567  0.0581  0.0065  0.1507
 1023YOPC   C4B11736  11.081   1.546   7.467 -0.1860  0.0774  0.2203
 1024YOPC   NC311737  16.602  16.851   6.634 -0.0296  0.1770  0.4469
 1024YOPC   PO411738  16.802  17.214   6.832 -0.0031  0.0456 -0.1652
 1024YOPC   GL111739  16.752  17.000   7.105 -0.0928  0.1770  0.0968
 1024YOPC   GL211740  16.485  16.892   7.290 -0.1292 -0.0888 -0.0734
 1024YOPC   C1A11741  16.649  17.289   7.525  0.3029  0.2191 -0.0885
 1024YOPC   D2A11742  16.265  17.369   7.731  0.1336  0.1663 -0.2160
 1024YOPC   C3A11743  16.274  17.436   8.170  0.0559 -0.0378  0.1286
 1024YOPC   C4A11744  16.441  17.647   8.474  0.0198  0.3638 -0.0170
 1024YOPC   C1B11745  16.477  16.916   7.885  0.3413 -0.1556  0.3542
 1024YOPC   C2B11746  16.339  16.700   8.230  0.0972 -0.1413 -0.2161
 1024YOPC   D3B11747  16.284  16.765   8.704  0.1387  0.2504  0.2191
 1024YOPC   C4B11748  16.279  16.769   9.174 -0.2338 -0.0645 -0.0338
 1025YOPC   NC311749  16.809  17.689   6.757  0.1921 -0.0162  0.3460
 1025YOPC   PO411750  17.218  17.846   6.549 -0.2197  0.1231 -0.3134
 1025YOPC   GL111751  17.315  17.773   7.114 -0.0804 -0.0517 -0.1857
 1025YOPC   GL211752  17.062  17.551   7.171  0.0050 -0.0930  0.2808
 1025YOPC   C1A11753  17.257  18.036   7.439 -0.1085  0.0115 -0.2275
 1025YOPC   D2A11754  17.064  18.030   7.875  0.3548 -0.0396  0.0058
 1025YOPC   C3A11755  17.056  18.249   8.250  0.0073  0.0721 -0.2808
 1025YOPC   C4A11756  17.183  18.624   8.420 -0.2563  0.1997  0.1179
 1025YOPC   C1B11757  17.074  17.586   7.604 -0.0874  0.0021 -0.1542
 1025YOPC   C2B11758  17.177  17.589   7.987  0.3745  0.0174 -0.0310
 1025YOPC   D3B11759  16.863  17.798   8.284 -0.2240  0.1250  0.3601
 1025YOPC   C4B11760  16.848  17.970   8.680  0.2115 -0.1818  0.1448
 1026YOPC   NC311761   7.205  10.533   6.522  0.1553  0.0712  0.0007
 1026YOPC   PO411762   7.571  10.312   6.476  0.1976 -0.1818 -0.0416
 1026YOPC   GL111763   7.610  10.245   6.911  0.0733  0.2546 -0.1198
 1026YOPC   GL211764   7.380  10.143   7.199 -0.1225  0.0756 -0.0339
 1026YOPC   C1A11765   7.916  10.394   7.219 -0.0494  0.0129 -0.0744
 1026YOPC   D2A11766   8.043  10.354   7.666 -0.1509 -0.0908 -0.1578
 1026YOPC   C3A11767   7.948  10.715   7.996 -0.0635 -0.3633 -0.1965
 1026YOPC   C4A11768   7.715  10.889   8.332 -0.4531 -0.1226  0.1960
 1026YOPC   C1B11769   7.166  10.338   7.484  0.3409  0.1218 -0.0831
 1026YOPC   C2B11770   7.001  10.510   7.807  0.0529 -0.5017  0.2658
 1026YOPC   D3B11771   7.063  10.376   8.129 -0.1427  0.0199  0.0426
 1026YOPC   C4B11772   7.315  10.023   8.286  0.2235  0.2042 -0.3604
 1027YOPC   NC311773   5.084   3.898   5.737 -0.2029 -0.3575 -0.1083
 1027YOPC   PO411774   4.721   4.037   6.010  0.1220 -0.0162  0.2252
 1027YOPC   GL111775   4.822   3.858   6.337 -0.0407  0.0092  0.0034
 1027YOPC   GL211776   5.012   3.529   6.267  0.1027 -0.1341  0.1755
 1027YOPC   C1A11777   4.653   3.905   6.721 -0.1766 -0.0003  0.1566
 1027YOPC   D2A11778   4.773   3.714   7.071 -0.1126  0.2660  0.2185
 1027YOPC   C3A11779   5.144   3.679   7.395 -0.2741  0.0908 -0.0572
 1027YOPC   C4A11780   5.074   3.526   7.849  0.0879 -0.0666 -0.1216
 1027YOPC   C1B11781   5.143   3.607   6.700 -0.2615 -0.1535 -0.3932
 1027YOPC   C2B11782   5.420   3.549   7.001  0.1516 -0.0696  0.0760
 1027YOPC   D3B11783   5.796   3.542   6.891  0.1763  0.0153  0.2327
 1027YOPC   C4B11784   6.047   3.356   7.304  0.2713  0.3698  0.2279
 1028YOPC   NC311785   5.929  12.082   6.611  0.4313 -0.2184 -0.0516
 1028YOPC   PO411786   6.164  12.426   6.577 -0.1812 -0.0669  0.0704
 1028YOPC   GL111787   6.499  12.283   6.899 -0.0286 -0.1045  0.2314
 1028YOPC   GL211788   6.770  12.103   6.838 -0.1434  0.1373  0.0706
 1028YOPC   C1A11789   6.653  12.329   7.290  0.1974  0.2841  0.1441
 1028YOPC   D2A11790   6.689  12.564   7.568 -0.1496  0.0774  0.2243
 1028YOPC   C3A11791   6.578  12.466   7.998  0.1077  0.0706  0.0654
 1028YOPC   C4A11792   6.392  12.573   8.361  0.0809  0.3039 -0.2344
 1028YOPC   C1B11793   6.986  11.821   7.178 -0.0619  0.2853  0.1309
 1028YOPC   C2B11794   7.157  11.806   7.573 -0.1249 -0.0106  0.1256
 1028YOPC   D3B11795   7.186  11.573   7.849  0.0126 -0.0430  0.4080
 1028YOPC   C4B11796   7.018  11.541   8.223  0.1032 -0.0418  0.2150
 1029YOPC   NC311797  12.937   7.969   6.085  0.0047 -0.0373 -0.0433
 1029YOPC   PO411798  12.455   7.852   6.234  0.1369 -0.2753 -0.2812
 1029YOPC   GL111799  12.626   7.718   6.541 -0.0195  0.0648 -0.1219
 1029YOPC   GL211800  12.723   7.380   6.395 -0.1487 -0.4736  0.2335
 1029YOPC   C1A11801  12.661   7.620   7.025 -0.2750  0.1029  0.2767
 1029YOPC   D2A11802  12.791   7.605   7.358  0.3352 -0.2758 -0.0157
 1029YOPC   C3A11803  12.590   7.362   7.781  0.0530  0.2389  0.1832
 1029YOPC   C4A11804  12.567   7.469   8.237 -0.1382 -0.1666  0.1299
 1029YOPC   C1B11805  12.969   7.333   6.779 -0.0371 -0.3363 -0.0171
 1029YOPC   C2B11806  12.998   7.111   7.142 -0.0268 -0.2561  0.1107
 1029YOPC   D3B11807  12.851   7.035   7.553  0.2285 -0.0519 -0.1838
 1029YOPC   C4B11808  12.826   6.755   7.755  0.1759 -0.0477  0.1742
 1030YOPC   NC311809   5.304  15.590   6.333  0.0333 -0.0132  0.4299
 1030YOPC   PO411810   5.094  15.973   6.209 -0.0797  0.0434  0.2220
 1030YOPC   GL111811   5.278  16.053   6.526 -0.1190  0.3217 -0.0720
 1030YOPC   GL211812   5.266  15.834   6.754  0.1775  0.3578  0.1409
 1030YOPC   C1A11813   5.673  16.229   6.751 -0.1096 -0.0881  0.2686
 1030YOPC   D2A11814   6.024  16.494   7.053  0.0654  0.0079 -0.0663
 1030YOPC   C3A11815   5.952  16.620   7.429  0.3197 -0.0470  0.2100
 1030YOPC   C4A11816   5.806  16.416   7.738 -0.0686 -0.1665 -0.2643
 1030YOPC   C1B11817   5.245  15.808   7.174  0.2318 -0.0495 -0.0891
 1030YOPC   C2B11818   5.480  15.496   7.572  0.0679  0.0016 -0.0359
 1030YOPC   D3B11819   5.784  15.245   7.870  0.0454  0.3730  0.2240
 1030YOPC   C4B11820   5.942  15.342   8.296  0.2173  0.1074  0.1512
 1031YOPC   NC311821   3.200   3.036   6.224  0.1797  0.3090  0.0964
 1031YOPC   PO411822   3.078   3.374   6.314 -0.2948  0.1171 -0.0082
 1031YOPC   GL111823   3.069   3.460   6.777  0.2926 -0.1964  0.1067
 1031YOPC   GL211824   2.752   3.453   6.733 -0.1451  0.1180  0.1674
 1031YOPC   C1A11825   3.242   3.752   7.175  0.0646  0.0564  0.2370
 1031YOPC   D2A11826   3.350   3.863   7.680  0.2934 -0.0370 -0.0885
 1031YOPC   C3A11827   3.192   3.691   8.079 -0.0742  0.1550 -0.2998
 1031YOPC   C4A11828   3.327   3.709   8.459 -0.5073  0.2921  0.4490
 1031YOPC   C1B11829   2.756   3.462   7.176  0.1730 -0.0398 -0.1190
 1031YOPC   C2B11830   2.946   3.517   7.563  0.1083  0.3703 -0.0556
 1031YOPC   D3B11831   2.696   3.570   7.881  0.2600  0.2666  0.3347
 1031YOPC   C4B11832   2.363   3.901   8.081 -0.1408 -0.0824  0.0906
 1032YOPC   NC311833   4.798   5.488   5.919 -0.1899  0.5567  0.1181
 1032YOPC   PO411834   5.257   5.454   6.028 -0.1123 -0.0511  0.0247
 1032YOPC   GL111835   5.191   5.409   6.467 -0.1157 -0.2770  0.0990
 1032YOPC   GL211836   5.117   5.804   6.535 -0.1564 -0.1092  0.3880
 1032YOPC   C1A11837   5.194   5.100   6.719 -0.1609 -0.1031  0.2372
 1032YOPC   D2A11838   5.373   5.068   7.046 -0.1657  0.1789 -0.1123
 1032YOPC   C3A11839   5.600   5.347   7.273 -0.0693  0.0877  0.2389
 1032YOPC   C4A11840   5.948   5.263   7.462  0.0236 -0.1213  0.0147
 1032YOPC   C1B11841   5.196   5.881   6.958 -0.3535  0.1852  0.0959
 1032YOPC   C2B11842   5.281   5.886   7.430 -0.0429 -0.0370 -0.0849
 1032YOPC   D3B11843   5.455   5.617   7.732 -0.2505  0.0466  0.3080
 1032YOPC   C4B11844   5.724   5.337   7.924 -0.2661  0.1404  0.0319
 1033YOPC   NC311845   2.210   9.702   6.345  0.3286 -0.1018 -0.0634
 1033YOPC   PO411846   1.926  10.036   6.408 -0.2436 -0.2785 -0.0770
 1033YOPC   GL111847   1.926   9.955   6.802  0.1379 -0.0176 -0.4233
 1033YOPC   GL211848   2.191  10.127   6.972  0.1828 -0.2930 -0.0483
 1033YOPC   C1A11849   1.730  10.126   7.173 -0.1602 -0.0377  0.0936
 1033YOPC   D2A11850   1.789  10.462   7.479  0.0477 -0.3571  0.0092
 1033YOPC   C3A11851   2.191  10.452   7.722  0.3293 -0.0088 -0.0873
 1033YOPC   C4A11852   2.441  10.434   7.967  0.1048 -0.0020 -0.0478
 1033YOPC   C1B11853   2.180  10.066   7.410 -0.1428  0.1711  0.0189
 1033YOPC   C2B11854   1.935   9.997   7.674  0.1207 -0.0441 -0.0908
 1033YOPC   D3B11855   1.679   9.705   7.934 -0.0598  0.1400  0.0783
 1033YOPC   C4B11856   1.458   9.444   8.165 -0.1876  0.0893  0.1998
 1034YOPC   NC311857   9.077  16.690   5.628 -0.0269 -0.4102 -0.0947
 1034YOPC   PO411858   8.896  16.449   5.952  0.4004  0.2755 -0.3961
 1034YOPC   GL111859   8.568  16.684   6.051 -0.1337 -0.1351  0.3538
 1034YOPC   GL211860   8.748  16.958   6.031  0.0964  0.2086  0.1244
 1034YOPC   C1A11861   8.258  16.774   6.267 -0.1035  0.0635  0.1075
 1034YOPC   D2A11862   8.367  16.729   6.670  0.0774  0.0826  0.2263
 1034YOPC   C3A11863   8.546  16.478   6.916 -0.1240  0.0950  0.0364
 1034YOPC   C4A11864   8.690  16.168   6.855 -0.1201  0.0445 -0.2317
 1034YOPC   C1B11865   8.811  16.834   6.499 -0.1581 -0.1555 -0.1412
 1034YOPC   C2B11866   8.757  16.944   7.005  0.1209  0.3471  0.0707
 1034YOPC   D3B11867   8.726  16.614   7.352 -0.1947 -0.0285 -0.3712
 1034YOPC   C4B11868   8.945  16.332   7.749 -0.1450 -0.0130  0.3801
 1035YOPC   NC311869  13.736  17.497   6.217  0.0788 -0.4860 -0.1022
 1035YOPC   PO411870  13.499  17.721   6.029  0.1251 -0.1301  0.0824
 1035YOPC   GL111871  13.466  17.824   6.438 -0.4933 -0.0672 -0.1789
 1035YOPC   GL211872  13.601  17.611   6.684 -0.0413  0.0105 -0.1363
 1035YOPC   C1A11873  13.193  17.936   6.812  0.1524  0.2279 -0.1020
 1035YOPC   D2A11874  13.258  18.134   7.200 -0.2975 -0.1223  0.0871
 1035YOPC   C3A11875  13.115  18.164   7.468  0.4000  0.2125  0.0772
 1035YOPC   C4A11876  13.045  18.189   7.869  0.0772 -0.0365 -0.3170
 1035YOPC   C1B11877  13.481  17.700   7.130 -0.1011 -0.3264  0.2032
 1035YOPC   C2B11878  13.274  17.631   7.450  0.0137  0.0663 -0.0137
 1035YOPC   D3B11879  12.935  17.728   7.241 -0.1593 -0.1853 -0.2806
 1035YOPC   C4B11880  12.772  17.994   7.143 -0.0425  0.1300  0.1304
 1036YOPC   NC311881   2.864   6.735   5.967  0.0614  0.1581 -0.0704
 1036YOPC   PO411882   2.625   6.642   6.354 -0.2922  0.1701 -0.2003
 1036YOPC   GL111883   2.615   6.764   6.836  0.1768  0.0892 -0.3395
 1036YOPC   GL211884   2.803   7.117   6.829  0.1820 -0.1692 -0.0430
 1036YOPC   C1A11885   2.411   6.961   7.170 -0.4409 -0.3290  0.2305
 1036YOPC   D2A11886   2.371   6.917   7.565 -0.2626 -0.0233 -0.0601
 1036YOPC   C3A11887   2.275   7.146   7.914  0.0689  0.1499  0.1097
 1036YOPC   C4A11888   1.917   7.254   8.048  0.1691  0.1078  0.0409
 1036YOPC   C1B11889   2.648   7.444   7.142 -0.0065  0.2098  0.1529
 1036YOPC   C2B11890   2.549   7.399   7.558 -0.0861  0.1879  0.2129
 1036YOPC   D3B11891   2.745   7.325   7.875  0.1006 -0.0137  0.0149
 1036YOPC   C4B11892   3.093   7.097   8.126  0.1407 -0.0324 -0.0111
 1037YOPC   NC311893   5.641  13.057   6.228 -0.2374 -0.0392 -0.0631
 1037YOPC   PO411894   5.914  12.947   6.520 -0.1106 -0.0006  0.1476
 1037YOPC   GL111895   5.934  12.730   6.899  0.0913 -0.3296 -0.1640
 1037YOPC   GL211896   5.681  12.781   7.119 -0.1623  0.2950 -0.1260
 1037YOPC   C1A11897   6.180  12.576   7.174 -0.1370  0.0169  0.0970
 1037YOPC   D2A11898   6.235  12.221   7.510  0.1219  0.1355 -0.0375
 1037YOPC   C3A11899   6.148  12.211   7.977  0.2059 -0.0127 -0.0043
 1037YOPC   C4A11900   6.089  12.187   8.322 -0.3437 -0.0371 -0.0807
 1037YOPC   C1B11901   5.913  13.177   7.265 -0.1162  0.2813 -0.0924
 1037YOPC   C2B11902   5.730  13.356   7.592  0.1420 -0.2190 -0.0825
 1037YOPC   D3B11903   6.070  13.222   7.834 -0.1274 -0.0908  0.2352
 1037YOPC   C4B11904   6.369  13.032   8.174  0.2733 -0.0957  0.2194
 1038YOPC   NC311905  11.136  11.393   5.931  0.1869 -0.0028 -0.5716
 1038YOPC   PO411906  10.808  11.212   6.168  0.1835 -0.2014 -0.2313
 1038YOPC   GL111907  11.069  11.044   6.427 -0.1696 -0.1117  0.0424
 1038YOPC   GL211908  11.372  11.285   6.429  0.0595 -0.1443 -0.2038
 1038YOPC   C1A11909  11.197  11.057   6.870  0.2677 -0.0885 -0.2190
 1038YOPC   D2A11910  11.317  10.901   7.257 -0.0412 -0.0406 -0.1933
 1038YOPC   C3A11911  11.498  10.668   7.576 -0.1964  0.0229 -0.2961
 1038YOPC   C4A11912  11.547  10.429   7.960 -0.1814 -0.1292 -0.0553
 1038YOPC   C1B11913  11.399  11.510   6.852  0.1249  0.1192  0.1024
 1038YOPC   C2B11914  11.397  11.544   7.249 -0.0061  0.0799  0.0138
 1038YOPC   D3B11915  11.443  11.223   7.599 -0.1905 -0.2258  0.0449
 1038YOPC   C4B11916  11.420  11.045   8.013 -0.1455  0.0075  0.1536
 1039YOPC   NC311917  12.142   1.310   5.753 -0.0516  0.1866 -0.3986
 1039YOPC   PO411918  12.292   1.182   6.219 -0.0150  0.1743  0.0538
 1039YOPC   GL111919  12.262   1.422   6.585  0.1843 -0.2531 -0.0102
 1039YOPC   GL211920  11.971   1.218   6.653  0.1852  0.0543  0.0442
 1039YOPC   C1A11921  12.440   1.441   6.976 -0.3202 -0.0254 -0.1445
 1039YOPC   D2A11922  12.408   1.497   7.478  0.1263 -0.0868 -0.3266
 1039YOPC   C3A11923  11.999   1.625   7.693 -0.1523  0.0650  0.0332
 1039YOPC   C4A11924  11.663   1.401   7.899  0.2489  0.0776  0.2898
 1039YOPC   C1B11925  12.038   1.031   6.946  0.1484  0.0498 -0.0464
 1039YOPC   C2B11926  11.868   0.750   7.222 -0.0683 -0.2713  0.1207
 1039YOPC   D3B11927  11.809   0.789   7.607  0.2649 -0.0322 -0.1531
 1039YOPC   C4B11928  11.845   0.838   8.048 -0.0528  0.0075  0.1658
 1040YOPC   NC311929  11.044  16.143   6.042  0.0944 -0.1165  0.0908
 1040YOPC   PO411930  10.992  16.616   5.758  0.1542  0.0873 -0.1315
 1040YOPC   GL111931  11.018  16.611   6.200 -0.1981 -0.1448 -0.0591
 1040YOPC   GL211932  10.914  16.450   6.561 -0.1227  0.0480  0.1228
 1040YOPC   C1A11933  11.136  16.903   6.517 -0.1108 -0.0599  0.1528
 1040YOPC   D2A11934  10.932  17.087   6.802 -0.0221  0.1910 -0.0048
 1040YOPC   C3A11935  10.813  16.946   7.269  0.1005 -0.2153  0.0658
 1040YOPC   C4A11936  10.739  16.771   7.666  0.1296  0.1598  0.1950
 1040YOPC   C1B11937  10.671  16.665   6.890 -0.1918 -0.1157 -0.1445
 1040YOPC   C2B11938  10.900  16.415   7.299  0.0197  0.4041 -0.2623
 1040YOPC   D3B11939  10.927  15.974   7.330 -0.1610  0.0268  0.1023
 1040YOPC   C4B11940  10.689  15.872   7.787  0.1284  0.3752 -0.2673
 1041YOPC   NC311941   4.988   2.611   6.263 -0.2823  0.2324  0.0222
 1041YOPC   PO411942   4.776   2.283   6.492  0.2134 -0.0066  0.2409
 1041YOPC   GL111943   4.609   2.368   6.980 -0.3136 -0.1573 -0.0566
 1041YOPC   GL211944   4.368   2.162   6.979 -0.3197  0.2955  0.0362
 1041YOPC   C1A11945   4.470   2.539   7.417 -0.1014 -0.2392  0.2931
 1041YOPC   D2A11946   4.313   2.546   7.765  0.0581  0.0315 -0.0018
 1041YOPC   C3A11947   4.562   2.670   8.138 -0.3467  0.0506  0.1855
 1041YOPC   C4A11948   4.439   2.811   8.520  0.0406 -0.6420  0.2911
 1041YOPC   C1B11949   4.201   2.639   6.932  0.1073  0.1974 -0.0321
 1041YOPC   C2B11950   3.968   2.982   6.922 -0.2682  0.1132  0.0387
 1041YOPC   D3B11951   4.082   3.332   7.090 -0.0360 -0.1631 -0.1213
 1041YOPC   C4B11952   4.276   3.654   6.944 -0.3246 -0.5056  0.0674
 1042YOPC   NC311953   3.375   3.427   5.926 -0.1209 -0.1095 -0.3465
 1042YOPC   PO411954   3.855   3.503   5.950  0.0794 -0.0312  0.0203
 1042YOPC   GL111955   4.016   3.473   6.405  0.1157  0.0583 -0.1692
 1042YOPC   GL211956   4.236   3.324   6.481  0.2590  0.1153  0.0875
 1042YOPC   C1A11957   3.918   3.823   6.740  0.1339 -0.0511  0.1414
 1042YOPC   D2A11958   3.833   3.868   7.166  0.1427  0.0209  0.1382
 1042YOPC   C3A11959   3.933   3.760   7.619 -0.0402  0.3557 -0.1497
 1042YOPC   C4A11960   4.042   3.659   7.980  0.1902  0.1772 -0.1910
 1042YOPC   C1B11961   4.608   3.375   6.714  0.0603  0.0366  0.1774
 1042YOPC   C2B11962   4.947   3.216   7.038  0.0720  0.1359 -0.2138
 1042YOPC   D3B11963   5.105   3.125   7.451 -0.0391  0.0514 -0.0373
 1042YOPC   C4B11964   5.205   2.995   7.882  0.0439  0.3347  0.0373
 1043YOPC   NC311965   4.877  13.759   6.323 -0.2685  0.3033 -0.1922
 1043YOPC   PO411966   4.549  13.745   6.604  0.3527 -0.2944  0.2743
 1043YOPC   GL111967   4.576  13.615   7.033 -0.3443  0.0403  0.2848
 1043YOPC   GL211968   4.603  13.294   7.174 -0.1362  0.1301  0.0073
 1043YOPC   C1A11969   4.787  13.721   7.290  0.1774 -0.1580 -0.0997
 1043YOPC   D2A11970   4.939  13.915   7.692  0.0619 -0.0877  0.0304
 1043YOPC   C3A11971   4.963  14.026   8.132  0.1648  0.2409  0.1537
 1043YOPC   C4A11972   5.059  13.736   8.434 -0.0820  0.0208 -0.2683
 1043YOPC   C1B11973   4.625  13.390   7.635 -0.1956  0.1221 -0.0433
 1043YOPC   C2B11974   4.666  13.453   8.055  0.0329 -0.1350  0.3477
 1043YOPC   D3B11975   5.001  13.269   8.260 -0.1555 -0.0582  0.0991
 1043YOPC   C4B11976   5.128  13.043   8.576  0.2183 -0.1668  0.0586
 1044YOPC   NC311977   2.883  14.287   6.028 -0.0035  0.1053  0.2595
 1044YOPC   PO411978   2.844  14.024   6.352  0.1427  0.4064  0.0041
 1044YOPC   GL111979   2.617  14.002   6.703 -0.0819 -0.0302 -0.0852
 1044YOPC   GL211980   2.449  14.298   6.834 -0.0022 -0.1836 -0.2386
 1044YOPC   C1A11981   2.506  13.780   7.077 -0.0890  0.4585 -0.0448
 1044YOPC   D2A11982   2.483  13.668   7.362 -0.1833  0.0522 -0.3498
 1044YOPC   C3A11983   2.194  13.523   7.632 -0.1943 -0.0890  0.0587
 1044YOPC   C4A11984   2.068  13.494   8.014  0.0134  0.2995  0.1600
 1044YOPC   C1B11985   2.525  14.314   7.188  0.1397  0.0433 -0.0059
 1044YOPC   C2B11986   2.381  14.136   7.517 -0.3157  0.0074 -0.1753
 1044YOPC   D3B11987   2.453  13.852   7.847 -0.0157  0.0422  0.1661
 1044YOPC   C4B11988   2.496  13.753   8.278  0.5541  0.1179 -0.0267
 1045YOPC   NC311989   0.666   5.107   6.065  0.2977 -0.1425  0.3000
 1045YOPC   PO411990   0.502   5.437   6.253 -0.0553 -0.2683 -0.0759
 1045YOPC   GL111991   0.611   5.228   6.603 -0.0889 -0.1370 -0.2728
 1045YOPC   GL211992   0.687   4.907   6.577  0.2036  0.1051  0.1804
 1045YOPC   C1A11993   0.681   5.325   6.987  0.1106 -0.1701  0.3225
 1045YOPC   D2A11994   0.457   5.390   7.430 -0.1630 -0.0031  0.3584
 1045YOPC   C3A11995  -0.033   5.315   7.389 -0.2830 -0.0169 -0.0472
 1045YOPC   C4A11996  -0.338   5.072   7.296 -0.0417 -0.0130 -0.1209
 1045YOPC   C1B11997   1.083   5.108   6.769 -0.2198  0.0280 -0.0205
 1045YOPC   C2B11998   1.469   5.167   6.975  0.0695 -0.0300 -0.0450
 1045YOPC   D3B11999   1.859   4.900   6.964 -0.1639 -0.3811  0.0396
 1045YOPC   C4B12000   2.228   5.046   7.000 -0.1077  0.3765  0.1801
 1046YOPC   NC312001   5.573   5.814   6.153 -0.1383 -0.1330 -0.0160
 1046YOPC   PO412002   5.985   5.947   6.077  0.2358  0.2350 -0.3051
 1046YOPC   GL112003   6.053   5.622   6.397 -0.2009  0.0507  0.1023
 1046YOPC   GL212004   6.401   5.711   6.466  0.0137  0.0125  0.1225
 1046YOPC   C1A12005   6.280   5.345   6.796  0.1000  0.1355 -0.1369
 1046YOPC   D2A12006   6.298   5.083   7.129  0.1568  0.1447  0.2247
 1046YOPC   C3A12007   6.208   4.758   7.519  0.0425 -0.2404 -0.0249
 1046YOPC   C4A12008   6.213   4.520   7.841  0.0439  0.2255  0.1154
 1046YOPC   C1B12009   6.520   5.746   6.873 -0.4380  0.0164 -0.0720
 1046YOPC   C2B12010   6.651   5.641   7.297  0.4072 -0.2029 -0.1762
 1046YOPC   D3B12011   6.470   5.397   7.462 -0.0864  0.1522 -0.2281
 1046YOPC   C4B12012   6.611   5.014   7.714 -0.0007 -0.0500 -0.1906
 1047YOPC   NC312013  14.083   1.684   6.048 -0.2068 -0.0689 -0.0256
 1047YOPC   PO412014  14.027   1.251   6.059 -0.0412  0.0502  0.0744
 1047YOPC   GL112015  14.135   1.303   6.444 -0.2805 -0.0435 -0.0905
 1047YOPC   GL212016  14.086   1.638   6.558 -0.0754  0.0040 -0.1152
 1047YOPC   C1A12017  14.512   1.387   6.804  0.0841  0.0745  0.0121
 1047YOPC   D2A12018  14.758   1.497   7.088 -0.0016 -0.0066  0.3313
 1047YOPC   C3A12019  14.675   1.648   7.518 -0.0108  0.0599 -0.3574
 1047YOPC   C4A12020  14.637   2.031   7.768  0.0688 -0.1727 -0.2645
 1047YOPC   C1B12021  13.998   2.032   6.787  0.3019  0.2050 -0.1111
 1047YOPC   C2B12022  13.737   2.347   6.968 -0.0670 -0.2378 -0.2334
 1047YOPC   D3B12023  13.926   2.347   7.324  0.1476  0.1587 -0.3930
 1047YOPC   C4B12024  14.154   2.165   7.725 -0.1194  0.2311 -0.1175
 1048YOPC   NC312025  10.232  15.996   6.011 -0.3845 -0.0489  0.3359
 1048YOPC   PO412026   9.936  16.153   5.838  0.1006  0.2625 -0.1794
 1048YOPC   GL112027  10.030  16.494   6.121  0.0417  0.0136 -0.0668
 1048YOPC   GL212028  10.080  16.807   5.977 -0.1598 -0.4688 -0.2336
 1048YOPC   C1A12029  10.087  16.647   6.539  0.0314 -0.2065 -0.2654
 1048YOPC   D2A12030  10.124  16.437   6.967 -0.2900 -0.2511  0.0682
 1048YOPC   C3A12031   9.875  16.405   7.369 -0.1890  0.1078 -0.0791
 1048YOPC   C4A12032   9.454  16.345   7.585 -0.0337  0.3282  0.1165
 1048YOPC   C1B12033  10.017  17.151   6.229 -0.1053  0.0400 -0.1156
 1048YOPC   C2B12034   9.824  17.455   6.457 -0.1108  0.0578  0.0710
 1048YOPC   D3B12035   9.635  17.282   6.817 -0.0684 -0.1948 -0.1227
 1048YOPC   C4B12036   9.811  17.351   7.238 -0.0400 -0.1183  0.1816
 1049YOPC   NC312037  16.315   1.188   5.945 -0.1388 -0.1162 -0.0856
 1049YOPC   PO412038  16.189   0.901   6.328  0.1191 -0.1461  0.1712
 1049YOPC   GL112039  16.122   1.047   6.643  0.0855 -0.0947 -0.1340
 1049YOPC   GL212040  16.192   1.263   6.780  0.0330 -0.2110 -0.0260
 1049YOPC   C1A12041  15.852   1.059   7.110  0.3213 -0.0683  0.0735
 1049YOPC   D2A12042  15.500   1.220   7.440  0.1096 -0.0569 -0.1108
 1049YOPC   C3A12043  15.504   1.345   7.809 -0.2216  0.0173  0.2433
 1049YOPC   C4A12044  15.668   1.320   8.216 -0.2047  0.1286  0.0888
 1049YOPC   C1B12045  16.212   1.387   7.215 -0.1903  0.2112 -0.1352
 1049YOPC   C2B12046  16.368   1.545   7.623  0.0156  0.2951  0.3538
 1049YOPC   D3B12047  16.149   1.597   8.027 -0.0221 -0.0940 -0.0618
 1049YOPC   C4B12048  16.134   1.947   8.217  0.1092 -0.0997  0.0748
 1050YOPC   NC312049  16.768   1.959   6.258 -0.0549  0.1220 -0.0283
 1050YOPC   PO412050  16.796   1.544   6.029  0.1544 -0.3840 -0.4172
 1050YOPC   GL112051  16.968   1.521   6.473  0.0414 -0.3656 -0.1370
 1050YOPC   GL212052  17.125   1.841   6.587  0.0530  0.2218  0.3966
 1050YOPC   C1A12053  17.043   1.303   6.818  0.1119  0.3996  0.3249
 1050YOPC   D2A12054  16.732   1.307   7.152  0.1119  0.1299  0.0281
 1050YOPC   C3A12055  16.845   1.344   7.521 -0.1772 -0.1566  0.0377
 1050YOPC   C4A12056  16.775   1.499   7.933  0.1864  0.5041  0.4389
 1050YOPC   C1B12057  17.195   2.015   7.054  0.0137  0.0010 -0.0419
 1050YOPC   C2B12058  17.165   2.258   7.475  0.0303 -0.1618 -0.1953
 1050YOPC   D3B12059  17.469   2.139   7.822  0.4391 -0.0554 -0.1209
 1050YOPC   C4B12060  17.636   1.806   8.005 -0.4318 -0.3001  0.1773
 1051YOPC   NC312061   9.278  12.485   5.810 -0.0285  0.0924 -0.0401
 1051YOPC   PO412062   9.644  12.779   5.817 -0.0707  0.0477 -0.1102
 1051YOPC   GL112063   9.738  12.788   6.179  0.1821 -0.0323 -0.3582
 1051YOPC   GL212064  10.019  12.603   6.381 -0.1378 -0.0897  0.0517
 1051YOPC   C1A12065   9.703  12.870   6.586  0.2048  0.1723  0.0406
 1051YOPC   D2A12066   9.405  12.707   6.996 -0.2826  0.3722 -0.1688
 1051YOPC   C3A12067   9.451  12.559   7.358  0.2433  0.0339  0.4219
 1051YOPC   C4A12068   9.670  12.480   7.625  0.2059 -0.0807  0.1419
 1051YOPC   C1B12069  10.129  12.756   6.760 -0.1518 -0.2685 -0.0846
 1051YOPC   C2B12070  10.527  12.708   6.933  0.0999 -0.2184 -0.0050
 1051YOPC   D3B12071  10.501  12.798   7.333  0.0408  0.0999 -0.1908
 1051YOPC   C4B12072  10.338  12.827   7.758 -0.1150  0.0368  0.2000
 1052YOPC   NC312073   4.061  14.996   6.419  0.1578 -0.1060  0.2298
 1052YOPC   PO412074   4.548  15.017   6.291 -0.2445 -0.3849 -0.1381
 1052YOPC   GL112075   4.684  15.126   6.626  0.1088 -0.3528 -0.3994
 1052YOPC   GL212076   4.721  15.027   6.964 -0.2185  0.2530  0.0234
 1052YOPC   C1A12077   4.892  15.499   6.832  0.0628  0.1055  0.1475
 1052YOPC   D2A12078   4.735  15.841   7.020  0.0921 -0.2246  0.3491
 1052YOPC   C3A12079   4.727  16.243   7.042 -0.2585  0.0362  0.0765
 1052YOPC   C4A12080   4.862  16.585   7.382  0.2604 -0.1398 -0.2777
 1052YOPC   C1B12081   4.555  15.007   7.293 -0.2261  0.0473  0.1280
 1052YOPC   C2B12082   4.628  15.010   7.675  0.1336  0.0790 -0.2253
 1052YOPC   D3B12083   4.560  15.335   7.918 -0.1840  0.0307 -0.0272
 1052YOPC   C4B12084   4.592  15.709   8.090  0.0004  0.2316 -0.0233
 1053YOPC   NC312085  10.583   3.589   5.825 -0.2042 -0.0946  0.1197
 1053YOPC   PO412086  10.615   3.251   5.771 -0.0788 -0.0093  0.2889
 1053YOPC   GL112087  10.421   3.327   6.225  0.2982  0.0556  0.1521
 1053YOPC   GL212088  10.709   3.343   6.271 -0.3580 -0.2014  0.2208
 1053YOPC   C1A12089  10.182   3.567   6.487 -0.0988  0.0670  0.0806
 1053YOPC   D2A12090   9.970   3.888   6.424  0.2168 -0.2665  0.1213
 1053YOPC   C3A12091   9.830   4.225   6.667  0.0130  0.1310  0.0249
 1053YOPC   C4A12092   9.921   4.406   7.073 -0.1740 -0.1395  0.0192
 1053YOPC   C1B12093  10.729   3.469   6.634  0.1749 -0.5397 -0.0994
 1053YOPC   C2B12094  10.460   3.532   6.933 -0.0030 -0.0044 -0.0308
 1053YOPC   D3B12095   9.978   3.721   6.889 -0.4396  0.2426 -0.0372
 1053YOPC   C4B12096   9.576   3.872   7.021 -0.0420 -0.0637 -0.0935
 1054YOPC   NC312097  10.817   5.738   5.680  0.0857  0.0889  0.3152
 1054YOPC   PO412098  10.535   5.475   5.774  0.1935 -0.1475 -0.1096
 1054YOPC   GL112099  10.422   5.225   6.168  0.2313 -0.2198 -0.0077
 1054YOPC   GL212100  10.560   5.296   6.455  0.0451  0.1677  0.0008
 1054YOPC   C1A12101  10.050   4.938   6.327  0.2010  0.2073 -0.2328
 1054YOPC   D2A12102   9.735   4.697   6.477  0.0383 -0.1524 -0.1920
 1054YOPC   C3A12103   9.560   4.701   6.862  0.2174  0.0848 -0.0276
 1054YOPC   C4A12104   9.451   4.525   7.164  0.2545 -0.4076 -0.2549
 1054YOPC   C1B12105  10.370   5.150   6.889  0.2802  0.0544  0.3599
 1054YOPC   C2B12106  10.219   5.284   7.297 -0.1086 -0.0966  0.2202
 1054YOPC   D3B12107   9.825   5.511   7.299  0.0589  0.2243  0.3584
 1054YOPC   C4B12108   9.479   5.803   7.321  0.1710  0.2253  0.3056
 1055YOPC   NC312109   4.165   6.011   5.947  0.1040  0.0867 -0.2264
 1055YOPC   PO412110   4.532   5.896   6.109  0.0220  0.0402 -0.1390
 1055YOPC   GL112111   4.359   5.927   6.463 -0.0102  0.2414 -0.0707
 1055YOPC   GL212112   4.676   5.921   6.713  0.0711 -0.0778  0.0368
 1055YOPC   C1A12113   4.255   5.720   6.834 -0.0424  0.0854 -0.2457
 1055YOPC   D2A12114   4.359   5.415   7.067  0.2217  0.1946 -0.0673
 1055YOPC   C3A12115   4.672   5.548   7.468 -0.0163  0.5094  0.0935
 1055YOPC   C4A12116   4.889   5.819   7.673 -0.2342  0.0180 -0.1303
 1055YOPC   C1B12117   4.754   5.903   7.151  0.3164  0.1445  0.2251
 1055YOPC   C2B12118   4.448   6.035   7.579  0.1582 -0.2577 -0.3732
 1055YOPC   D3B12119   4.282   6.468   7.758 -0.0244  0.0706  0.0021
 1055YOPC   C4B12120   4.267   6.873   7.796 -0.2266 -0.0586  0.0479
 1056YOPC   NC312121   3.246  14.947   6.614  0.0401 -0.2423 -0.0394
 1056YOPC   PO412122   3.615  15.211   6.630  0.2115  0.1467 -0.0781
 1056YOPC   GL112123   3.526  15.174   7.032  0.0188  0.3298  0.1961
 1056YOPC   GL212124   3.110  15.208   6.986 -0.0538  0.0427 -0.1085
 1056YOPC   C1A12125   3.245  15.038   7.390  0.1435 -0.0850 -0.2823
 1056YOPC   D2A12126   3.167  14.658   7.672  0.1757  0.0456 -0.3272
 1056YOPC   C3A12127   3.251  14.843   8.142  0.1084  0.3186 -0.0551
 1056YOPC   C4A12128   3.473  14.874   8.522  0.1857 -0.1138 -0.0942
 1056YOPC   C1B12129   2.785  15.283   7.282 -0.0052  0.1233 -0.5949
 1056YOPC   C2B12130   2.556  15.267   7.599 -0.2474 -0.0406 -0.1195
 1056YOPC   D3B12131   2.478  15.301   8.129  0.1971 -0.3481  0.1291
 1056YOPC   C4B12132   2.713  15.416   8.504 -0.0241  0.1053 -0.0721
 1057YOPC   NC312133   5.367  16.744   5.898 -0.0360  0.3830 -0.1313
 1057YOPC   PO412134   5.303  17.019   6.285  0.0029 -0.0957 -0.1679
 1057YOPC   GL112135   5.066  16.935   6.632  0.3404 -0.0517 -0.0749
 1057YOPC   GL212136   5.086  16.534   6.751 -0.2381  0.0998 -0.1450
 1057YOPC   C1A12137   4.879  16.915   6.984 -0.3325 -0.1881 -0.0960
 1057YOPC   D2A12138   4.589  17.015   7.393  0.0934 -0.0638  0.1857
 1057YOPC   C3A12139   4.796  17.009   7.700 -0.3047 -0.1560  0.2502
 1057YOPC   C4A12140   5.103  16.830   7.943 -0.1076  0.1356 -0.1292
 1057YOPC   C1B12141   5.185  16.265   7.044 -0.2233 -0.0156  0.1719
 1057YOPC   C2B12142   5.557  16.202   7.318 -0.0194 -0.0790  0.2195
 1057YOPC   D3B12143   5.514  15.977   7.680  0.2495 -0.1249 -0.1183
 1057YOPC   C4B12144   5.504  16.135   8.140 -0.3613 -0.2791 -0.0988
 1058YOPC   NC312145   4.694  12.601   6.670  0.0776 -0.1876 -0.2126
 1058YOPC   PO412146   4.993  12.367   6.602 -0.0208 -0.0100 -0.2678
 1058YOPC   GL112147   5.020  12.175   6.938 -0.2067 -0.0299  0.0069
 1058YOPC   GL212148   4.848  11.887   6.979  0.2644  0.0297 -0.0872
 1058YOPC   C1A12149   5.141  12.077   7.457 -0.0303  0.0575  0.0783
 1058YOPC   D2A12150   5.125  12.000   7.882 -0.1269  0.0218 -0.1449
 1058YOPC   C3A12151   5.063  12.260   8.229 -0.1252 -0.0692  0.0388
 1058YOPC   C4A12152   5.125  12.573   8.507 -0.2431  0.4361 -0.1617
 1058YOPC   C1B12153   4.681  11.746   7.459  0.1946  0.1590  0.0520
 1058YOPC   C2B12154   4.709  11.693   7.825 -0.2555  0.0448  0.2716
 1058YOPC   D3B12155   4.690  11.922   8.149  0.3170 -0.2986 -0.1614
 1058YOPC   C4B12156   4.413  11.910   8.558 -0.0156  0.2606  0.1530
 1059YOPC   NC312157  14.091   9.748   6.309  0.1469  0.0655 -0.0554
 1059YOPC   PO412158  14.417   9.998   6.227 -0.0033  0.3471  0.0950
 1059YOPC   GL112159  14.475  10.015   6.709 -0.2497  0.0362 -0.0301
 1059YOPC   GL212160  14.815  10.007   6.732 -0.0457 -0.0091  0.0391
 1059YOPC   C1A12161  14.475  10.230   7.133 -0.3595 -0.0483 -0.2020
 1059YOPC   D2A12162  14.587  10.171   7.506  0.1105  0.2099  0.3156
 1059YOPC   C3A12163  14.372  10.399   7.754 -0.0347  0.0106 -0.1381
 1059YOPC   C4A12164  14.130  10.356   8.175  0.4421  0.0122 -0.1422
 1059YOPC   C1B12165  14.919   9.756   7.121 -0.0661 -0.1896  0.2139
 1059YOPC   C2B12166  14.869   9.753   7.518  0.1992 -0.0159 -0.1844
 1059YOPC   D3B12167  14.804   9.494   7.811 -0.0515  0.0971 -0.2373
 1059YOPC   C4B12168  14.982   9.074   8.052 -0.1429  0.1889  0.1964
 1060YOPC   NC312169  12.533   5.063   5.557  0.2874 -0.2421 -0.1771
 1060YOPC   PO412170  12.689   5.347   5.873 -0.1017  0.2909 -0.2596
 1060YOPC   GL112171  12.847   5.390   6.262 -0.1749 -0.1702  0.0219
 1060YOPC   GL212172  12.980   5.084   6.324  0.0682  0.1763  0.2590
 1060YOPC   C1A12173  13.097   5.524   6.507  0.3461  0.1989 -0.1597
 1060YOPC   D2A12174  13.068   5.371   6.954 -0.3489 -0.0055  0.1078
 1060YOPC   C3A12175  13.097   5.694   7.263 -0.1884 -0.0056  0.1452
 1060YOPC   C4A12176  13.225   5.796   7.635 -0.3518 -0.3446 -0.1046
 1060YOPC   C1B12177  12.674   5.129   6.673 -0.2531 -0.4519 -0.1622
 1060YOPC   C2B12178  12.741   4.983   7.060  0.2595  0.1529  0.2582
 1060YOPC   D3B12179  12.694   5.368   7.297  0.4518  0.1095 -0.1152
 1060YOPC   C4B12180  12.745   5.515   7.684 -0.0141 -0.1322 -0.0995
 1061YOPC   NC312181   6.593   5.028   5.458 -0.0072 -0.1189  0.0136
 1061YOPC   PO412182   6.342   4.853   5.852 -0.2053 -0.1650  0.2856
 1061YOPC   GL112183   6.467   4.793   6.295  0.0331  0.2941 -0.0648
 1061YOPC   GL212184   6.153   4.875   6.494  0.3003 -0.3507 -0.0019
 1061YOPC   C1A12185   6.567   4.737   6.790  0.0001 -0.0174  0.0237
 1061YOPC   D2A12186   6.618   4.499   7.219  0.2186  0.0507 -0.1879
 1061YOPC   C3A12187   6.417   4.359   7.422 -0.0673 -0.0982  0.1053
 1061YOPC   C4A12188   6.398   4.060   7.637  0.2137 -0.3675 -0.0757
 1061YOPC   C1B12189   6.083   4.696   6.877  0.1442 -0.1120  0.0870
 1061YOPC   C2B12190   6.108   4.300   7.096 -0.1062  0.1260 -0.1499
 1061YOPC   D3B12191   5.887   4.224   7.424 -0.4283  0.0293  0.1145
 1061YOPC   C4B12192   6.010   3.818   7.771 -0.1691 -0.1211 -0.1416
 1062YOPC   NC312193  11.655   7.288   6.136 -0.0315  0.2984 -0.3593
 1062YOPC   PO412194  11.223   7.355   6.333 -0.1621 -0.1864  0.1662
 1062YOPC   GL112195  11.343   7.376   6.666 -0.0210  0.1291 -0.0064
 1062YOPC   GL212196  11.649   7.407   6.639  0.0799  0.0473  0.1779
 1062YOPC   C1A12197  11.289   7.514   7.031 -0.1745  0.0874 -0.0796
 1062YOPC   D2A12198  11.112   7.460   7.435 -0.1447  0.1243 -0.2012
 1062YOPC   C3A12199  11.024   7.128   7.785  0.0560 -0.1053  0.0101
 1062YOPC   C4A12200  10.834   7.245   8.102  0.0160  0.1308  0.1688
 1062YOPC   C1B12201  11.815   7.342   7.066  0.2023  0.0024 -0.4585
 1062YOPC   C2B12202  11.903   7.151   7.496 -0.4475  0.2297  0.0014
 1062YOPC   D3B12203  11.670   7.271   7.796 -0.0786 -0.2500 -0.0095
 1062YOPC   C4B12204  11.335   7.625   7.983 -0.2125  0.0763  0.2069
 1063YOPC   NC312205  16.020  17.711   6.531  0.0540  0.0622  0.1207
 1063YOPC   PO412206  16.388  17.902   6.728 -0.0181  0.0338 -0.1013
 1063YOPC   GL112207  16.195  18.029   7.150 -0.0775 -0.1898 -0.1729
 1063YOPC   GL212208  16.167  18.303   7.205 -0.0443 -0.0483  0.0589
 1063YOPC   C1A12209  16.098  17.875   7.543  0.2271  0.1913 -0.0639
 1063YOPC   D2A12210  16.158  17.879   7.964 -0.2524  0.2870  0.2198
 1063YOPC   C3A12211  15.976  18.253   8.161 -0.0208 -0.1172  0.2185
 1063YOPC   C4A12212  15.863  18.617   8.468 -0.2564 -0.3331  0.4298
 1063YOPC   C1B12213  16.252  18.335   7.683  0.0031  0.0092  0.1606
 1063YOPC   C2B12214  16.608  18.316   7.977  0.0753  0.2316  0.0885
 1063YOPC   D3B12215  16.447  18.124   8.353 -0.2029 -0.1337  0.0956
 1063YOPC   C4B12216  16.220  18.217   8.667 -0.1755  0.2884  0.0918
 1064YOPC   NC312217   7.892   8.744   6.681 -0.2589  0.0617 -0.1562
 1064YOPC   PO412218   7.553   8.948   6.698 -0.0129  0.0986 -0.1024
 1064YOPC   GL112219   7.854   9.157   7.015  0.0645  0.0910 -0.1909
 1064YOPC   GL212220   7.846   8.993   7.184 -0.5314  0.1525  0.0226
 1064YOPC   C1A12221   7.921   9.401   7.484 -0.1042  0.1659 -0.0770
 1064YOPC   D2A12222   7.807   9.398   7.912 -0.0745  0.1200 -0.0063
 1064YOPC   C3A12223   8.140   9.572   8.176 -0.2043  0.1635  0.1832
 1064YOPC   C4A12224   8.466   9.821   8.344  0.2052 -0.0193 -0.0996
 1064YOPC   C1B12225   7.897   8.900   7.633  0.0964  0.0383 -0.0236
 1064YOPC   C2B12226   7.817   8.874   7.965 -0.0047 -0.0022  0.0701
 1064YOPC   D3B12227   7.664   8.835   8.301 -0.3997  0.2230 -0.2517
 1064YOPC   C4B12228   7.381   8.656   8.516 -0.1507 -0.0218 -0.3133
 1065YOPC   NC312229   6.458   2.782   5.978  0.0177  0.1500  0.0567
 1065YOPC   PO412230   6.275   3.161   5.971 -0.0446 -0.3698  0.4084
 1065YOPC   GL112231   6.306   3.411   6.268  0.1208 -0.0612  0.2675
 1065YOPC   GL212232   5.995   3.377   6.466  0.1233  0.0026  0.0437
 1065YOPC   C1A12233   6.367   3.773   6.447  0.0077  0.4827 -0.2973
 1065YOPC   D2A12234   6.060   3.911   6.672  0.0274  0.1674 -0.0196
 1065YOPC   C3A12235   5.812   4.268   6.673 -0.0098 -0.1631 -0.2129
 1065YOPC   C4A12236   5.584   4.492   6.954 -0.0887  0.0922  0.4001
 1065YOPC   C1B12237   5.510   3.290   6.556 -0.1653  0.4045 -0.0533
 1065YOPC   C2B12238   5.349   3.025   6.751 -0.3389  0.0008 -0.3556
 1065YOPC   D3B12239   5.530   3.041   7.151  0.0757  0.2191  0.1303
 1065YOPC   C4B12240   5.865   2.915   7.214  0.1830  0.3095  0.2780
 1066YOPC   NC312241   7.327  15.061   5.905  0.0576  0.2246 -0.2354
 1066YOPC   PO412242   6.946  15.099   6.162 -0.2265 -0.2458  0.0539
 1066YOPC   GL112243   6.958  15.229   6.508 -0.0213  0.1740 -0.1147
 1066YOPC   GL212244   6.645  15.156   6.657  0.1556  0.1534 -0.2613
 1066YOPC   C1A12245   6.986  15.451   6.895  0.0252  0.0081 -0.3814
 1066YOPC   D2A12246   7.356  15.495   7.146  0.0921  0.1402 -0.0245
 1066YOPC   C3A12247   7.580  15.674   7.441  0.1527  0.0950  0.1474
 1066YOPC   C4A12248   7.539  15.720   7.896  0.1588  0.0643  0.2012
 1066YOPC   C1B12249   6.523  14.933   6.983  0.1668 -0.2098 -0.0982
 1066YOPC   C2B12250   6.560  14.875   7.417  0.0355  0.0958  0.0284
 1066YOPC   D3B12251   6.827  14.827   7.749  0.3173  0.3670 -0.1073
 1066YOPC   C4B12252   7.102  14.921   8.012 -0.0426 -0.0918  0.1243
 1067YOPC   NC312253  11.259   4.824   5.289 -0.0826 -0.0722 -0.0776
 1067YOPC   PO412254  10.909   4.689   5.494 -0.0371 -0.2526 -0.1061
 1067YOPC   GL112255  10.777   4.621   5.986  0.1325  0.1492 -0.1414
 1067YOPC   GL212256  10.830   4.331   6.131  0.0384 -0.1143 -0.0903
 1067YOPC   C1A12257  10.562   4.752   6.401 -0.0468 -0.0830  0.1057
 1067YOPC   D2A12258  10.649   4.632   6.838  0.0992  0.3511  0.0645
 1067YOPC   C3A12259  10.680   4.930   7.208 -0.1565 -0.3467  0.1389
 1067YOPC   C4A12260  10.520   5.001   7.641  0.0609  0.0737 -0.1264
 1067YOPC   C1B12261  11.019   4.576   6.458 -0.0794 -0.0541  0.2150
 1067YOPC   C2B12262  11.271   4.551   6.845  0.1927  0.2334  0.0647
 1067YOPC   D3B12263  11.049   4.592   7.108 -0.1629  0.1872  0.0935
 1067YOPC   C4B12264  10.983   4.548   7.507 -0.0270  0.0209 -0.2077
 1068YOPC   NC312265   7.318   5.904   5.838  0.3269 -0.2918  0.1829
 1068YOPC   PO412266   6.865   5.817   6.048 -0.0139 -0.3387 -0.0580
 1068YOPC   GL112267   6.941   5.854   6.555 -0.1721  0.3791 -0.3180
 1068YOPC   GL212268   6.710   6.122   6.672  0.0484 -0.1063  0.2837
 1068YOPC   C1A12269   6.998   6.013   7.002  0.2327 -0.1069 -0.2662
 1068YOPC   D2A12270   6.893   6.037   7.442  0.3745 -0.1591 -0.0399
 1068YOPC   C3A12271   7.168   6.132   7.839 -0.1369  0.0392 -0.0643
 1068YOPC   C4A12272   7.645   6.226   7.902 -0.1314 -0.3975  0.0852
 1068YOPC   C1B12273   6.456   6.140   7.133  0.0523 -0.0365 -0.0061
 1068YOPC   C2B12274   6.388   6.000   7.585  0.1160 -0.1151 -0.0142
 1068YOPC   D3B12275   6.724   5.784   7.832 -0.2883  0.1034 -0.1066
 1068YOPC   C4B12276   6.928   5.900   8.196  0.1189  0.2188 -0.0751
 1069YOPC   NC312277   7.613   0.299   5.970 -0.1037  0.2793 -0.0035
 1069YOPC   PO412278   7.986   0.072   5.967 -0.1050  0.2900 -0.1830
 1069YOPC   GL112279   8.098   0.096   6.393 -0.1059  0.1390  0.0296
 1069YOPC   GL212280   7.873   0.416   6.402  0.3826  0.0115  0.1610
 1069YOPC   C1A12281   8.442   0.124   6.734 -0.0388  0.3307 -0.5195
 1069YOPC   D2A12282   8.740   0.244   7.012  0.2888 -0.1088  0.3375
 1069YOPC   C3A12283   8.851   0.311   7.398 -0.1214 -0.0550 -0.1677
 1069YOPC   C4A12284   9.011   0.168   7.765 -0.2366 -0.0161  0.1934
 1069YOPC   C1B12285   8.121   0.602   6.671  0.1075  0.2040  0.0621
 1069YOPC   C2B12286   8.249   0.502   6.975 -0.2177  0.1680  0.1464
 1069YOPC   D3B12287   8.290   0.148   7.218  0.0605 -0.1770 -0.3549
 1069YOPC   C4B12288   8.204  -0.230   7.303  0.0823 -0.1562 -0.2695
 1070YOPC   NC312289   4.047  13.934   6.603  0.1661 -0.1940 -0.2170
 1070YOPC   PO412290   3.707  13.769   6.796 -0.0116  0.0234 -0.0972
 1070YOPC   GL112291   3.556  13.911   7.132  0.2379  0.0931  0.0924
 1070YOPC   GL212292   3.455  14.142   7.152 -0.0688  0.0085  0.1458
 1070YOPC   C1A12293   3.630  13.820   7.477  0.0128  0.2096  0.0903
 1070YOPC   D2A12294   3.545  13.782   7.787 -0.0951  0.3158  0.0832
 1070YOPC   C3A12295   3.639  13.501   8.180  0.0609 -0.0999  0.1841
 1070YOPC   C4A12296   3.486  13.525   8.549  0.1224 -0.2031 -0.0507
 1070YOPC   C1B12297   3.421  14.258   7.573 -0.0320 -0.1216 -0.1730
 1070YOPC   C2B12298   3.366  14.334   8.041  0.1664 -0.0012 -0.0761
 1070YOPC   D3B12299   3.352  13.960   8.276  0.2785 -0.1428 -0.0589
 1070YOPC   C4B12300   3.012  13.683   8.380 -0.2084 -0.0024  0.1990
 1071YOPC   NC312301  12.683  11.350   6.160 -0.0637  0.0683  0.0461
 1071YOPC   PO412302  12.871  11.722   6.280 -0.1353 -0.1718 -0.1059
 1071YOPC   GL112303  12.850  11.854   6.679  0.0618  0.1499 -0.0461
 1071YOPC   GL212304  13.079  12.072   6.624 -0.2634  0.0319 -0.0945
 1071YOPC   C1A12305  12.707  11.999   7.028 -0.0458  0.2004  0.2877
 1071YOPC   D2A12306  12.729  11.979   7.489 -0.0494 -0.1380 -0.0223
 1071YOPC   C3A12307  12.354  12.268   7.786 -0.0520 -0.3754  0.1722
 1071YOPC   C4A12308  12.096  12.671   7.834 -0.0444 -0.2477 -0.0974
 1071YOPC   C1B12309  13.176  11.993   7.017  0.2814 -0.4028 -0.4422
 1071YOPC   C2B12310  13.186  12.047   7.451  0.3411  0.0231 -0.1091
 1071YOPC   D3B12311  13.511  12.039   7.711 -0.1054 -0.0020 -0.2104
 1071YOPC   C4B12312  13.819  12.229   7.728 -0.0633 -0.0539 -0.1490
 1072YOPC   NC312313   4.527  11.514   6.734  0.0368  0.1665  0.1477
 1072YOPC   PO412314   4.291  11.807   6.752 -0.1125  0.0073  0.2452
 1072YOPC   GL112315   4.311  11.929   7.136 -0.3688 -0.0797 -0.2547
 1072YOPC   GL212316   4.474  12.273   7.058  0.2061 -0.1770 -0.2588
 1072YOPC   C1A12317   4.252  12.009   7.589 -0.3114  0.2059  0.1851
 1072YOPC   D2A12318   4.208  12.118   8.056  0.2074 -0.1526 -0.1116
 1072YOPC   C3A12319   4.016  12.249   8.456  0.3507 -0.0567  0.1925
 1072YOPC   C4A12320   3.585  12.356   8.510  0.0785 -0.4378 -0.4299
 1072YOPC   C1B12321   4.620  12.339   7.434  0.1100  0.2374  0.0202
 1072YOPC   C2B12322   4.727  12.215   7.700 -0.0763  0.2989 -0.0011
 1072YOPC   D3B12323   4.654  12.454   8.029 -0.0985  0.0766  0.0316
 1072YOPC   C4B12324   4.519  12.405   8.348  0.3919  0.0633 -0.2387
 1073YOPC   NC312325  10.550   8.852   5.828  0.0640  0.0424  0.0682
 1073YOPC   PO412326  10.698   9.222   6.004  0.0256 -0.1300  0.1573
 1073YOPC   GL112327  10.698   9.276   6.438 -0.3989  0.0750  0.0936
 1073YOPC   GL212328  10.500   9.593   6.562  0.0152  0.1241 -0.1148
 1073YOPC   C1A12329  10.969   9.463   6.788  0.0269 -0.4433 -0.0216
 1073YOPC   D2A12330  11.030   9.416   7.205  0.0486 -0.0679 -0.2492
 1073YOPC   C3A12331  11.342   9.437   7.536  0.2748  0.0250 -0.0868
 1073YOPC   C4A12332  11.504   9.493   7.995 -0.0026  0.2540  0.1832
 1073YOPC   C1B12333  10.496   9.453   7.002 -0.1749 -0.1246  0.2231
 1073YOPC   C2B12334  10.610   9.436   7.464 -0.1095  0.3419 -0.0214
 1073YOPC   D3B12335  10.376   9.454   7.805 -0.0103 -0.1244 -0.1264
 1073YOPC   C4B12336  10.347   9.426   8.194  0.1798  0.2266  0.1489
 1074YOPC   NC312337  11.544   3.931   5.512  0.0371 -0.0258  0.0371
 1074YOPC   PO412338  11.288   4.173   5.872 -0.2640  0.1617 -0.0394
 1074YOPC   GL112339  11.374   4.197   6.228 -0.1207 -0.1236 -0.0381
 1074YOPC   GL212340  11.432   4.546   6.312  0.0640 -0.0545 -0.1708
 1074YOPC   C1A12341  11.457   4.123   6.649 -0.0517  0.2945 -0.0608
 1074YOPC   D2A12342  11.466   3.955   7.011 -0.1509  0.0044  0.1872
 1074YOPC   C3A12343  11.390   4.317   7.405 -0.1882 -0.0320  0.0261
 1074YOPC   C4A12344  11.434   4.663   7.661 -0.0704 -0.2001 -0.0716
 1074YOPC   C1B12345  11.488   4.958   6.597  0.0074 -0.1413 -0.0389
 1074YOPC   C2B12346  11.710   5.232   6.846 -0.0918  0.0028  0.2291
 1074YOPC   D3B12347  11.786   5.233   7.322 -0.2106  0.0393 -0.0798
 1074YOPC   C4B12348  11.755   5.030   7.703 -0.3119  0.0046  0.0428
 1075YOPC   NC312349   7.740   1.456   6.185 -0.1160  0.0030  0.2612
 1075YOPC   PO412350   7.435   1.257   6.257 -0.0089  0.1711  0.0795
 1075YOPC   GL112351   7.146   1.413   6.508  0.2993  0.0790 -0.1714
 1075YOPC   GL212352   7.043   1.723   6.459 -0.2021  0.0840 -0.0219
 1075YOPC   C1A12353   7.314   1.144   6.887  0.1540  0.0761 -0.3236
 1075YOPC   D2A12354   7.520   1.035   7.176  0.2728 -0.0001  0.2119
 1075YOPC   C3A12355   7.550   1.199   7.594 -0.1721  0.5190  0.3624
 1075YOPC   C4A12356   7.277   1.349   7.884  0.1210 -0.0700  0.0210
 1075YOPC   C1B12357   6.996   1.695   6.942 -0.0949 -0.0585  0.1077
 1075YOPC   C2B12358   7.153   1.608   7.404  0.1959 -0.0304  0.1081
 1075YOPC   D3B12359   6.878   1.415   7.645  0.1478 -0.1347 -0.0110
 1075YOPC   C4B12360   6.678   1.475   8.030 -0.0912  0.1318  0.1095
 1076YOPC   NC312361   9.370   4.646   5.570 -0.1810 -0.0246 -0.0411
 1076YOPC   PO412362   9.166   4.543   5.853 -0.1052 -0.3144 -0.1415
 1076YOPC   GL112363   9.150   4.649   6.178 -0.1237 -0.0995  0.0451
 1076YOPC   GL212364   8.967   5.029   6.244  0.3004  0.2455 -0.3263
 1076YOPC   C1A12365   9.021   4.659   6.682  0.2767 -0.0905  0.1373
 1076YOPC   D2A12366   8.923   4.696   7.103 -0.1810  0.2442  0.0809
 1076YOPC   C3A12367   9.094   4.939   7.409 -0.1324  0.2396  0.1164
 1076YOPC   C4A12368   9.478   5.168   7.559 -0.0573  0.1275  0.2560
 1076YOPC   C1B12369   8.597   4.922   6.491  0.1123  0.0952  0.1337
 1076YOPC   C2B12370   8.468   4.874   6.878  0.3279 -0.3835  0.0694
 1076YOPC   D3B12371   8.531   5.060   7.248  0.0945  0.2304 -0.0950
 1076YOPC   C4B12372   8.617   5.034   7.689 -0.1384 -0.0194 -0.1354
 1077YOPC   NC312373   1.956   7.179   6.166  0.1268 -0.1167  0.0043
 1077YOPC   PO412374   2.123   7.626   6.335  0.2444 -0.0064 -0.0180
 1077YOPC   GL112375   2.113   7.399   6.638  0.3886  0.1041  0.1100
 1077YOPC   GL212376   2.332   7.224   6.725  0.0528 -0.4054  0.0609
 1077YOPC   C1A12377   2.139   7.381   7.132  0.2551  0.1208  0.2291
 1077YOPC   D2A12378   1.969   7.149   7.424  0.0375 -0.2123  0.1480
 1077YOPC   C3A12379   1.686   7.437   7.648  0.1797  0.0907 -0.2404
 1077YOPC   C4A12380   1.589   7.701   7.875 -0.1663 -0.0103 -0.0238
 1077YOPC   C1B12381   1.970   6.942   6.953 -0.0707  0.0889 -0.2011
 1077YOPC   C2B12382   1.577   7.014   7.118  0.1679  0.1996  0.3408
 1077YOPC   D3B12383   1.449   6.987   7.591 -0.2605 -0.0539 -0.1947
 1077YOPC   C4B12384   1.447   7.009   8.112 -0.1148 -0.1720 -0.2598
 1078YOPC   NC312385   5.572   4.457   6.097  0.0652 -0.0656  0.2866
 1078YOPC   PO412386   5.529   4.168   5.852  0.0509  0.1613 -0.2736
 1078YOPC   GL112387   5.342   4.000   6.162 -0.0703 -0.2360 -0.1048
 1078YOPC   GL212388   5.543   3.699   6.097  0.2278  0.0776 -0.1116
 1078YOPC   C1A12389   5.194   4.141   6.628  0.2083  0.2626 -0.0267
 1078YOPC   D2A12390   5.149   4.103   7.141 -0.0887 -0.0314 -0.1013
 1078YOPC   C3A12391   5.351   4.222   7.481 -0.0136 -0.0920  0.1634
 1078YOPC   C4A12392   5.689   4.257   7.833 -0.3057  0.0096  0.1030
 1078YOPC   C1B12393   5.589   3.811   6.527 -0.0637  0.1544 -0.1470
 1078YOPC   C2B12394   5.582   4.013   7.050  0.0449 -0.4068  0.0513
 1078YOPC   D3B12395   5.765   3.761   7.335  0.1743  0.1440 -0.0471
 1078YOPC   C4B12396   5.583   3.387   7.495 -0.2782  0.2880  0.3988
 1079YOPC   NC312397   9.582  16.006   5.506  0.1791  0.0022 -0.2016
 1079YOPC   PO412398   9.484  16.448   5.591  0.0179  0.2496 -0.0707
 1079YOPC   GL112399   9.455  16.582   5.978  0.0136  0.0193 -0.1792
 1079YOPC   GL212400   9.175  16.771   6.185 -0.0625 -0.0900  0.1502
 1079YOPC   C1A12401   9.622  16.402   6.416  0.0619  0.0313  0.2515
 1079YOPC   D2A12402   9.739  16.212   6.804 -0.0326 -0.0946 -0.1088
 1079YOPC   C3A12403   9.348  16.057   7.079  0.0323 -0.2019 -0.1333
 1079YOPC   C4A12404   8.978  16.130   7.254  0.2551  0.3421  0.0803
 1079YOPC   C1B12405   9.561  16.897   6.421 -0.3409 -0.1602 -0.2320
 1079YOPC   C2B12406   9.687  16.718   6.848 -0.1264  0.2760  0.1599
 1079YOPC   D3B12407   9.684  16.856   7.236 -0.0797  0.0872  0.2254
 1079YOPC   C4B12408   9.905  16.971   7.699 -0.3024 -0.1702  0.1503
 1080YOPC   NC312409   6.404   9.902   6.746  0.1257 -0.0961 -0.2409
 1080YOPC   PO412410   6.598  10.309   6.733  0.0197 -0.1209  0.2986
 1080YOPC   GL112411   6.815  10.454   7.085 -0.1459  0.1347  0.0130
 1080YOPC   GL212412   7.175  10.569   7.032  0.1357  0.2434 -0.1244
 1080YOPC   C1A12413   6.632  10.609   7.430  0.4950 -0.1329  0.0579
 1080YOPC   D2A12414   6.583  10.921   7.730  0.0800 -0.0946  0.0610
 1080YOPC   C3A12415   6.756  10.828   8.161  0.1461 -0.0839 -0.1177
 1080YOPC   C4A12416   6.757  11.114   8.499 -0.1381 -0.1352  0.0010
 1080YOPC   C1B12417   7.495  10.632   7.204 -0.0051 -0.1153  0.2521
 1080YOPC   C2B12418   7.605  10.623   7.571 -0.0307 -0.1862 -0.0056
 1080YOPC   D3B12419   7.392  10.771   7.965 -0.0590 -0.2033  0.0973
 1080YOPC   C4B12420   7.212  10.883   8.336 -0.1268 -0.0912  0.2767
 1081YOPC   NC312421   9.899   2.220   5.601  0.0235 -0.3086 -0.2489
 1081YOPC   PO412422   9.875   1.817   5.804 -0.0177  0.1560 -0.1260
 1081YOPC   GL112423   9.896   1.809   6.196 -0.1004 -0.0624  0.0252
 1081YOPC   GL212424   9.662   1.674   6.223 -0.0984  0.1759 -0.0779
 1081YOPC   C1A12425   9.896   1.647   6.664  0.0497  0.0550  0.2258
 1081YOPC   D2A12426   9.864   1.701   7.047  0.0824  0.0221  0.0805
 1081YOPC   C3A12427  10.140   1.436   7.192 -0.0819  0.2357  0.2290
 1081YOPC   C4A12428  10.092   1.483   7.649  0.0604 -0.2559  0.0604
 1081YOPC   C1B12429   9.402   1.679   6.702 -0.3272 -0.0074  0.4233
 1081YOPC   C2B12430   9.326   1.924   7.208 -0.0599 -0.0023  0.1827
 1081YOPC   D3B12431   9.472   1.979   7.596 -0.2324 -0.0442 -0.0231
 1081YOPC   C4B12432   9.831   1.990   7.818 -0.3348 -0.0630 -0.0672
 1082YOPC   NC312433   3.223   7.587   6.405  0.0908  0.0200  0.2453
 1082YOPC   PO412434   3.573   7.200   6.256  0.2073  0.0887  0.0572
 1082YOPC   GL112435   3.397   7.195   6.646 -0.3042 -0.0142 -0.3903
 1082YOPC   GL212436   3.529   7.416   6.823  0.0011  0.0866 -0.0127
 1082YOPC   C1A12437   3.213   7.073   7.039  0.0828 -0.4409 -0.0607
 1082YOPC   D2A12438   2.886   7.030   7.322  0.1344 -0.0733  0.0677
 1082YOPC   C3A12439   2.975   6.832   7.633 -0.2213 -0.0126  0.1783
 1082YOPC   C4A12440   3.369   6.953   7.786  0.1699 -0.0748  0.1025
 1082YOPC   C1B12441   3.811   7.057   6.965  0.5536 -0.1701  0.0828
 1082YOPC   C2B12442   4.062   6.682   6.933  0.0394  0.2138  0.1882
 1082YOPC   D3B12443   4.478   6.830   6.797 -0.1026  0.3956 -0.0722
 1082YOPC   C4B12444   4.815   7.181   6.790  0.2964  0.2348 -0.0245
 1083YOPC   NC312445   3.802  17.057   6.441  0.2291 -0.0555  0.2261
 1083YOPC   PO412446   3.600  17.447   6.273  0.0518  0.1084  0.1870
 1083YOPC   GL112447   3.596  17.448   6.772 -0.2547  0.2684  0.1176
 1083YOPC   GL212448   3.393  17.322   7.028 -0.2836 -0.1688  0.3146
 1083YOPC   C1A12449   3.922  17.453   7.003 -0.3394  0.1251 -0.1198
 1083YOPC   D2A12450   4.378  17.440   7.134  0.4267 -0.2946 -0.1405
 1083YOPC   C3A12451   4.430  17.465   7.614  0.0455 -0.0168 -0.1335
 1083YOPC   C4A12452   4.252  17.435   8.040  0.0301 -0.0136 -0.2679
 1083YOPC   C1B12453   3.499  17.196   7.511  0.1386  0.0121  0.3151
 1083YOPC   C2B12454   3.578  16.947   7.854 -0.0898  0.0204  0.0479
 1083YOPC   D3B12455   3.870  17.036   8.133  0.0961  0.1267 -0.1653
 1083YOPC   C4B12456   3.958  16.968   8.577  0.0025  0.0061  0.2360
 1084YOPC   NC312457   2.749   8.478   6.096 -0.1164  0.1316  0.1076
 1084YOPC   PO412458   2.661   8.393   6.520  0.2770 -0.1979  0.1018
 1084YOPC   GL112459   2.661   8.629   6.871  0.0466  0.3674 -0.0233
 1084YOPC   GL212460   2.917   8.823   6.903 -0.2333  0.2467 -0.0454
 1084YOPC   C1A12461   2.574   8.454   7.302 -0.3406  0.2294 -0.3196
 1084YOPC   D2A12462   2.370   8.445   7.552 -0.0660  0.1186 -0.2216
 1084YOPC   C3A12463   1.917   8.510   7.370  0.0985 -0.0806 -0.1200
 1084YOPC   C4A12464   1.635   8.260   7.049 -0.1635 -0.3281  0.2261
 1084YOPC   C1B12465   2.988   8.809   7.299  0.0422  0.2522 -0.1078
 1084YOPC   C2B12466   3.000   8.566   7.690 -0.2480 -0.0282 -0.0677
 1084YOPC   D3B12467   2.684   8.400   7.909  0.1062  0.1410 -0.0149
 1084YOPC   C4B12468   2.381   8.524   8.236 -0.0108 -0.0384  0.1785
 1085YOPC   NC312469  12.463   6.282   5.699  0.0438 -0.1770  0.0460
 1085YOPC   PO412470  12.763   6.617   5.689  0.1932 -0.0117  0.0047
 1085YOPC   GL112471  12.657   6.562   6.207 -0.1539 -0.0153 -0.0338
 1085YOPC   GL212472  12.468   6.244   6.278 -0.0920  0.1003  0.1833
 1085YOPC   C1A12473  12.943   6.373   6.597 -0.0239 -0.2376  0.4183
 1085YOPC   D2A12474  12.953   6.507   7.000 -0.1264  0.0244  0.0444
 1085YOPC   C3A12475  12.704   6.553   7.333  0.0770 -0.1418 -0.2131
 1085YOPC   C4A12476  12.380   6.460   7.711 -0.0873  0.2605 -0.0251
 1085YOPC   C1B12477  12.238   6.525   6.521  0.4257 -0.1220 -0.2266
 1085YOPC   C2B12478  12.367   6.663   6.838  0.0082 -0.1868 -0.1633
 1085YOPC   D3B12479  12.223   6.502   7.181 -0.2996  0.0278  0.1042
 1085YOPC   C4B12480  12.134   6.155   7.429  0.1074  0.1414  0.1967
 1086YOPC   NC312481  10.799   9.878   5.563  0.2651  0.1136  0.0102
 1086YOPC   PO412482  10.870  10.154   5.935  0.1200  0.0965  0.1120
 1086YOPC   GL112483  11.052   9.996   6.285  0.1092 -0.1549  0.0307
 1086YOPC   GL212484  10.836  10.025   6.557 -0.1024  0.0798  0.0177
 1086YOPC   C1A12485  11.308   9.755   6.592 -0.0549  0.2474  0.0801
 1086YOPC   D2A12486  11.469   9.447   6.847  0.0699  0.0092 -0.4323
 1086YOPC   C3A12487  11.802   9.202   7.014 -0.1733  0.2835 -0.0866
 1086YOPC   C4A12488  12.105   8.862   6.884 -0.0287  0.4238  0.2682
 1086YOPC   C1B12489  10.795   9.867   7.067 -0.0559 -0.1408  0.2720
 1086YOPC   C2B12490  10.754   9.951   7.414 -0.0796 -0.1036  0.0640
 1086YOPC   D3B12491  10.966   9.789   7.636 -0.1093  0.2666  0.1279
 1086YOPC   C4B12492  10.948   9.567   7.940 -0.0718  0.0112 -0.1698
 1087YOPC   NC312493   6.885   9.434   6.245 -0.3953  0.0418  0.1385
 1087YOPC   PO412494   6.721   9.527   6.643 -0.0776  0.1301  0.2270
 1087YOPC   GL112495   6.863   9.747   6.967 -0.1290 -0.5979  0.2285
 1087YOPC   GL212496   7.166   9.616   6.970  0.1822 -0.1113  0.1475
 1087YOPC   C1A12497   6.963   9.875   7.391  0.1918 -0.2778 -0.0344
 1087YOPC   D2A12498   6.800  10.015   7.724 -0.1250  0.0290  0.2834
 1087YOPC   C3A12499   6.861   9.880   8.070 -0.3873 -0.1043  0.0586
 1087YOPC   C4A12500   6.722   9.650   8.419 -0.0106  0.1066  0.2107
 1087YOPC   C1B12501   7.040   9.393   7.361  0.0873 -0.1765  0.2318
 1087YOPC   C2B12502   6.956   9.473   7.639 -0.0163 -0.0030  0.4620
 1087YOPC   D3B12503   6.967   9.399   8.047 -0.2892  0.3257 -0.1250
 1087YOPC   C4B12504   7.355   9.526   8.295 -0.1804 -0.5346 -0.2911
 1088YOPC   NC312505   4.870  17.581   6.058  0.2742  0.0622 -0.0429
 1088YOPC   PO412506   4.491  17.476   6.124  0.1031 -0.0041  0.2353
 1088YOPC   GL112507   4.626  17.585   6.521  0.2648  0.0001 -0.1267
 1088YOPC   GL212508   4.626  17.286   6.739  0.2205 -0.1319 -0.1083
 1088YOPC   C1A12509   4.775  17.883   6.846  0.1078  0.3437  0.0975
 1088YOPC   D2A12510   4.769  18.113   7.221  0.2151  0.0913  0.1517
 1088YOPC   C3A12511   4.838  18.064   7.689  0.5014 -0.1406 -0.1508
 1088YOPC   C4A12512   4.828  18.262   8.077 -0.0402  0.1599  0.1831
 1088YOPC   C1B12513   4.929  17.407   7.130  0.1258 -0.1762  0.2017
 1088YOPC   C2B12514   4.812  17.668   7.423 -0.0942 -0.0922  0.0110
 1088YOPC   D3B12515   4.856  17.532   7.838 -0.3968  0.0318 -0.0562
 1088YOPC   C4B12516   4.795  17.297   8.138  0.3055 -0.2270 -0.2765
 1089YOPC   NC312517  11.037   2.889   6.114 -0.1728  0.0485  0.2234
 1089YOPC   PO412518  11.326   2.553   6.274 -0.3764 -0.0890  0.0847
 1089YOPC   GL112519  11.152   2.580   6.641  0.1070  0.0466  0.2360
 1089YOPC   GL212520  11.422   2.530   6.802  0.0821  0.3382 -0.2501
 1089YOPC   C1A12521  11.155   2.703   7.118  0.0280  0.1615 -0.0633
 1089YOPC   D2A12522  11.071   2.628   7.579 -0.0231  0.1830 -0.3683
 1089YOPC   C3A12523  10.929   3.008   7.813  0.0059  0.0014 -0.0458
 1089YOPC   C4A12524  10.694   3.415   7.912 -0.0029 -0.0509 -0.1332
 1089YOPC   C1B12525  11.773   2.544   7.073 -0.4218  0.0331 -0.1473
 1089YOPC   C2B12526  11.907   2.399   7.467  0.1120  0.0148 -0.1285
 1089YOPC   D3B12527  11.842   2.093   7.811  0.3457 -0.1063 -0.1039
 1089YOPC   C4B12528  11.541   1.872   8.058  0.1071 -0.0869  0.3108
 1090YOPC   NC312529   4.906  10.612   6.803  0.1154  0.2473 -0.0959
 1090YOPC   PO412530   5.236  10.811   6.822 -0.0973 -0.0044  0.0700
 1090YOPC   GL112531   5.445  10.708   7.203  0.1294  0.1378 -0.2103
 1090YOPC   GL212532   5.242  10.503   7.302 -0.2009 -0.0075  0.1969
 1090YOPC   C1A12533   5.684  10.716   7.654 -0.2342 -0.0365  0.1188
 1090YOPC   D2A12534   5.761  10.938   7.923 -0.0392 -0.0042  0.0086
 1090YOPC   C3A12535   5.713  10.880   8.301  0.0982 -0.1550  0.0631
 1090YOPC   C4A12536   5.510  10.967   8.613  0.0025  0.2269  0.0104
 1090YOPC   C1B12537   5.314  10.394   7.712 -0.0075  0.1788 -0.0171
 1090YOPC   C2B12538   5.306  10.204   8.010  0.2085  0.0220  0.1008
 1090YOPC   D3B12539   5.491  10.280   8.280 -0.2046  0.0730 -0.1125
 1090YOPC   C4B12540   5.769   9.890   8.442  0.1732  0.0137  0.2848
 1091YOPC   NC312541  11.262   4.667   5.805  0.0068  0.2663 -0.3510
 1091YOPC   PO412542  11.564   4.964   5.712 -0.1424  0.3991 -0.1323
 1091YOPC   GL112543  11.381   5.198   6.162  0.2018  0.1014 -0.0746
 1091YOPC   GL212544  11.008   5.054   6.298  0.0335 -0.2397 -0.0957
 1091YOPC   C1A12545  11.252   5.411   6.568 -0.1804  0.1750 -0.0112
 1091YOPC   D2A12546  11.451   5.591   7.090 -0.0209 -0.2027 -0.0917
 1091YOPC   C3A12547  11.315   5.483   7.503  0.0341  0.0617 -0.0263
 1091YOPC   C4A12548  11.488   5.377   7.860  0.1934  0.1643  0.2252
 1091YOPC   C1B12549  10.994   5.020   6.696  0.0557  0.3235 -0.3381
 1091YOPC   C2B12550  11.269   5.098   7.108 -0.1105  0.0215 -0.1461
 1091YOPC   D3B12551  11.100   5.012   7.638  0.0147 -0.0302  0.0878
 1091YOPC   C4B12552  10.920   4.907   7.884 -0.1655  0.1827  0.0657
 1092YOPC   NC312553  16.520   9.188   6.688  0.0436 -0.1521  0.4486
 1092YOPC   PO412554  16.892   8.922   6.669 -0.0810  0.0346  0.1245
 1092YOPC   GL112555  16.646   8.737   7.045  0.2944 -0.0697 -0.0671
 1092YOPC   GL212556  16.572   8.417   7.050  0.0300  0.1998 -0.2448
 1092YOPC   C1A12557  16.420   8.790   7.420  0.0015  0.0908  0.0656
 1092YOPC   D2A12558  16.403   8.799   7.816  0.2017  0.2278  0.0916
 1092YOPC   C3A12559  16.386   9.077   8.135 -0.0649  0.2627  0.0822
 1092YOPC   C4A12560  16.601   9.329   8.443 -0.0328  0.2506  0.1867
 1092YOPC   C1B12561  16.606   8.259   7.507  0.1055 -0.0913 -0.1218
 1092YOPC   C2B12562  16.535   8.299   7.890 -0.0414  0.0469  0.1514
 1092YOPC   D3B12563  16.705   8.573   8.207  0.1168  0.1757  0.0364
 1092YOPC   C4B12564  16.659   8.784   8.536 -0.1550 -0.3610 -0.0001
 1093YOPC   NC312565   8.037   2.478   5.539 -0.3502  0.1974 -0.1968
 1093YOPC   PO412566   7.879   2.671   6.010 -0.1550 -0.0007  0.2287
 1093YOPC   GL112567   7.888   2.718   6.489 -0.0766 -0.2757 -0.0326
 1093YOPC   GL212568   7.594   2.604   6.705  0.3549 -0.0701  0.0172
 1093YOPC   C1A12569   8.075   2.630   6.901  0.2606  0.0534  0.2100
 1093YOPC   D2A12570   8.044   2.463   7.329 -0.1563  0.2903  0.1396
 1093YOPC   C3A12571   7.994   2.622   7.723 -0.1619  0.0105 -0.0379
 1093YOPC   C4A12572   7.879   2.824   8.109  0.4329 -0.1291  0.0991
 1093YOPC   C1B12573   7.593   2.704   7.210 -0.0631  0.0502 -0.0516
 1093YOPC   C2B12574   7.478   2.860   7.647  0.2938  0.1738 -0.1489
 1093YOPC   D3B12575   7.189   2.677   7.912 -0.2338 -0.4735 -0.0657
 1093YOPC   C4B12576   7.057   2.297   8.119 -0.0671  0.0722  0.1277
 1094YOPC   NC312577   2.280  16.034   6.452  0.0696  0.1714  0.3953
 1094YOPC   PO412578   2.380  16.461   6.654 -0.1448 -0.1565  0.0427
 1094YOPC   GL112579   2.472  16.678   7.022 -0.1387  0.0355 -0.0556
 1094YOPC   GL212580   2.595  17.002   7.053 -0.2462 -0.1894 -0.0565
 1094YOPC   C1A12581   2.585  16.824   7.515  0.1711 -0.2150  0.5839
 1094YOPC   D2A12582   2.743  16.735   7.984 -0.4701 -0.4567  0.1997
 1094YOPC   C3A12583   3.063  16.894   8.107  0.0295 -0.1366 -0.1730
 1094YOPC   C4A12584   3.365  16.933   8.335 -0.2044 -0.0785 -0.2957
 1094YOPC   C1B12585   2.888  17.282   7.365  0.0054 -0.2770  0.3477
 1094YOPC   C2B12586   3.065  17.196   7.748  0.1779  0.0806  0.2040
 1094YOPC   D3B12587   2.913  17.386   8.049  0.0337  0.1244 -0.1830
 1094YOPC   C4B12588   2.858  17.786   8.301  0.0733 -0.1131  0.0991
 1095YOPC   NC312589   6.301   7.170   6.309  0.0226 -0.0969 -0.4288
 1095YOPC   PO412590   6.693   7.115   6.295  0.1530 -0.0177 -0.0361
 1095YOPC   GL112591   6.560   6.843   6.643 -0.0172 -0.2817  0.0881
 1095YOPC   GL212592   6.246   6.798   6.673  0.0576  0.0235  0.2694
 1095YOPC   C1A12593   6.598   6.611   7.023  0.0235 -0.1928  0.0292
 1095YOPC   D2A12594   6.627   6.504   7.406  0.1780 -0.0579 -0.2116
 1095YOPC   C3A12595   6.364   6.508   7.705 -0.2593 -0.2697 -0.0838
 1095YOPC   C4A12596   6.216   6.497   8.178  0.0656 -0.0320 -0.0439
 1095YOPC   C1B12597   6.260   7.030   7.020 -0.2390 -0.0486  0.4046
 1095YOPC   C2B12598   6.233   6.851   7.332  0.1343  0.0233 -0.0942
 1095YOPC   D3B12599   6.072   7.030   7.708 -0.1744 -0.1553 -0.1707
 1095YOPC   C4B12600   6.178   7.002   8.019 -0.1561 -0.0086  0.2323
 1096YOPC   NC312601  13.792  10.778   6.354  0.2004 -0.1062  0.0487
 1096YOPC   PO412602  13.332  10.840   6.226 -0.2720  0.0008  0.0291
 1096YOPC   GL112603  13.374  10.492   6.557  0.1108  0.0407 -0.0877
 1096YOPC   GL212604  13.202  10.225   6.686 -0.1891 -0.1242  0.0449
 1096YOPC   C1A12605  13.605  10.483   6.892 -0.2506  0.0535  0.1344
 1096YOPC   D2A12606  13.563  10.479   7.402  0.1074  0.0073 -0.1473
 1096YOPC   C3A12607  13.284  10.466   7.803  0.0455 -0.1460 -0.0310
 1096YOPC   C4A12608  12.859  10.611   7.859  0.2494  0.1571  0.1826
 1096YOPC   C1B12609  13.179  10.330   7.136  0.0941 -0.0809  0.2548
 1096YOPC   C2B12610  13.017  10.682   7.373  0.0475  0.1827  0.0022
 1096YOPC   D3B12611  12.688  10.968   7.461 -0.2037 -0.1516  0.0160
 1096YOPC   C4B12612  12.348  11.273   7.566 -0.1214 -0.0336  0.1318
 1097YOPC   NC312613  18.064   7.788   6.402  0.0749 -0.1277  0.1794
 1097YOPC   PO412614  18.279   7.753   6.648 -0.0157 -0.0656 -0.3328
 1097YOPC   GL112615  18.040   7.522   6.926  0.1129  0.1950 -0.0136
 1097YOPC   GL212616  17.844   7.801   6.935 -0.0916 -0.0754  0.1631
 1097YOPC   C1A12617  17.949   7.150   7.167 -0.4238  0.0228  0.0466
 1097YOPC   D2A12618  17.957   6.961   7.634  0.1305  0.0507 -0.2314
 1097YOPC   C3A12619  18.249   6.746   7.965  0.0463  0.1253  0.1080
 1097YOPC   C4A12620  18.568   6.638   8.270 -0.0469 -0.0682  0.3096
 1097YOPC   C1B12621  17.800   7.738   7.292  0.1504  0.0831  0.0920
 1097YOPC   C2B12622  17.820   7.495   7.519 -0.3197 -0.1706  0.1728
 1097YOPC   D3B12623  17.575   7.483   7.889  0.1312  0.0623 -0.2269
 1097YOPC   C4B12624  17.748   7.335   8.156  0.1450  0.0773 -0.0120
 1098YOPC   NC312625  16.046  13.931   6.357  0.0907 -0.4160 -0.1160
 1098YOPC   PO412626  16.230  14.317   6.404 -0.4414 -0.2639 -0.1642
 1098YOPC   GL112627  16.300  14.590   6.796 -0.3468  0.0885 -0.2013
 1098YOPC   GL212628  16.093  14.845   7.039 -0.6390  0.2281  0.2722
 1098YOPC   C1A12629  16.428  14.292   7.215  0.1085 -0.0785 -0.0186
 1098YOPC   D2A12630  16.613  13.984   7.479 -0.0205  0.2335 -0.2387
 1098YOPC   C3A12631  16.510  13.822   7.885 -0.0294  0.0801  0.1505
 1098YOPC   C4A12632  16.250  13.974   8.141 -0.1570  0.1760  0.0810
 1098YOPC   C1B12633  15.995  14.647   7.399 -0.0512 -0.1154  0.0766
 1098YOPC   C2B12634  15.648  14.573   7.834  0.0860  0.3845 -0.2508
 1098YOPC   D3B12635  15.747  14.307   8.239  0.2553  0.0307 -0.0471
 1098YOPC   C4B12636  16.074  14.227   8.647  0.0592  0.3115  0.0674
 1099YOPC   NC312637  15.466  10.640   6.298 -0.0801  0.2392 -0.0318
 1099YOPC   PO412638  15.785  10.704   6.057  0.0359 -0.2924 -0.2492
 1099YOPC   GL112639  15.845  10.860   6.515  0.0264  0.0769 -0.0377
 1099YOPC   GL212640  15.897  11.135   6.580  0.0189 -0.0701  0.1478
 1099YOPC   C1A12641  15.803  10.835   6.955  0.1432 -0.0919 -0.0128
 1099YOPC   D2A12642  15.799  10.830   7.304  0.1503  0.1010  0.3492
 1099YOPC   C3A12643  15.947  10.613   7.690  0.1834 -0.1917 -0.2320
 1099YOPC   C4A12644  15.946  10.451   8.101 -0.1854 -0.0448 -0.1650
 1099YOPC   C1B12645  15.978  11.262   6.985 -0.2544  0.0108 -0.2350
 1099YOPC   C2B12646  16.041  11.355   7.403  0.2240  0.0319 -0.1859
 1099YOPC   D3B12647  16.078  11.088   7.723 -0.1469 -0.0793 -0.1784
 1099YOPC   C4B12648  16.353  10.795   7.942  0.2557  0.0141  0.1112
 1100YOPC   NC312649   1.518   6.284   5.754  0.0588  0.3103  0.5402
 1100YOPC   PO412650   1.760   6.346   6.098  0.2858  0.1193  0.0775
 1100YOPC   GL112651   1.765   6.455   6.527  0.0197  0.1127 -0.0022
 1100YOPC   GL212652   1.730   6.100   6.830  0.0533  0.0113  0.0740
 1100YOPC   C1A12653   1.534   6.643   6.738 -0.3702 -0.2623  0.1869
 1100YOPC   D2A12654   1.455   6.561   7.177  0.2225  0.1954  0.0365
 1100YOPC   C3A12655   1.276   6.537   7.490  0.1315  0.1788 -0.0661
 1100YOPC   C4A12656   1.184   6.633   7.853 -0.5004  0.0011  0.0287
 1100YOPC   C1B12657   1.667   5.890   7.098 -0.0882  0.0174  0.0538
 1100YOPC   C2B12658   1.693   6.074   7.516  0.1847  0.0390 -0.0619
 1100YOPC   D3B12659   1.567   6.292   7.910 -0.1175  0.2844 -0.1360
 1100YOPC   C4B12660   1.479   6.552   8.264  0.0340  0.1936  0.2252
 1101YOPC   NC312661  17.918  14.392   6.378 -0.0522 -0.1126 -0.2091
 1101YOPC   PO412662  18.329  14.245   6.272  0.0492 -0.1594  0.0004
 1101YOPC   GL112663  18.294  14.484   6.663 -0.0098 -0.1471  0.2812
 1101YOPC   GL212664  18.588  14.535   6.802 -0.2342  0.1117  0.0484
 1101YOPC   C1A12665  18.105  14.398   7.078 -0.1173  0.4184  0.2977
 1101YOPC   D2A12666  18.086  14.290   7.539 -0.0614  0.1276 -0.0846
 1101YOPC   C3A12667  17.879  14.232   7.917  0.0085  0.0130 -0.4028
 1101YOPC   C4A12668  17.687  14.224   8.340  0.0983  0.0980  0.0055
 1101YOPC   C1B12669  18.586  14.400   7.181  0.1928 -0.1363  0.0116
 1101YOPC   C2B12670  18.623  14.219   7.523  0.0728  0.1444 -0.0766
 1101YOPC   D3B12671  18.453  14.404   7.901 -0.0549  0.5363 -0.0908
 1101YOPC   C4B12672  18.459  14.795   7.985 -0.1162  0.3307 -0.0730
 1102YOPC   NC312673  15.769  12.007   5.814 -0.0126 -0.0996  0.0702
 1102YOPC   PO412674  16.017  11.729   6.038 -0.0820  0.2813  0.3102
 1102YOPC   GL112675  16.286  11.946   6.341  0.1399  0.0919 -0.0171
 1102YOPC   GL212676  16.481  12.160   6.419 -0.1947 -0.0103 -0.0601
 1102YOPC   C1A12677  16.188  11.890   6.724  0.4963 -0.0940  0.0121
 1102YOPC   D2A12678  15.769  11.946   6.897  0.0159 -0.0525  0.0275
 1102YOPC   C3A12679  15.695  11.833   7.288  0.2057  0.1589 -0.0777
 1102YOPC   C4A12680  15.668  11.662   7.571 -0.4091 -0.1268  0.1599
 1102YOPC   C1B12681  16.663  12.140   6.802 -0.0796 -0.0901  0.0199
 1102YOPC   C2B12682  16.935  12.087   7.084 -0.0605  0.0154 -0.1993
 1102YOPC   D3B12683  16.693  11.893   7.480 -0.3008  0.2900  0.1991
 1102YOPC   C4B12684  16.652  11.955   7.912  0.2471 -0.0689  0.3889
 1103YOPC   NC312685  17.188   5.071   5.742 -0.1655  0.1436 -0.1784
 1103YOPC   PO412686  16.731   5.194   5.725  0.0461  0.2047  0.3133
 1103YOPC   GL112687  16.432   5.296   6.046  0.2122  0.0819 -0.0878
 1103YOPC   GL212688  16.203   5.373   6.029 -0.4753 -0.0543  0.1416
 1103YOPC   C1A12689  16.466   5.207   6.464  0.0715 -0.2874 -0.0646
 1103YOPC   D2A12690  16.492   5.036   6.892  0.3975 -0.0158 -0.0566
 1103YOPC   C3A12691  16.825   5.192   7.160 -0.3283  0.0788 -0.0337
 1103YOPC   C4A12692  17.018   4.948   7.384  0.0419 -0.2812  0.1820
 1103YOPC   C1B12693  16.042   5.399   6.440 -0.0548  0.0333  0.0632
 1103YOPC   C2B12694  15.990   5.035   6.721 -0.2708 -0.1787 -0.0934
 1103YOPC   D3B12695  16.310   4.693   6.510  0.0554 -0.2006  0.1323
 1103YOPC   C4B12696  16.390   4.323   6.464  0.1353  0.2680 -0.1209
 1104YOPC   NC312697  12.042   0.764   6.354 -0.1108  0.3261  0.0777
 1104YOPC   PO412698  12.190   0.418   6.173 -0.3230  0.1600 -0.0276
 1104YOPC   GL112699  12.371   0.416   6.537  0.2231 -0.1953  0.1847
 1104YOPC   GL212700  12.171   0.223   6.678  0.0746 -0.0342  0.3728
 1104YOPC   C1A12701  12.365   0.588   6.986 -0.1225 -0.0507  0.2096
 1104YOPC   D2A12702  12.405   0.551   7.439  0.0853  0.1192 -0.2127
 1104YOPC   C3A12703  12.270   0.668   7.879 -0.3244  0.0795 -0.0817
 1104YOPC   C4A12704  12.181   0.664   8.347 -0.0548 -0.3082 -0.1222
 1104YOPC   C1B12705  12.384   0.072   7.057 -0.3548 -0.0131  0.0790
 1104YOPC   C2B12706  12.540   0.039   7.475  0.0765 -0.4131  0.1579
 1104YOPC   D3B12707  12.658  -0.341   7.645 -0.1253  0.1819  0.2486
 1104YOPC   C4B12708  12.690  -0.682   8.019 -0.0160  0.0989 -0.0699
 1105YOPC   NC312709  10.938   0.308   5.939 -0.0135 -0.0238  0.1927
 1105YOPC   PO412710  11.373   0.198   6.097 -0.1226 -0.1276  0.0052
 1105YOPC   GL112711  11.487   0.110   6.399  0.0449  0.0181 -0.0388
 1105YOPC   GL212712  11.834  -0.010   6.377  0.0789  0.1277 -0.1296
 1105YOPC   C1A12713  11.242   0.093   6.794 -0.0012 -0.3886 -0.1249
 1105YOPC   D2A12714  11.097   0.063   7.242 -0.1062  0.0931  0.1591
 1105YOPC   C3A12715  11.157  -0.320   7.509 -0.2381  0.2241 -0.1501
 1105YOPC   C4A12716  11.390  -0.619   7.698 -0.1699 -0.1274  0.1255
 1105YOPC   C1B12717  11.898  -0.119   6.929 -0.0895 -0.2964  0.1839
 1105YOPC   C2B12718  11.949   0.279   7.217 -0.0524 -0.5627 -0.4033
 1105YOPC   D3B12719  11.657   0.335   7.584  0.1939 -0.0891  0.2264
 1105YOPC   C4B12720  11.387   0.555   7.839  0.0898  0.0036 -0.4387
 1106YOPC   NC312721   3.607   1.945   6.434 -0.1320 -0.0772  0.5350
 1106YOPC   PO412722   4.002   2.055   6.248 -0.3000  0.1300 -0.1897
 1106YOPC   GL112723   3.975   1.856   6.721 -0.2464  0.0793  0.0969
 1106YOPC   GL212724   3.606   1.732   6.874 -0.0176  0.1604  0.1440
 1106YOPC   C1A12725   4.080   1.771   7.182  0.1804 -0.0040  0.1452
 1106YOPC   D2A12726   4.423   2.024   7.436 -0.0062  0.1921  0.0009
 1106YOPC   C3A12727   4.597   2.069   7.819 -0.1291 -0.1421  0.0026
 1106YOPC   C4A12728   4.837   1.862   8.147 -0.2134  0.3090 -0.0618
 1106YOPC   C1B12729   3.622   1.565   7.348 -0.1347 -0.1489  0.1379
 1106YOPC   C2B12730   3.805   1.530   7.701  0.0631  0.1788  0.0359
 1106YOPC   D3B12731   3.632   1.526   7.981 -0.2041  0.2032  0.1734
 1106YOPC   C4B12732   3.383   1.817   8.280 -0.2631 -0.1321 -0.1420
 1107YOPC   NC312733   3.981  12.989   6.550 -0.0833  0.2826 -0.1257
 1107YOPC   PO412734   4.189  12.645   6.767 -0.0898  0.2747  0.1436
 1107YOPC   GL112735   4.495  12.813   7.073 -0.0995  0.1231 -0.1120
 1107YOPC   GL212736   4.154  13.009   7.182 -0.2063  0.1967  0.1587
 1107YOPC   C1A12737   4.624  12.815   7.528 -0.1904  0.0250  0.0675
 1107YOPC   D2A12738   4.877  13.010   7.854  0.1218  0.0011 -0.2417
 1107YOPC   C3A12739   4.608  12.934   8.258  0.1905 -0.2084 -0.3344
 1107YOPC   C4A12740   4.368  12.834   8.613  0.2939 -0.0955  0.0033
 1107YOPC   C1B12741   4.229  13.114   7.537  0.0184 -0.1108  0.3415
 1107YOPC   C2B12742   4.328  13.080   7.863 -0.1243  0.2048  0.0562
 1107YOPC   D3B12743   4.081  13.213   8.193 -0.0932 -0.1301  0.3766
 1107YOPC   C4B12744   3.897  13.275   8.506 -0.2267  0.0790  0.0130
 1108YOPC   NC312745   5.514   7.999   5.820  0.4388 -0.1017 -0.0380
 1108YOPC   PO412746   5.190   7.695   6.080  0.0589  0.3135 -0.0339
 1108YOPC   GL112747   5.386   7.709   6.446  0.1719 -0.0471  0.3394
 1108YOPC   GL212748   5.670   7.604   6.567 -0.0493 -0.0461  0.1821
 1108YOPC   C1A12749   5.163   7.701   6.853  0.1499 -0.2620  0.2462
 1108YOPC   D2A12750   4.862   7.583   7.195  0.0745  0.2127  0.2755
 1108YOPC   C3A12751   4.671   7.257   7.331  0.2961  0.0660  0.0311
 1108YOPC   C4A12752   4.414   6.908   7.268  0.1813 -0.0839 -0.1013
 1108YOPC   C1B12753   5.599   7.831   6.992  0.2203 -0.1520 -0.1221
 1108YOPC   C2B12754   5.725   8.114   7.382 -0.0820  0.1491  0.1118
 1108YOPC   D3B12755   5.708   7.873   7.749  0.0713  0.1799 -0.0607
 1108YOPC   C4B12756   5.944   7.621   7.945 -0.3295  0.2633 -0.0469
 1109YOPC   NC312757  17.134   3.185   6.133  0.2536  0.0112 -0.0723
 1109YOPC   PO412758  17.070   3.606   6.002  0.0751  0.2516 -0.0721
 1109YOPC   GL112759  16.717   3.487   6.258 -0.2708 -0.0685  0.0118
 1109YOPC   GL212760  16.563   3.744   6.354  0.1399  0.3720 -0.1689
 1109YOPC   C1A12761  16.381   3.289   6.579  0.0681  0.1806 -0.1221
 1109YOPC   D2A12762  16.093   3.065   6.908 -0.2047  0.0348 -0.1089
 1109YOPC   C3A12763  15.973   3.134   7.282 -0.0504 -0.0963  0.3523
 1109YOPC   C4A12764  16.025   2.948   7.623  0.0448  0.0951 -0.4313
 1109YOPC   C1B12765  16.557   3.693   6.818 -0.0562  0.2429 -0.1535
 1109YOPC   C2B12766  16.352   3.489   7.168  0.1755 -0.0149  0.0700
 1109YOPC   D3B12767  16.421   3.473   7.562  0.0355 -0.0958 -0.4852
 1109YOPC   C4B12768  16.268   3.472   8.016 -0.0141 -0.2858 -0.0942
 1110YOPC   NC312769   2.290  16.985   6.578 -0.0021 -0.0079 -0.2921
 1110YOPC   PO412770   1.916  16.789   6.555 -0.2254 -0.2846  0.1476
 1110YOPC   GL112771   1.576  16.846   6.743  0.0578 -0.0320 -0.0822
 1110YOPC   GL212772   1.478  16.510   6.820  0.2456 -0.0235 -0.0338
 1110YOPC   C1A12773   1.524  17.098   7.098  0.0115 -0.0926 -0.1619
 1110YOPC   D2A12774   1.410  17.042   7.570  0.1427 -0.1579 -0.4048
 1110YOPC   C3A12775   1.371  17.211   7.979 -0.2002 -0.2667 -0.2244
 1110YOPC   C4A12776   1.587  17.446   8.241 -0.0323  0.0439 -0.0348
 1110YOPC   C1B12777   1.570  16.577   7.321  0.1914 -0.3708 -0.0633
 1110YOPC   C2B12778   1.566  16.403   7.707  0.3437 -0.0553  0.0246
 1110YOPC   D3B12779   1.784  16.409   8.108 -0.5013 -0.1570 -0.1544
 1110YOPC   C4B12780   1.965  16.113   8.278 -0.0709 -0.1371  0.1752
 1111YOPC   NC312781   0.271  12.376   6.350  0.0566  0.1399  0.0221
 1111YOPC   PO412782  -0.208  12.351   6.306  0.1384 -0.2897  0.0219
 1111YOPC   GL112783  -0.281  12.355   6.664  0.1596  0.0223 -0.4402
 1111YOPC   GL212784   0.077  12.366   6.875 -0.0826  0.3140 -0.5105
 1111YOPC   C1A12785  -0.366  12.538   7.045 -0.1674 -0.1984 -0.0342
 1111YOPC   D2A12786  -0.224  12.600   7.387  0.1817  0.2403  0.1329
 1111YOPC   C3A12787  -0.153  12.463   7.823 -0.0886 -0.0043  0.0750
 1111YOPC   C4A12788  -0.079  12.314   8.268  0.2844  0.2516  0.0701
 1111YOPC   C1B12789   0.053  12.864   6.973  0.0769 -0.1325  0.4357
 1111YOPC   C2B12790   0.048  13.071   7.342 -0.0472  0.1230 -0.0381
 1111YOPC   D3B12791   0.355  12.819   7.557  0.2805  0.0748  0.2847
 1111YOPC   C4B12792   0.463  12.449   7.759 -0.1454  0.2387 -0.0022
 1112YOPC   NC312793  14.680  10.410   6.247  0.2203  0.0676 -0.2875
 1112YOPC   PO412794  15.110  10.349   6.220  0.0734 -0.1516  0.1809
 1112YOPC   GL112795  15.143  10.471   6.681  0.3199  0.0663  0.0888
 1112YOPC   GL212796  15.100  10.766   6.611 -0.2399  0.3351  0.0412
 1112YOPC   C1A12797  15.063  10.233   7.069 -0.1076  0.0328 -0.1938
 1112YOPC   D2A12798  15.083  10.248   7.553  0.1163 -0.1791  0.0244
 1112YOPC   C3A12799  14.907  10.010   7.951 -0.0657  0.4297 -0.1510
 1112YOPC   C4A12800  15.222  10.030   8.196 -0.1054  0.0033 -0.4115
 1112YOPC   C1B12801  15.187  10.816   7.119 -0.1979 -0.1414  0.1006
 1112YOPC   C2B12802  15.351  10.872   7.558 -0.0358  0.0999 -0.2146
 1112YOPC   D3B12803  15.510  10.855   8.037 -0.0232 -0.0736  0.2551
 1112YOPC   C4B12804  15.847  11.014   8.249  0.2235 -0.0362 -0.1553
 1113YOPC   NC312805   9.956   9.590   6.399 -0.1682  0.1206 -0.0657
 1113YOPC   PO412806  10.113  10.017   6.310 -0.0746  0.3847  0.1690
 1113YOPC   GL112807  10.262   9.992   6.739 -0.1794 -0.1555  0.1282
 1113YOPC   GL212808  10.059   9.778   6.871  0.0916 -0.0341 -0.0205
 1113YOPC   C1A12809  10.474  10.201   7.033  0.0202  0.1785  0.1206
 1113YOPC   D2A12810  10.537  10.359   7.475 -0.1471  0.1998 -0.0570
 1113YOPC   C3A12811  10.760  10.192   7.928  0.2362  0.1460  0.1312
 1113YOPC   C4A12812  10.681   9.867   8.188  0.1084  0.0099 -0.2715
 1113YOPC   C1B12813  10.158   9.913   7.264  0.1714  0.2292 -0.0377
 1113YOPC   C2B12814  10.290   9.933   7.597 -0.1478  0.0445  0.0114
 1113YOPC   D3B12815  10.121   9.932   8.035  0.3127 -0.1077  0.2245
 1113YOPC   C4B12816   9.936   9.633   8.348  0.0377  0.3498  0.1173
 1114YOPC   NC312817   1.709   8.904   6.439 -0.0389  0.1681  0.0706
 1114YOPC   PO412818   1.304   8.888   6.563  0.0409 -0.0302  0.2338
 1114YOPC   GL112819   1.525   9.177   6.831  0.1507 -0.3183 -0.2950
 1114YOPC   GL212820   1.898   9.201   6.916  0.2819  0.3258 -0.0356
 1114YOPC   C1A12821   1.467   9.521   7.061 -0.0848 -0.1206 -0.1669
 1114YOPC   D2A12822   1.662   9.668   7.400 -0.0608  0.1179  0.0380
 1114YOPC   C3A12823   1.277   9.607   7.670 -0.1466  0.1989 -0.1686
 1114YOPC   C4A12824   0.940   9.753   7.875 -0.0101  0.1154  0.1108
 1114YOPC   C1B12825   1.708   9.118   7.347  0.0032  0.1772  0.2993
 1114YOPC   C2B12826   1.662   9.253   7.695 -0.5827 -0.1201 -0.3044
 1114YOPC   D3B12827   1.899   9.184   8.056  0.2136 -0.2376  0.0034
 1114YOPC   C4B12828   2.200   8.974   8.256 -0.0547  0.0127 -0.1158
 1115YOPC   NC312829   9.177  10.042   5.933  0.0180  0.1938  0.0814
 1115YOPC   PO412830   9.583   9.931   6.155  0.1100  0.1184 -0.0764
 1115YOPC   GL112831   9.723  10.120   6.607 -0.1742 -0.4961  0.2682
 1115YOPC   GL212832   9.656  10.477   6.643  0.1138 -0.1411 -0.1557
 1115YOPC   C1A12833   9.944  10.262   7.016  0.2063  0.0992 -0.0879
 1115YOPC   D2A12834   9.974  10.426   7.407 -0.0142  0.2661  0.0790
 1115YOPC   C3A12835  10.182  10.361   7.849  0.1719  0.0558  0.0035
 1115YOPC   C4A12836  10.453  10.363   8.305  0.0161  0.1718  0.1278
 1115YOPC   C1B12837   9.687  10.661   7.071 -0.2417  0.1467 -0.2043
 1115YOPC   C2B12838   9.765  10.830   7.516  0.0315  0.1587  0.2456
 1115YOPC   D3B12839   9.471  10.866   7.818  0.0409 -0.0914  0.1994
 1115YOPC   C4B12840   9.259  11.159   8.141  0.2276 -0.1984  0.1220
 1116YOPC   NC312841  11.369   0.686   5.206  0.0754  0.0082 -0.0056
 1116YOPC   PO412842  11.369   0.628   5.725  0.3420  0.0375  0.3056
 1116YOPC   GL112843  11.288   0.753   6.158  0.0342  0.1306 -0.0632
 1116YOPC   GL212844  11.545   0.629   6.355  0.1177  0.0631 -0.0636
 1116YOPC   C1A12845  10.994   0.781   6.518 -0.1981  0.2290 -0.0598
 1116YOPC   D2A12846  10.934   0.494   6.810  0.0485  0.1047  0.0197
 1116YOPC   C3A12847  11.070   0.606   7.246 -0.1824  0.1225  0.0312
 1116YOPC   C4A12848  11.389   0.756   7.344 -0.3826 -0.0069 -0.0388
 1116YOPC   C1B12849  11.710   0.329   6.784  0.1382 -0.1964 -0.2789
 1116YOPC   C2B12850  11.484   0.332   7.143 -0.2584  0.1049  0.2987
 1116YOPC   D3B12851  11.543  -0.045   7.262 -0.1187  0.0141 -0.2295
 1116YOPC   C4B12852  11.670  -0.179   7.666  0.1620 -0.2082  0.0992
 1117YOPC   NC312853   3.185   9.162   6.702 -0.0199  0.2996  0.1237
 1117YOPC   PO412854   3.460   8.834   6.739  0.0908 -0.0336 -0.0257
 1117YOPC   GL112855   3.436   8.882   7.121 -0.2026  0.3246 -0.1803
 1117YOPC   GL212856   3.628   9.217   7.089 -0.0247 -0.1098 -0.1594
 1117YOPC   C1A12857   3.470   8.596   7.517  0.1778  0.2585  0.1614
 1117YOPC   D2A12858   3.474   8.516   7.896  0.1095 -0.1508  0.1874
 1117YOPC   C3A12859   3.184   8.321   8.139  0.2587 -0.1329  0.1671
 1117YOPC   C4A12860   3.250   8.133   8.548 -0.1680 -0.1385 -0.1535
 1117YOPC   C1B12861   3.651   9.140   7.564  0.0129  0.1866  0.3124
 1117YOPC   C2B12862   3.631   9.033   7.964 -0.1112 -0.0555  0.0813
 1117YOPC   D3B12863   4.065   9.068   8.263  0.2076  0.2027  0.0174
 1117YOPC   C4B12864   4.448   9.332   8.361  0.0865 -0.2257 -0.0362
 1118YOPC   NC312865   6.474  12.808   6.212 -0.0691 -0.2442 -0.2313
 1118YOPC   PO412866   6.682  13.201   6.267 -0.0237 -0.0235  0.1119
 1118YOPC   GL112867   6.760  13.402   6.675 -0.1145 -0.0476 -0.2620
 1118YOPC   GL212868   7.138  13.544   6.626  0.3195 -0.2667  0.1466
 1118YOPC   C1A12869   6.635  13.468   7.084  0.0710  0.0085 -0.2005
 1118YOPC   D2A12870   6.271  13.514   7.338  0.0091  0.0692 -0.3435
 1118YOPC   C3A12871   6.426  13.565   7.767  0.4239 -0.1024  0.0919
 1118YOPC   C4A12872   6.342  13.578   8.233 -0.3953 -0.1473  0.0001
 1118YOPC   C1B12873   7.161  13.877   6.957 -0.0902  0.0732 -0.0238
 1118YOPC   C2B12874   7.094  14.277   6.953  0.1547  0.0945 -0.2355
 1118YOPC   D3B12875   7.279  14.449   7.267 -0.0443 -0.0398  0.1300
 1118YOPC   C4B12876   7.362  14.733   7.618  0.2545 -0.3905  0.2779
 1119YOPC   NC312877   0.076  11.557   6.131 -0.2886  0.1073 -0.0011
 1119YOPC   PO412878   0.475  11.851   6.256  0.2178 -0.0708  0.1900
 1119YOPC   GL112879   0.486  11.527   6.487  0.2814  0.1559 -0.0527
 1119YOPC   GL212880   0.138  11.489   6.717 -0.0267 -0.1791 -0.0342
 1119YOPC   C1A12881   0.514  11.227   6.896 -0.2188  0.2683  0.1729
 1119YOPC   D2A12882   0.308  11.098   7.238 -0.2106 -0.1431  0.2223
 1119YOPC   C3A12883   0.376  11.080   7.742  0.1880 -0.3117  0.1252
 1119YOPC   C4A12884   0.325  11.120   8.178 -0.0417 -0.1347 -0.0311
 1119YOPC   C1B12885  -0.075  11.592   7.096 -0.0236  0.1986  0.1288
 1119YOPC   C2B12886  -0.522  11.660   7.318  0.1010 -0.1921 -0.0449
 1119YOPC   D3B12887  -0.636  11.543   7.767  0.0400 -0.1164 -0.1473
 1119YOPC   C4B12888  -0.866  11.553   8.179 -0.0539  0.0550  0.2051
 1120YOPC   NC312889   5.780   9.983   6.446  0.0488 -0.0868 -0.0086
 1120YOPC   PO412890   5.995   9.653   6.681 -0.1259  0.0533 -0.0829
 1120YOPC   GL112891   5.588   9.818   6.903 -0.0073  0.0913  0.3618
 1120YOPC   GL212892   5.492   9.736   7.216 -0.0685 -0.0692 -0.2404
 1120YOPC   C1A12893   5.200  10.087   7.106  0.1191 -0.0016  0.1172
 1120YOPC   D2A12894   4.973  10.125   7.530 -0.2436 -0.1471 -0.3436
 1120YOPC   C3A12895   4.726   9.818   7.605  0.0666 -0.0397 -0.2859
 1120YOPC   C4A12896   4.292   9.685   7.534 -0.4058 -0.1465  0.2849
 1120YOPC   C1B12897   5.397   9.819   7.680 -0.2108  0.1497 -0.0399
 1120YOPC   C2B12898   5.469   9.727   8.071 -0.0038 -0.0234 -0.2555
 1120YOPC   D3B12899   5.201   9.729   8.452  0.2740 -0.3369 -0.1787
 1120YOPC   C4B12900   4.895   9.495   8.663 -0.1354 -0.0087  0.3027
 1121YOPC   NC312901  12.083  17.396   5.995  0.1461  0.0716  0.1235
 1121YOPC   PO412902  11.992  17.801   5.979 -0.1399  0.0143 -0.3618
 1121YOPC   GL112903  11.873  17.751   6.431 -0.1531 -0.0043  0.3215
 1121YOPC   GL212904  11.721  17.443   6.351 -0.0143  0.1842 -0.1575
 1121YOPC   C1A12905  11.733  17.704   6.815  0.0979  0.1466 -0.0462
 1121YOPC   D2A12906  11.548  17.693   7.256  0.0697 -0.1158 -0.1800
 1121YOPC   C3A12907  11.898  17.554   7.504  0.0858  0.1026 -0.0248
 1121YOPC   C4A12908  12.204  17.654   7.820 -0.1281  0.0366 -0.2325
 1121YOPC   C1B12909  12.002  17.297   6.692  0.2055  0.1083  0.1592
 1121YOPC   C2B12910  12.390  17.031   6.801 -0.1457  0.2475  0.1676
 1121YOPC   D3B12911  12.821  17.070   6.902  0.1575 -0.0141  0.2019
 1121YOPC   C4B12912  13.096  17.399   6.881  0.0670 -0.1891  0.3301
 1122YOPC   NC312913   4.198   4.209   5.935 -0.1686  0.0341  0.2323
 1122YOPC   PO412914   3.870   4.098   6.188  0.0871 -0.2101  0.2058
 1122YOPC   GL112915   3.686   4.176   6.520 -0.0363  0.0588 -0.2503
 1122YOPC   GL212916   3.923   4.308   6.674 -0.1125  0.2435  0.0764
 1122YOPC   C1A12917   3.458   4.166   6.811 -0.3042 -0.0242 -0.3668
 1122YOPC   D2A12918   3.550   4.278   7.114  0.0889 -0.1983  0.1753
 1122YOPC   C3A12919   3.380   4.255   7.409  0.0062  0.1730  0.2687
 1122YOPC   C4A12920   3.331   4.377   7.799  0.0423  0.1056 -0.2496
 1122YOPC   C1B12921   4.198   4.195   6.998  0.1125  0.1299  0.3067
 1122YOPC   C2B12922   3.988   4.276   7.381  0.0234  0.0021 -0.0466
 1122YOPC   D3B12923   3.828   4.279   7.756  0.3332  0.0918  0.2369
 1122YOPC   C4B12924   3.690   3.995   8.028 -0.2436  0.2344 -0.2150
 1123YOPC   NC312925  13.918  15.337   6.419 -0.1668  0.2032  0.1050
 1123YOPC   PO412926  13.926  15.731   6.387  0.2964 -0.1423  0.0055
 1123YOPC   GL112927  13.907  15.870   6.722 -0.3604 -0.0838  0.0426
 1123YOPC   GL212928  13.755  16.132   6.881  0.0984  0.0422 -0.0818
 1123YOPC   C1A12929  13.880  15.626   7.056 -0.2829 -0.1717  0.3842
 1123YOPC   D2A12930  13.534  15.550   7.259 -0.1721  0.1465 -0.0696
 1123YOPC   C3A12931  13.458  15.703   7.613  0.3896  0.2660 -0.2015
 1123YOPC   C4A12932  13.253  15.862   7.935  0.1928 -0.3774 -0.3708
 1123YOPC   C1B12933  13.722  16.018   7.272 -0.2000  0.1913  0.0096
 1123YOPC   C2B12934  13.922  15.861   7.686  0.1098  0.2681 -0.1432
 1123YOPC   D3B12935  13.818  15.809   8.121  0.1905  0.3041 -0.1765
 1123YOPC   C4B12936  13.902  15.716   8.569 -0.0461 -0.1308 -0.2686
 1124YOPC   NC312937  17.835   9.180   6.115  0.1460  0.0132 -0.0672
 1124YOPC   PO412938  17.768   9.205   6.576 -0.1170 -0.3219 -0.2259
 1124YOPC   GL112939  17.355   9.151   6.739  0.0025  0.1566 -0.2083
 1124YOPC   GL212940  17.325   9.449   6.988 -0.1089 -0.0369  0.1123
 1124YOPC   C1A12941  17.353   8.891   7.078 -0.1066 -0.3203 -0.1870
 1124YOPC   D2A12942  17.402   8.829   7.599  0.0577 -0.1897  0.0649
 1124YOPC   C3A12943  17.453   8.669   7.869  0.2262  0.0708  0.2071
 1124YOPC   C4A12944  17.434   8.315   8.169 -0.0963  0.0337 -0.0876
 1124YOPC   C1B12945  17.372   9.360   7.347  0.1433  0.2352  0.2237
 1124YOPC   C2B12946  17.435   9.269   7.850 -0.0133  0.0696 -0.1256
 1124YOPC   D3B12947  17.702   9.028   8.109 -0.0716  0.0576  0.3943
 1124YOPC   C4B12948  17.879   8.805   8.390 -0.0985  0.0509 -0.1622
 1125YOPC   NC312949   6.903  11.274   6.583  0.2545 -0.1312  0.2270
 1125YOPC   PO412950   7.338  11.050   6.530 -0.0344  0.1616 -0.2706
 1125YOPC   GL112951   7.430  11.018   6.943 -0.1548 -0.1640  0.2473
 1125YOPC   GL212952   7.132  11.035   6.962  0.4480  0.1230 -0.2648
 1125YOPC   C1A12953   7.875  10.970   7.174  0.3219  0.1713 -0.0196
 1125YOPC   D2A12954   8.141  10.805   7.457 -0.0697  0.0202 -0.0879
 1125YOPC   C3A12955   8.280  11.014   7.897  0.0350 -0.1803  0.0746
 1125YOPC   C4A12956   8.336  11.167   8.248  0.0694  0.0828 -0.0670
 1125YOPC   C1B12957   7.033  10.917   7.414 -0.0119 -0.1598 -0.1574
 1125YOPC   C2B12958   7.046  11.108   7.865 -0.2591 -0.0595 -0.1610
 1125YOPC   D3B12959   7.478  11.269   8.117  0.3145  0.0032  0.1416
 1125YOPC   C4B12960   7.834  11.393   8.436 -0.0553 -0.0690 -0.2076
 1126YOPC   NC312961  11.434   6.623   5.635 -0.0558 -0.3985  0.1913
 1126YOPC   PO412962  11.372   6.763   6.008 -0.0601  0.0388 -0.0363
 1126YOPC   GL112963  11.463   6.670   6.432 -0.3313  0.3364  0.0126
 1126YOPC   GL212964  11.304   6.885   6.526  0.1455 -0.1241 -0.0344
 1126YOPC   C1A12965  11.646   6.379   6.658  0.1238  0.0988  0.0122
 1126YOPC   D2A12966  11.898   6.188   6.938 -0.0757 -0.2060  0.2967
 1126YOPC   C3A12967  11.850   5.761   6.942  0.0970  0.1110 -0.0470
 1126YOPC   C4A12968  11.927   5.577   6.566  0.1210  0.1951 -0.0631
 1126YOPC   C1B12969  11.231   6.936   6.901  0.3059  0.3088 -0.1257
 1126YOPC   C2B12970  11.409   7.051   7.314 -0.2640 -0.1103  0.1373
 1126YOPC   D3B12971  11.570   6.827   7.616  0.1510 -0.0475  0.0292
 1126YOPC   C4B12972  11.877   6.721   7.756 -0.0683  0.0710 -0.1800
 1127YOPC   NC312973  13.644   2.593   5.974 -0.1954 -0.0326  0.2303
 1127YOPC   PO412974  14.094   2.710   6.077  0.1055 -0.0026 -0.0304
 1127YOPC   GL112975  14.404   2.827   6.322 -0.1658  0.1472  0.0819
 1127YOPC   GL212976  14.686   2.581   6.276  0.2097 -0.0133  0.2669
 1127YOPC   C1A12977  14.407   2.930   6.727  0.1918 -0.0188 -0.0452
 1127YOPC   D2A12978  14.365   2.863   7.138  0.0417  0.1889 -0.1576
 1127YOPC   C3A12979  14.565   3.023   7.453  0.0087 -0.0122  0.1664
 1127YOPC   C4A12980  14.620   2.992   7.913 -0.0779  0.0808 -0.0459
 1127YOPC   C1B12981  14.664   2.426   6.706 -0.0456  0.0851 -0.0826
 1127YOPC   C2B12982  14.360   2.352   6.981  0.0545  0.1620  0.2432
 1127YOPC   D3B12983  14.298   2.033   7.262  0.5291  0.1279 -0.1197
 1127YOPC   C4B12984  14.235   1.579   7.195  0.0646 -0.1836 -0.1065
 1128YOPC   NC312985  16.875   6.853   6.270 -0.3149 -0.1515 -0.0116
 1128YOPC   PO412986  17.343   6.633   6.440  0.0499  0.1326 -0.0385
 1128YOPC   GL112987  17.375   6.683   6.807 -0.0966  0.0096  0.1952
 1128YOPC   GL212988  17.618   6.781   6.881 -0.1881 -0.0350 -0.3673
 1128YOPC   C1A12989  17.239   6.561   7.186 -0.1355  0.0981  0.1167
 1128YOPC   D2A12990  17.400   6.374   7.563  0.0630 -0.0617 -0.0367
 1128YOPC   C3A12991  17.327   6.098   7.842 -0.1180  0.0184  0.2194
 1128YOPC   C4A12992  17.017   5.759   8.049 -0.0856 -0.0242 -0.1848
 1128YOPC   C1B12993  17.768   6.645   7.250  0.0996  0.0654 -0.1622
 1128YOPC   C2B12994  17.947   6.474   7.656  0.5114  0.0875 -0.0448
 1128YOPC   D3B12995  17.731   6.415   7.897  0.1653 -0.3262  0.2770
 1128YOPC   C4B12996  17.255   6.525   8.019 -0.1654  0.1143  0.5550
 1129YOPC   NC312997   3.686  16.210   6.121  0.1294  0.0366 -0.0092
 1129YOPC   PO412998   3.915  15.796   6.211 -0.2833 -0.2470 -0.0166
 1129YOPC   GL112999   3.894  15.637   6.622 -0.2044 -0.2737 -0.1943
 1129YOPC   GL213000   4.066  15.418   6.669  0.2879 -0.0517  0.2034
 1129YOPC   C1A13001   3.762  15.789   7.062  0.1218 -0.2196  0.0465
 1129YOPC   D2A13002   3.699  15.698   7.461  0.2374  0.0384 -0.0488
 1129YOPC   C3A13003   4.024  15.697   7.643  0.0166 -0.1300  0.1553
 1129YOPC   C4A13004   4.121  15.708   8.062  0.0928 -0.1017  0.0999
 1129YOPC   C1B13005   4.399  15.456   7.008 -0.0127  0.0768 -0.4654
 1129YOPC   C2B13006   4.636  15.473   7.378  0.0007  0.1726 -0.0566
 1129YOPC   D3B13007   5.002  15.728   7.562  0.2321 -0.2572  0.0020
 1129YOPC   C4B13008   5.023  16.138   7.498  0.0364  0.3555 -0.3681
 1130YOPC   NC313009  10.531  13.682   5.619 -0.0277 -0.2068 -0.0849
 1130YOPC   PO413010  10.538  14.057   6.023 -0.2418  0.0523  0.2712
 1130YOPC   GL113011  10.372  14.386   6.293 -0.0036 -0.0569  0.2328
 1130YOPC   GL213012  10.277  14.062   6.501 -0.0387 -0.2271 -0.2031
 1130YOPC   C1A13013  10.496  14.627   6.680 -0.1543 -0.0317 -0.0009
 1130YOPC   D2A13014  10.242  14.849   7.017  0.2709 -0.1231  0.0389
 1130YOPC   C3A13015  10.304  14.983   7.459  0.0395 -0.1021  0.0104
 1130YOPC   C4A13016  10.644  14.854   7.858  0.1036 -0.0711 -0.1896
 1130YOPC   C1B13017   9.940  13.825   6.741  0.2314 -0.0021  0.0741
 1130YOPC   C2B13018   9.793  13.796   7.234 -0.0559 -0.0637  0.1343
 1130YOPC   D3B13019   9.917  13.563   7.616 -0.0265 -0.0745 -0.0440
 1130YOPC   C4B13020   9.936  13.429   8.002 -0.0388  0.1734 -0.1075
 1131YOPC   NC313021  10.658  14.519   5.842 -0.1205 -0.0701  0.0103
 1131YOPC   PO413022  10.433  14.881   6.046 -0.0302 -0.0144 -0.0143
 1131YOPC   GL113023  10.274  14.986   6.405  0.1569  0.0045  0.3270
 1131YOPC   GL213024  10.016  14.866   6.513 -0.0386 -0.0299  0.2191
 1131YOPC   C1A13025  10.457  15.360   6.653 -0.1493 -0.0224 -0.0617
 1131YOPC   D2A13026  10.505  15.698   7.069 -0.0614  0.0049  0.1691
 1131YOPC   C3A13027  10.361  15.482   7.440  0.0250 -0.1701 -0.0578
 1131YOPC   C4A13028  10.209  15.707   7.805 -0.1949  0.1168  0.1774
 1131YOPC   C1B13029   9.966  14.464   6.752  0.2331 -0.3452  0.4704
 1131YOPC   C2B13030  10.286  14.235   7.021 -0.2235  0.1413 -0.0945
 1131YOPC   D3B13031  10.322  14.359   7.442 -0.0660  0.0433  0.0032
 1131YOPC   C4B13032  10.346  14.420   7.849 -0.0389 -0.3552  0.1644
 1132YOPC   NC313033  18.214  17.821   6.588  0.1801 -0.4177  0.0405
 1132YOPC   PO413034  18.014  18.072   6.611  0.1174  0.3010  0.0430
 1132YOPC   GL113035  18.058  18.274   7.043  0.3309  0.0557  0.1373
 1132YOPC   GL213036  17.752  18.146   7.104  0.1907 -0.0240  0.0995
 1132YOPC   C1A13037  18.105  18.096   7.439 -0.0783  0.3003 -0.3474
 1132YOPC   D2A13038  17.961  18.148   7.829 -0.1600 -0.0547 -0.1888
 1132YOPC   C3A13039  17.999  17.795   8.141 -0.1617 -0.1279 -0.2569
 1132YOPC   C4A13040  17.684  17.483   8.263  0.1211 -0.3419 -0.1280
 1132YOPC   C1B13041  17.662  18.313   7.459 -0.0258 -0.0573 -0.2008
 1132YOPC   C2B13042  17.483  18.455   7.851  0.2078  0.3504 -0.0087
 1132YOPC   D3B13043  17.650  18.614   8.153 -0.1330 -0.0151 -0.1970
 1132YOPC   C4B13044  17.805  18.907   8.501 -0.0412  0.0815 -0.1472
 1133YOPC   NC313045  15.519   4.606   5.970  0.2408 -0.1998 -0.0938
 1133YOPC   PO413046  15.723   4.214   6.038  0.1451 -0.1712  0.0824
 1133YOPC   GL113047  15.820   3.968   6.338 -0.2223  0.1787  0.1904
 1133YOPC   GL213048  15.622   3.973   6.509  0.2765 -0.0686 -0.4077
 1133YOPC   C1A13049  16.102   4.019   6.708  0.0179 -0.0834 -0.0021
 1133YOPC   D2A13050  16.170   3.912   7.034  0.1020 -0.0226 -0.0497
 1133YOPC   C3A13051  16.241   4.015   7.461  0.3672 -0.0432 -0.1458
 1133YOPC   C4A13052  16.047   3.959   7.858  0.1024  0.2048 -0.0256
 1133YOPC   C1B13053  15.591   4.060   6.915 -0.1693  0.1900 -0.1100
 1133YOPC   C2B13054  15.750   4.116   7.284  0.3642 -0.2413  0.2915
 1133YOPC   D3B13055  15.561   3.989   7.602 -0.0695  0.2343  0.0295
 1133YOPC   C4B13056  15.449   4.199   7.974 -0.0704  0.2108 -0.1822
 1134YOPC   NC313057  12.695   9.035   5.874  0.2047 -0.0571 -0.0804
 1134YOPC   PO413058  13.193   9.358   6.074  0.1135  0.1922 -0.2228
 1134YOPC   GL113059  13.083   9.457   6.516 -0.4057  0.4626 -0.2014
 1134YOPC   GL213060  13.253   9.735   6.598 -0.1203 -0.1806  0.0431
 1134YOPC   C1A13061  13.154   9.484   6.962  0.1112  0.1473 -0.1519
 1134YOPC   D2A13062  13.095   9.555   7.427 -0.2143 -0.1006  0.0410
 1134YOPC   C3A13063  12.730   9.777   7.763  0.1260  0.1291 -0.2520
 1134YOPC   C4A13064  12.502  10.238   7.863 -0.0696 -0.0563 -0.4284
 1134YOPC   C1B13065  13.397   9.892   7.003 -0.0141 -0.1359  0.0169
 1134YOPC   C2B13066  13.453   9.998   7.392  0.0888  0.0112  0.0185
 1134YOPC   D3B13067  13.216   9.882   7.823  0.0459 -0.2510 -0.0756
 1134YOPC   C4B13068  13.092   9.706   8.212  0.4954 -0.2403 -0.3222
 1135YOPC   NC313069  13.373  14.534   6.160 -0.3095  0.0551  0.1521
 1135YOPC   PO413070  12.954  14.606   5.900 -0.1853  0.0228  0.1549
 1135YOPC   GL113071  12.772  14.628   6.291  0.0833  0.2267  0.1070
 1135YOPC   GL213072  12.765  14.973   6.442 -0.1493 -0.0536  0.0429
 1135YOPC   C1A13073  12.717  14.341   6.629 -0.0073 -0.2555  0.0675
 1135YOPC   D2A13074  12.709  13.902   6.865  0.0009  0.2271 -0.1254
 1135YOPC   C3A13075  12.812  13.925   7.302 -0.0881 -0.1284 -0.2848
 1135YOPC   C4A13076  12.738  13.851   7.554 -0.0121 -0.0042  0.1183
 1135YOPC   C1B13077  12.723  15.144   6.900  0.1216 -0.1179  0.1788
 1135YOPC   C2B13078  12.678  15.280   7.299  0.0157  0.0314 -0.1276
 1135YOPC   D3B13079  12.344  15.389   7.526 -0.0404 -0.4213  0.2246
 1135YOPC   C4B13080  11.897  15.269   7.503  0.0514  0.0856 -0.1560
 1136YOPC   NC313081  14.428   3.759   5.806  0.0644 -0.1528  0.2491
 1136YOPC   PO413082  14.724   3.521   5.880  0.0364  0.2653 -0.1033
 1136YOPC   GL113083  14.478   3.533   6.266  0.0489  0.0983  0.1707
 1136YOPC   GL213084  14.260   3.838   6.290 -0.1310  0.0087  0.5947
 1136YOPC   C1A13085  14.404   3.411   6.697  0.0427 -0.2202 -0.1737
 1136YOPC   D2A13086  14.341   3.392   7.190 -0.0074 -0.1731  0.1780
 1136YOPC   C3A13087  14.087   3.121   7.428  0.3352  0.1520 -0.2851
 1136YOPC   C4A13088  14.197   2.692   7.662 -0.1481  0.0327  0.1691
 1136YOPC   C1B13089  14.341   3.966   6.671 -0.1149  0.3519  0.2797
 1136YOPC   C2B13090  14.414   3.844   7.014 -0.1626 -0.4093  0.2675
 1136YOPC   D3B13091  14.824   3.924   7.206 -0.1005  0.0407  0.0455
 1136YOPC   C4B13092  15.002   4.024   7.603 -0.1088  0.0425  0.1917
 1137YOPC   NC313093  18.138   4.265   6.121 -0.0611 -0.0322  0.1915
 1137YOPC   PO413094  17.728   4.375   6.296 -0.1944  0.0809  0.0245
 1137YOPC   GL113095  17.994   4.131   6.578  0.1900  0.2916 -0.0978
 1137YOPC   GL213096  18.139   4.507   6.591  0.0769 -0.3126  0.0705
 1137YOPC   C1A13097  17.979   3.970   7.010 -0.1193  0.1058  0.1869
 1137YOPC   D2A13098  18.320   3.868   7.312  0.0378 -0.0370 -0.0117
 1137YOPC   C3A13099  18.226   3.887   7.781  0.1802  0.2039 -0.0902
 1137YOPC   C4A13100  18.641   3.700   8.079 -0.0563  0.0255  0.2217
 1137YOPC   C1B13101  18.025   4.510   6.968 -0.3213  0.4342  0.1607
 1137YOPC   C2B13102  18.149   4.368   7.310  0.2258 -0.1026 -0.1662
 1137YOPC   D3B13103  18.335   4.291   7.622  0.1885  0.0812  0.0015
 1137YOPC   C4B13104  18.643   4.272   8.056  0.2011  0.0479  0.1270
 1138YOPC   NC313105  11.790   4.552   5.894  0.2188  0.2325 -0.0526
 1138YOPC   PO413106  11.810   4.184   5.866  0.0913  0.1717  0.0111
 1138YOPC   GL113107  11.911   4.030   6.320 -0.0856 -0.0133  0.0493
 1138YOPC   GL213108  11.745   3.726   6.513 -0.0596  0.0776  0.3910
 1138YOPC   C1A13109  12.215   4.185   6.762 -0.0148 -0.2938 -0.0062
 1138YOPC   D2A13110  12.466   3.971   7.009 -0.2578  0.1417  0.0707
 1138YOPC   C3A13111  12.693   4.181   7.331  0.2446 -0.2043 -0.0177
 1138YOPC   C4A13112  12.677   4.167   7.713  0.1511 -0.1268  0.2170
 1138YOPC   C1B13113  11.685   3.485   6.913 -0.0666 -0.1231 -0.1173
 1138YOPC   C2B13114  11.378   3.535   7.244  0.0764 -0.0849 -0.1042
 1138YOPC   D3B13115  11.130   3.878   7.375 -0.4194 -0.0493  0.0852
 1138YOPC   C4B13116  11.085   4.090   7.766 -0.3023  0.1219 -0.1015
 1139YOPC   NC313117   5.927  17.681   6.208  0.1539  0.0116 -0.1047
 1139YOPC   PO413118   6.335  17.489   6.060 -0.2907 -0.1106 -0.0849
 1139YOPC   GL113119   6.382  17.500   6.561 -0.0226  0.0677  0.1827
 1139YOPC   GL213120   6.423  17.155   6.664 -0.2185 -0.1495 -0.0115
 1139YOPC   C1A13121   6.458  17.554   7.075 -0.1714  0.0751  0.1479
 1139YOPC   D2A13122   6.263  17.367   7.374 -0.1490 -0.2886  0.0110
 1139YOPC   C3A13123   6.509  17.411   7.762 -0.1717  0.2618 -0.0417
 1139YOPC   C4A13124   6.479  17.089   8.064 -0.1783  0.0269 -0.0635
 1139YOPC   C1B13125   6.018  17.227   6.887 -0.3781 -0.0553 -0.0458
 1139YOPC   C2B13126   5.873  17.074   7.242  0.0351  0.4596 -0.0112
 1139YOPC   D3B13127   5.822  17.077   7.615 -0.2304  0.0949 -0.0460
 1139YOPC   C4B13128   5.588  16.821   7.835  0.1499 -0.1600 -0.1157
 1140YOPC   NC313129  14.144   4.461   5.600 -0.0451 -0.2491  0.1462
 1140YOPC   PO413130  13.914   4.565   5.947  0.4001 -0.4107 -0.0249
 1140YOPC   GL113131  13.950   4.854   6.280 -0.2599 -0.0120  0.0244
 1140YOPC   GL213132  13.770   4.787   6.449 -0.3231  0.1783  0.0937
 1140YOPC   C1A13133  14.130   4.855   6.821 -0.3670 -0.1793  0.0906
 1140YOPC   D2A13134  14.487   4.758   7.014 -0.1030  0.2919  0.0679
 1140YOPC   C3A13135  14.334   4.715   7.482 -0.0759  0.2425  0.4646
 1140YOPC   C4A13136  14.122   4.425   7.675  0.2533  0.0242  0.1029
 1140YOPC   C1B13137  13.588   4.709   6.887  0.1125  0.4448  0.1498
 1140YOPC   C2B13138  13.860   4.798   7.231 -0.2483  0.1497  0.2453
 1140YOPC   D3B13139  13.571   4.990   7.544 -0.0575 -0.1372  0.1151
 1140YOPC   C4B13140  13.194   4.850   7.798  0.2421 -0.1579  0.1543
 1141ERGO   ROH13141  17.313   4.834   6.267 -0.0686 -0.1068  0.1405
 1141ERGO    R113142  17.402   4.979   6.493  0.1291 -0.0973  0.0582
 1141ERGO    R213143  17.598   4.884   6.663  0.2404 -0.1140 -0.0782
 1141ERGO    R313144  17.716   5.122   6.609  0.2444 -0.1413 -0.1944
 1141ERGO    R413145  17.874   5.010   6.830  0.1317  0.0491 -0.0170
 1141ERGO    R513146  17.781   5.207   6.824  0.1121  0.0342 -0.2225
 1141ERGO    C113147  18.145   5.307   6.875  0.0718  0.1184 -0.0906
 1141ERGO    C213148  18.452   5.405   6.861  0.4361 -0.0449 -0.3098
 1142ERGO   ROH13149  14.932   4.765   6.273 -0.1602  0.0899  0.0975
 1142ERGO    R113150  14.879   4.851   6.537 -0.0691  0.1878  0.0837
 1142ERGO    R213151  14.953   4.704   6.760 -0.3008  0.1021  0.1015
 1142ERGO    R313152  15.076   4.935   6.831  0.0180 -0.0608  0.1002
 1142ERGO    R413153  15.082   4.770   7.073 -0.4387  0.0109  0.1796
 1142ERGO    R513154  15.005   4.973   7.057 -0.1050  0.1385  0.0344
 1142ERGO    C113155  15.273   5.026   7.323 -0.2198 -0.1952  0.2238
 1142ERGO    C213156  15.379   5.437   7.406 -0.1149 -0.0884 -0.3305
 1143ERGO   ROH13157   2.167   6.421   6.850 -0.1377  0.0274 -0.1745
 1143ERGO    R113158   1.970   6.480   7.044 -0.0310  0.0669 -0.0777
 1143ERGO    R213159   1.974   6.371   7.298  0.0736  0.0688 -0.0798
 1143ERGO    R313160   1.961   6.632   7.375  0.1601  0.0721 -0.0738
 1143ERGO    R413161   1.957   6.479   7.626 -0.2470  0.0508 -0.0869
 1143ERGO    R513162   1.813   6.631   7.563 -0.0704  0.1566 -0.2498
 1143ERGO    C113163   1.935   6.787   7.889 -0.3525  0.0435 -0.0852
 1143ERGO    C213164   2.096   6.780   8.193  0.0959 -0.0234  0.1102
 1144ERGO   ROH13165  15.416   5.775   6.467  0.0214 -0.1727  0.0991
 1144ERGO    R113166  15.537   5.809   6.720  0.0072 -0.3659  0.1329
 1144ERGO    R213167  15.493   6.032   6.878  0.3590 -0.2663  0.0935
 1144ERGO    R313168  15.424   5.847   7.064 -0.0344 -0.1281  0.0958
 1144ERGO    R413169  15.509   6.082   7.219  0.5883 -0.3258  0.0936
 1144ERGO    R513170  15.584   5.878   7.240  0.1084 -0.5254  0.0494
 1144ERGO    C113171  15.453   5.937   7.594  0.3524 -0.2306  0.0958
 1144ERGO    C213172  15.221   5.836   7.800  0.1480  0.1983 -0.1543
 1145ERGO   ROH13173  13.715   7.471   6.555  0.1632 -0.0375  0.2393
 1145ERGO    R113174  13.642   7.516   6.825 -0.0795  0.1007  0.1553
 1145ERGO    R213175  13.395   7.618   6.897 -0.2187 -0.0132 -0.1043
 1145ERGO    R313176  13.384   7.395   7.052 -0.1769  0.0795  0.0292
 1145ERGO    R413177  13.276   7.608   7.221 -0.0619  0.1673 -0.0405
 1145ERGO    R513178  13.439   7.472   7.272 -0.0667  0.1822 -0.0431
 1145ERGO    C113179  13.197   7.393   7.556  0.0687  0.3593  0.1219
 1145ERGO    C213180  13.050   7.423   7.898 -0.2631 -0.0732  0.1211
 1146ERGO   ROH13181   1.554  12.024   6.925 -0.1303 -0.1033  0.1783
 1146ERGO    R113182   1.734  11.966   7.136 -0.0610 -0.0836  0.1260
 1146ERGO    R213183   1.850  12.164   7.291 -0.0321 -0.0691  0.0907
 1146ERGO    R313184   1.745  12.020   7.496  0.0404 -0.0771  0.1215
 1146ERGO    R413185   1.898  12.232   7.626  0.0518 -0.0618  0.0767
 1146ERGO    R513186   1.917  12.019   7.662  0.0844 -0.0573  0.0742
 1146ERGO    C113187   1.827  12.137   8.014  0.1687 -0.0651  0.0975
 1146ERGO    C213188   1.652  12.075   8.246 -0.0049  0.1716  0.1130
 1147ERGO   ROH13189  16.912   6.603   6.793 -0.0227 -0.0598  0.0302
 1147ERGO    R113190  16.825   6.780   6.996  0.0749  0.0389 -0.0130
 1147ERGO    R213191  16.756   6.694   7.249 -0.1453  0.1131 -0.0445
 1147ERGO    R313192  16.939   6.881   7.327  0.0274 -0.0883  0.0423
 1147ERGO    R413193  16.844   6.760   7.577 -0.2223  0.0107 -0.0032
 1147ERGO    R513194  16.847   6.973   7.528  0.0358  0.0099  0.0011
 1147ERGO    C113195  17.066   6.973   7.841 -0.1050 -0.2379  0.1024
 1147ERGO    C213196  17.267   7.187   8.098  0.6575 -0.1531 -0.0257
 1148ERGO   ROH13197   6.466  11.825   7.295 -0.1761  0.0318  0.0305
 1148ERGO    R113198   6.561  11.787   7.559  0.0291  0.1811 -0.0184
 1148ERGO    R213199   6.728  11.968   7.685 -0.1723  0.4457 -0.1140
 1148ERGO    R313200   6.535  11.963   7.877 -0.0681  0.1543 -0.0127
 1148ERGO    R413201   6.786  11.992   8.025 -0.0185  0.1912 -0.1207
 1148ERGO    R513202   6.634  11.839   8.057  0.1024  0.0657 -0.1688
 1148ERGO    C113203   6.640  12.000   8.403  0.1690 -0.2303 -0.0295
 1148ERGO    C213204   6.750  12.183   8.641  0.2004  0.1933 -0.2715
 1149ERGO   ROH13205  14.740  15.903   6.749 -0.0726 -0.1921 -0.1233
 1149ERGO    R113206  14.655  15.864   7.016 -0.0931 -0.0858 -0.1135
 1149ERGO    R213207  14.390  15.823   7.083 -0.0682 -0.3277 -0.1487
 1149ERGO    R313208  14.488  15.601   7.204  0.1513 -0.1321  0.0412
 1149ERGO    R413209  14.285  15.701   7.389  0.0645 -0.1691 -0.0385
 1149ERGO    R513210  14.493  15.656   7.437  0.1098  0.0709 -0.0060
 1149ERGO    C113211  14.317  15.421   7.681  0.3479  0.1071  0.2040
 1149ERGO    C213212  14.274  15.159   7.800  0.1372 -0.0743 -0.0223
 1150ERGO   ROH13213   7.388  17.611   6.097 -0.0683 -0.1129 -0.1399
 1150ERGO    R113214   7.423  17.617   6.378 -0.1525 -0.2220 -0.1268
 1150ERGO    R213215   7.533  17.406   6.519  0.2006 -0.1146 -0.2340
 1150ERGO    R313216   7.703  17.597   6.610 -0.1681  0.1486 -0.0695
 1150ERGO    R413217   7.667  17.415   6.837  0.3149 -0.2337 -0.2776
 1150ERGO    R513218   7.638  17.631   6.838 -0.1546 -0.2826  0.0084
 1150ERGO    C113219   7.906  17.599   7.108  0.0353 -0.0555 -0.1485
 1150ERGO    C213220   8.024  17.572   7.347  0.0819  0.1494  0.0752
 1151ERGO   ROH13221  10.320  15.828   6.570 -0.1843 -0.0761 -0.0525
 1151ERGO    R113222  10.101  15.886   6.740 -0.1464 -0.0792 -0.0026
 1151ERGO    R213223  10.012  15.710   6.933 -0.0406 -0.0404  0.0801
 1151ERGO    R313224  10.046  15.924   7.097 -0.0459  0.0201  0.0032
 1151ERGO    R413225   9.866  15.746   7.245 -0.0973  0.0947  0.0391
 1151ERGO    R513226   9.832  15.956   7.199 -0.0640  0.0838 -0.0502
 1151ERGO    C113227   9.814  15.967   7.580 -0.1354  0.2303 -0.0569
 1151ERGO    C213228   9.737  15.915   7.931 -0.3345  0.1122 -0.2745
 1152ERGO   ROH13229   1.743  17.686   6.984 -0.0561  0.0444  0.1021
 1152ERGO    R113230   1.685  17.664   7.260  0.0243  0.2095  0.1354
 1152ERGO    R213231   1.712  17.427   7.400 -0.1160  0.2356  0.2217
 1152ERGO    R313232   1.869  17.577   7.562  0.0755  0.1876  0.1016
 1152ERGO    R413233   1.864  17.313   7.688  0.1333  0.1585  0.0619
 1152ERGO    R513234   1.815  17.503   7.783  0.2602  0.1642  0.1451
 1152ERGO    C113235   2.100  17.388   8.009  0.4582  0.0686 -0.1438
 1152ERGO    C213236   2.098  17.299   8.249 -0.0636  0.1168  0.1986
 1153ERGO   ROH13237   2.310   8.254   6.962  0.1093  0.0626  0.0459
 1153ERGO    R113238   2.172   8.122   7.172  0.1218  0.0537  0.0490
 1153ERGO    R213239   2.216   7.857   7.235  0.0144  0.0068 -0.0649
 1153ERGO    R313240   2.261   7.957   7.484  0.1575 -0.1058 -0.0441
 1153ERGO    R413241   2.176   7.680   7.529 -0.2654  0.0063 -0.1011
 1153ERGO    R513242   2.090   7.859   7.619 -0.0005  0.1249 -0.0708
 1153ERGO    C113243   2.195   7.671   7.934 -0.2938 -0.0996 -0.1027
 1153ERGO    C213244   2.427   7.526   8.216  0.0115  0.0946 -0.1550
 1154ERGO   ROH13245   8.168   7.532   7.037 -0.0790  0.1225  0.0929
 1154ERGO    R113246   8.197   7.642   7.296  0.1463  0.2497  0.0160
 1154ERGO    R213247   8.110   7.513   7.524 -0.0413  0.5454  0.1162
 1154ERGO    R313248   8.366   7.551   7.605  0.0422  0.1684  0.0508
 1154ERGO    R413249   8.222   7.474   7.849 -0.0635  0.5533  0.1247
 1154ERGO    R513250   8.346   7.652   7.822  0.2348  0.3393 -0.0043
 1154ERGO    C113251   8.529   7.488   8.114  0.0019  0.2038  0.0681
 1154ERGO    C213252   8.666   7.277   8.436 -0.2913  0.1900 -0.0055
 1155ERGO   ROH13253   9.185  10.141   6.768  0.0124  0.1160  0.0405
 1155ERGO    R113254   9.232  10.338   6.965 -0.0166  0.0685  0.0948
 1155ERGO    R213255   9.140  10.314   7.225 -0.0643  0.0111  0.0724
 1155ERGO    R313256   9.401  10.354   7.287 -0.0741 -0.0120  0.1293
 1155ERGO    R413257   9.267  10.324   7.546 -0.1282 -0.0214  0.0993
 1155ERGO    R513258   9.395  10.489   7.485 -0.1041 -0.0262  0.1379
 1155ERGO    C113259   9.586  10.368   7.792 -0.1745 -0.0621  0.1682
 1155ERGO    C213260   9.679  10.256   8.067  0.0341  0.2359  0.3001
 1156ERGO   ROH13261   1.159   7.032   6.790  0.0253 -0.0096  0.0750
 1156ERGO    R113262   1.132   6.814   6.967  0.0971  0.0050  0.1048
 1156ERGO    R213263   0.966   6.820   7.188  0.1114 -0.0114  0.1201
 1156ERGO    R313264   0.864   6.593   7.078  0.1628 -0.0497  0.1526
 1156ERGO    R413265   0.740   6.610   7.343  0.1113 -0.0113  0.1193
 1156ERGO    R513266   0.850   6.440   7.261  0.1477 -0.0119  0.1794
 1156ERGO    C113267   0.513   6.274   7.330  0.1595 -0.0473  0.1493
 1156ERGO    C213268   0.271   6.124   7.367  0.0400  0.0632 -0.2155
 1157ERGO   ROH13269   6.675   5.254   6.462  0.4817  0.2857 -0.2372
 1157ERGO    R113270   6.841   5.281   6.690  0.3243  0.0656 -0.0923
 1157ERGO    R213271   6.742   5.275   6.948  0.1211 -0.0120 -0.1712
 1157ERGO    R313272   6.928   5.079   6.980 -0.0203 -0.1410 -0.1275
 1157ERGO    R413273   6.793   5.097   7.240  0.1506  0.1858 -0.0539
 1157ERGO    R513274   7.008   5.108   7.203  0.1419 -0.0203 -0.1986
 1157ERGO    C113275   6.997   4.809   7.439  0.0350  0.1798  0.0555
 1157ERGO    C213276   6.799   4.558   7.752  0.1807  0.0962 -0.2376
 1158ERGO   ROH13277   9.086   6.439   6.815 -0.0510 -0.0314  0.0222
 1158ERGO    R113278   8.994   6.349   7.067 -0.1634  0.0693  0.0176
 1158ERGO    R213279   9.166   6.270   7.269 -0.2588 -0.1831  0.0014
 1158ERGO    R313280   9.028   6.453   7.414 -0.0050 -0.0064  0.0263
 1158ERGO    R413281   9.163   6.286   7.614 -0.0667 -0.0901  0.0006
 1158ERGO    R513282   8.950   6.331   7.604 -0.0303  0.1186  0.0983
 1158ERGO    C113283   9.031   6.468   7.951  0.2833  0.1299  0.0236
 1158ERGO    C213284   9.017   6.572   8.215  0.2126 -0.0500 -0.2141
 1159ERGO   ROH13285   2.029  16.936   7.026  0.2248  0.2006  0.0704
 1159ERGO    R113286   1.993  17.028   7.292  0.0777  0.1374  0.0739
 1159ERGO    R213287   1.879  16.872   7.489  0.0736  0.0453  0.0006
 1159ERGO    R313288   2.108  16.930   7.623 -0.0024  0.1316  0.1014
 1159ERGO    R413289   1.962  16.748   7.801  0.1150 -0.1636 -0.0907
 1159ERGO    R513290   2.041  16.945   7.852 -0.0688 -0.1331  0.1046
 1159ERGO    C113291   2.226  16.731   8.108  0.0677 -0.2042 -0.0493
 1159ERGO    C213292   2.268  16.728   8.433 -0.2092 -0.1108 -0.1081
 1160ERGO   ROH13293   3.875  11.534   7.049  0.3176 -0.0758 -0.0422
 1160ERGO    R113294   3.983  11.603   7.302  0.3597 -0.1379 -0.0438
 1160ERGO    R213295   3.879  11.509   7.540  0.2016  0.0549 -0.0378
 1160ERGO    R313296   4.135  11.427   7.582  0.0987 -0.2473  0.0327
 1160ERGO    R413297   4.037  11.505   7.847  0.2255  0.2268 -0.0465
 1160ERGO    R513298   4.218  11.577   7.749  0.3211 -0.1427 -0.1624
 1160ERGO    C113299   4.368  11.427   8.066  0.1428  0.0432  0.0148
 1160ERGO    C213300   4.377  11.376   8.399  0.0159  0.1611  0.3968
 1161ERGO   ROH13301   2.594   2.975   7.010  0.3762  0.0609 -0.0473
 1161ERGO    R113302   2.539   2.954   7.287  0.1162  0.2062 -0.0845
 1161ERGO    R213303   2.697   2.807   7.460 -0.1708  0.1068  0.1054
 1161ERGO    R313304   2.707   3.042   7.597 -0.0628  0.1463  0.0306
 1161ERGO    R413305   2.708   2.834   7.804 -0.0448  0.2128  0.0933
 1161ERGO    R513306   2.572   3.003   7.791 -0.0047  0.2424  0.0893
 1161ERGO    C113307   2.725   3.070   8.134  0.1299  0.3116  0.0160
 1161ERGO    C213308   2.685   3.053   8.437  0.4222  0.1512 -0.0106
 1162ERGO   ROH13309   4.967   0.126   6.821 -0.0811  0.1198  0.0739
 1162ERGO    R113310   5.116   0.203   7.049 -0.0048 -0.0314  0.0766
 1162ERGO    R213311   4.998   0.259   7.292  0.0532  0.0347  0.0919
 1162ERGO    R313312   5.173   0.072   7.384 -0.0942 -0.1228  0.0563
 1162ERGO    R413313   5.087   0.216   7.624  0.0528 -0.0718  0.0781
 1162ERGO    R513314   5.292   0.183   7.560  0.0184 -0.2399  0.0543
 1162ERGO    C113315   5.303   0.016   7.903 -0.0859 -0.2817  0.0367
 1162ERGO    C213316   5.391  -0.048   8.306 -0.2312 -0.0302 -0.3788
 1163ERGO   ROH13317   0.409  15.450   6.917 -0.0958 -0.0212  0.0490
 1163ERGO    R113318   0.288  15.338   7.146 -0.0349 -0.1520  0.0188
 1163ERGO    R213319   0.433  15.219   7.348  0.0397 -0.0491  0.0302
 1163ERGO    R313320   0.298  15.395   7.506 -0.1380 -0.1791  0.0255
 1163ERGO    R413321   0.345  15.162   7.678  0.0970 -0.1222  0.0329
 1163ERGO    R513322   0.153  15.257   7.638  0.0012 -0.3183  0.0322
 1163ERGO    C113323   0.167  15.294   8.017 -0.0363 -0.2868  0.0301
 1163ERGO    C213324   0.289  15.416   8.392 -0.1019 -0.3558  0.0179
 1164ERGO   ROH13325  15.743  10.218   6.560 -0.1947 -0.2272  0.0244
 1164ERGO    R113326  15.754  10.334   6.818 -0.2441 -0.0515 -0.0486
 1164ERGO    R213327  15.528  10.419   6.953 -0.2852 -0.0481 -0.1042
 1164ERGO    R313328  15.623  10.255   7.148 -0.2212  0.1108 -0.0022
 1164ERGO    R413329  15.472  10.459   7.292 -0.2333  0.1719 -0.1219
 1164ERGO    R513330  15.678  10.402   7.328 -0.2224  0.2423 -0.1141
 1164ERGO    C113331  15.528  10.329   7.672 -0.1431  0.4492 -0.0363
 1164ERGO    C213332  15.500  10.358   7.933 -0.2587 -0.3090  0.0548
 1165ERGO   ROH13333  18.120  16.255   6.992  0.0368  0.0703  0.0091
 1165ERGO    R113334  18.151  16.333   7.262 -0.0756  0.0140  0.0396
 1165ERGO    R213335  17.971  16.263   7.459 -0.0566 -0.1957 -0.0108
 1165ERGO    R313336  18.192  16.166   7.583  0.0036 -0.0532 -0.0063
 1165ERGO    R413337  17.996  16.204   7.799  0.0290 -0.0464  0.0090
 1165ERGO    R513338  18.200  16.283   7.792 -0.0074  0.0335 -0.0571
 1165ERGO    C113339  18.219  16.078   8.113  0.1355  0.1742  0.0247
 1165ERGO    C213340  18.405  15.914   8.445  0.0414  0.1544  0.1500
 1166ERGO   ROH13341   0.286  10.385   6.744 -0.2339  0.1777 -0.0665
 1166ERGO    R113342   0.344  10.542   6.973 -0.0929  0.0760 -0.0323
 1166ERGO    R213343   0.148  10.671   7.119  0.0071  0.0768  0.0970
 1166ERGO    R313344   0.258  10.535   7.327  0.0558 -0.0289  0.0038
 1166ERGO    R413345   0.031  10.677   7.444  0.1374 -0.0022  0.1468
 1166ERGO    R513346   0.237  10.683   7.513  0.1719 -0.0844  0.0659
 1166ERGO    C113347   0.066  10.552   7.828  0.2590 -0.1474  0.0883
 1166ERGO    C213348  -0.149  10.396   8.041 -0.1202  0.0829 -0.3784
 1167ERGO   ROH13349   4.308  17.938   6.754  0.1417 -0.0236  0.0331
 1167ERGO    R113350   4.321  18.017   7.026 -0.0668 -0.0613  0.0570
 1167ERGO    R213351   4.138  17.932   7.215 -0.1190 -0.2254 -0.0575
 1167ERGO    R313352   4.362  17.851   7.347 -0.1325 -0.0938  0.0463
 1167ERGO    R413353   4.184  17.951   7.557 -0.2232 -0.0861 -0.0510
 1167ERGO    R513354   4.390  18.012   7.521 -0.2411 -0.0262 -0.0053
 1167ERGO    C113355   4.420  17.887   7.880 -0.2967  0.1183  0.0503
 1167ERGO    C213356   4.404  18.006   8.225 -0.0052 -0.1436  0.2231
 1168ERGO   ROH13357   0.902  12.203   6.942  0.1437 -0.3295 -0.0188
 1168ERGO    R113358   0.796  12.060   7.163  0.0542 -0.1374  0.0644
 1168ERGO    R213359   0.945  12.006   7.389  0.0540 -0.1893  0.0509
 1168ERGO    R313360   0.736  12.126   7.516  0.1982  0.0667  0.0532
 1168ERGO    R413361   0.895  12.004   7.731 -0.0323 -0.2787  0.0386
 1168ERGO    R513362   0.681  11.976   7.695 -0.0725  0.0585 -0.0307
 1168ERGO    C113363   0.670  12.116   8.050  0.0528 -0.0904  0.0337
 1168ERGO    C213364   0.452  12.143   8.327  0.2377 -0.1311 -0.0681
 1169ERGO   ROH13365  17.525   6.196   6.826  0.2596 -0.1363 -0.0207
 1169ERGO    R113366  17.521   6.078   7.083  0.1119 -0.0600  0.0135
 1169ERGO    R213367  17.287   6.027   7.220  0.0329  0.0088 -0.0926
 1169ERGO    R313368  17.386   5.775   7.233 -0.0024  0.0004  0.0327
 1169ERGO    R413369  17.189   5.789   7.450  0.0062  0.1341  0.0274
 1169ERGO    R513370  17.398   5.728   7.467 -0.0042  0.1139  0.0546
 1169ERGO    C113371  17.226   5.413   7.596 -0.0427  0.1992  0.2150
 1169ERGO    C213372  16.935   5.278   7.792 -0.1405 -0.1302 -0.0745
 1170ERGO   ROH13373   4.179   4.810   6.729  0.1877  0.0374 -0.0366
 1170ERGO    R113374   4.291   4.826   6.988 -0.1577  0.1185  0.1100
 1170ERGO    R213375   4.152   4.750   7.215 -0.2234 -0.4803 -0.1303
 1170ERGO    R313376   4.370   4.593   7.256  0.1860  0.0844 -0.0108
 1170ERGO    R413377   4.254   4.631   7.523 -0.4026 -0.5962 -0.1117
 1170ERGO    R513378   4.460   4.671   7.464 -0.3806  0.0937  0.2636
 1170ERGO    C113379   4.518   4.416   7.742 -0.1227 -0.1335  0.0113
 1170ERGO    C213380   4.342   4.063   7.972  0.2406 -0.1332  0.0870
 1171ERGO   ROH13381   7.989   6.278   6.791 -0.1433  0.0864  0.0896
 1171ERGO    R113382   7.970   6.234   7.070 -0.1772  0.0632  0.0838
 1171ERGO    R213383   7.914   5.986   7.178 -0.1004  0.0345  0.0601
 1171ERGO    R313384   8.142   6.032   7.318 -0.1433  0.1162  0.1033
 1171ERGO    R413385   7.940   5.975   7.522 -0.1190 -0.1454  0.0568
 1171ERGO    R513386   8.069   6.150   7.513 -0.2422 -0.0472  0.1667
 1171ERGO    C113387   8.168   6.013   7.855 -0.1700 -0.1734  0.0954
 1171ERGO    C213388   8.322   5.813   8.140 -0.1474  0.0794  0.0198
 1172ERGO   ROH13389  14.481   1.961   6.627  0.0113 -0.1563  0.0281
 1172ERGO    R113390  14.620   1.890   6.863 -0.0274 -0.1144  0.0643
 1172ERGO    R213391  14.884   1.959   6.906 -0.0168 -0.1574  0.0703
 1172ERGO    R313392  14.785   2.065   7.136 -0.0169 -0.0665  0.0278
 1172ERGO    R413393  15.074   2.046   7.182 -0.0324 -0.2049  0.0954
 1172ERGO    R513394  14.916   1.966   7.310 -0.1041 -0.1038  0.0747
 1172ERGO    C113395  15.091   2.196   7.558 -0.0415 -0.1472  0.0700
 1172ERGO    C213396  15.387   2.223   7.843 -0.1152 -0.2560  0.0730
 1173ERGO   ROH13397   1.802   3.954   6.965 -0.1282  0.0320  0.1252
 1173ERGO    R113398   1.941   3.962   7.212 -0.1532  0.0459  0.1388
 1173ERGO    R213399   2.001   4.198   7.342 -0.0591  0.0599  0.0696
 1173ERGO    R313400   1.874   4.078   7.550 -0.1387  0.1849  0.0946
 1173ERGO    R413401   2.005   4.313   7.667  0.1544  0.0365  0.0768
 1173ERGO    R513402   2.024   4.106   7.735 -0.0559  0.0079  0.0576
 1173ERGO    C113403   1.888   4.268   8.053  0.2041  0.1404  0.1044
 1173ERGO    C213404   1.709   4.417   8.292  0.3062 -0.0666  0.1451
 1174ERGO   ROH13405   0.988  16.317   6.735 -0.0876  0.1108  0.0007
 1174ERGO    R113406   1.043  16.324   7.012 -0.0698  0.1145 -0.0031
 1174ERGO    R213407   0.848  16.283   7.204 -0.0142 -0.1186  0.0061
 1174ERGO    R313408   1.019  16.092   7.292  0.1881  0.0362 -0.0432
 1174ERGO    R413409   0.979  16.268   7.523 -0.0426 -0.0916  0.0193
 1174ERGO    R513410   1.170  16.209   7.436  0.0385  0.1528  0.0224
 1174ERGO    C113411   1.217  16.079   7.792  0.1308  0.0694 -0.0194
 1174ERGO    C213412   1.334  16.161   8.119 -0.0874 -0.1525  0.1741
 1175ERGO   ROH13413   4.563   8.246   6.504  0.1239 -0.3099  0.1192
 1175ERGO    R113414   4.810   8.146   6.598  0.1936 -0.1762  0.0827
 1175ERGO    R213415   5.051   8.211   6.481  0.1416 -0.0529  0.0392
 1175ERGO    R313416   5.117   8.285   6.735  0.1431 -0.0071  0.0258
 1175ERGO    R413417   5.374   8.262   6.595  0.1490 -0.1503  0.0623
 1175ERGO    R513418   5.319   8.164   6.781  0.0887 -0.0745  0.0838
 1175ERGO    C113419   5.624   8.361   6.898  0.1548 -0.1639  0.0630
 1175ERGO    C213420   5.959   8.316   6.755  0.0084  0.1123 -0.3187
 1176ERGO   ROH13421   2.250   9.587   6.936 -0.0020  0.1459 -0.0418
 1176ERGO    R113422   2.136   9.573   7.195  0.0112  0.0052 -0.0434
 1176ERGO    R213423   2.209   9.381   7.380  0.2213  0.0736 -0.0570
 1176ERGO    R313424   2.255   9.597   7.538 -0.0167  0.1153 -0.0402
 1176ERGO    R413425   2.241   9.371   7.724 -0.0754  0.1252 -0.0249
 1176ERGO    R513426   2.126   9.556   7.735 -0.1735  0.0763 -0.1467
 1176ERGO    C113427   2.303   9.569   8.072 -0.4717  0.1943  0.0096
 1176ERGO    C213428   2.419   9.529   8.360 -0.0886 -0.1445 -0.3758
 1177ERGO   ROH13429  13.438   5.229   6.317  0.1611 -0.0391  0.0083
 1177ERGO    R113430  13.492   5.162   6.587  0.2038 -0.0120  0.0056
 1177ERGO    R213431  13.725   5.238   6.715  0.1153  0.2066  0.0305
 1177ERGO    R313432  13.553   5.343   6.897 -0.0028  0.0166  0.0322
 1177ERGO    R413433  13.807   5.325   7.039  0.0824  0.4678 -0.0285
 1177ERGO    R513434  13.616   5.244   7.105  0.2168  0.1939  0.0584
 1177ERGO    C113435  13.693   5.475   7.399 -0.0476  0.4416 -0.0612
 1177ERGO    C213436  13.993   5.731   7.590 -0.0389  0.0212 -0.0562
 1178ERGO   ROH13437  13.532  12.308   6.476 -0.2102 -0.0417  0.1224
 1178ERGO    R113438  13.684  12.341   6.712 -0.1287  0.0228  0.0612
 1178ERGO    R213439  13.583  12.285   6.963 -0.0557  0.1306  0.1141
 1178ERGO    R313440  13.804  12.128   6.981 -0.0733  0.1045  0.1019
 1178ERGO    R413441  13.674  12.105   7.243 -0.2229 -0.1154  0.0131
 1178ERGO    R513442  13.881  12.160   7.206 -0.1976 -0.0909  0.1764
 1178ERGO    C113443  13.934  11.852   7.424 -0.3368 -0.2831 -0.0571
 1178ERGO    C213444  14.003  11.642   7.781 -0.0218  0.2061 -0.3163
 1179ERGO   ROH13445   3.868   9.643   7.115  0.0052 -0.3178  0.0397
 1179ERGO    R113446   3.825   9.730   7.380  0.1277 -0.1811  0.0156
 1179ERGO    R213447   3.614   9.640   7.535  0.0934  0.0370  0.0968
 1179ERGO    R313448   3.812   9.577   7.710  0.0835 -0.0419  0.0799
 1179ERGO    R413449   3.569   9.587   7.873  0.0966  0.0771  0.1034
 1179ERGO    R513450   3.754   9.696   7.910  0.1521 -0.0020  0.0793
 1179ERGO    C113451   3.727   9.497   8.235  0.0892  0.0263  0.0913
 1179ERGO    C213452   3.818   9.533   8.575  0.1100  0.1789  0.1175
 1180ERGO   ROH13453   0.136   5.031   6.456  0.0207 -0.2361 -0.0249
 1180ERGO    R113454   0.165   4.880   6.694 -0.0681 -0.1464  0.0437
 1180ERGO    R213455   0.320   4.966   6.907 -0.0412 -0.1272  0.0155
 1180ERGO    R313456   0.090   4.926   7.047 -0.0701  0.0445  0.0196
 1180ERGO    R413457   0.304   4.905   7.246 -0.0979  0.1353  0.0624
 1180ERGO    R513458   0.148   4.759   7.208 -0.1356  0.1488  0.1551
 1180ERGO    C113459   0.080   4.832   7.576 -0.1580  0.4494  0.0935
 1180ERGO    C213460   0.060   4.700   7.915  0.0645  0.0760 -0.0666
 1181ERGO   ROH13461   8.451   7.131   6.980  0.0530 -0.0883  0.0936
 1181ERGO    R113462   8.470   7.223   7.247 -0.0597 -0.2048  0.1453
 1181ERGO    R213463   8.306   7.129   7.449 -0.0218 -0.4416  0.0859
 1181ERGO    R313464   8.543   7.077   7.572  0.0088 -0.3174  0.0758
 1181ERGO    R413465   8.340   7.030   7.779  0.0991 -0.0141  0.2057
 1181ERGO    R513466   8.514   7.161   7.795  0.1149 -0.0274 -0.0267
 1181ERGO    C113467   8.582   6.924   8.086  0.1983  0.3514  0.2659
 1181ERGO    C213468   8.578   6.739   8.328  0.1252  0.0164 -0.0702
 1182ERGO   ROH13469   5.903   7.197   6.621 -0.2863  0.0937 -0.0486
 1182ERGO    R113470   5.740   7.086   6.825 -0.2119  0.1345  0.0328
 1182ERGO    R213471   5.799   6.847   6.949 -0.1907  0.1404  0.0252
 1182ERGO    R313472   5.779   6.996   7.175 -0.0724  0.1589  0.0254
 1182ERGO    R413473   5.725   6.722   7.263 -0.0897  0.1675  0.0612
 1182ERGO    R513474   5.598   6.896   7.297 -0.0460  0.1964  0.1019
 1182ERGO    C113475   5.663   6.789   7.657  0.0803  0.2006  0.0822
 1182ERGO    C213476   5.724   6.626   7.851 -0.1066 -0.1946  0.0852
 1183ERGO   ROH13477   7.897   1.316   6.586  0.3110 -0.0372  0.0233
 1183ERGO    R113478   7.853   1.202   6.841  0.1803  0.0474  0.0378
 1183ERGO    R213479   8.036   1.032   6.962  0.0672  0.0073  0.1372
 1183ERGO    R313480   8.017   1.211   7.166  0.0746  0.0617  0.0934
 1183ERGO    R413481   8.129   0.969   7.288  0.0120  0.0576  0.1647
 1183ERGO    R513482   7.953   1.079   7.355  0.0193  0.1122  0.1164
 1183ERGO    C113483   8.167   1.100   7.670 -0.0132  0.1378  0.1397
 1183ERGO    C213484   8.176   1.046   8.038 -0.3345  0.0933 -0.2269
 1184ERGO   ROH13485   3.071   0.849   6.672 -0.0129 -0.1302  0.0273
 1184ERGO    R113486   3.084   0.707   6.916 -0.0306 -0.1181  0.0355
 1184ERGO    R213487   3.320   0.599   7.014 -0.0567 -0.2061  0.0055
 1184ERGO    R313488   3.256   0.744   7.235  0.0361 -0.1633  0.0044
 1184ERGO    R413489   3.400   0.513   7.339  0.0036 -0.1831 -0.0033
 1184ERGO    R513490   3.204   0.581   7.401  0.0381 -0.1273  0.0385
 1184ERGO    C113491   3.387   0.599   7.735  0.1259 -0.1296 -0.0094
 1184ERGO    C213492   3.256   0.510   8.056 -0.2362  0.2167 -0.3288
 1185ERGO   ROH13493  15.740  17.942   7.186 -0.1293 -0.0521  0.1123
 1185ERGO    R113494  15.604  17.996   7.428  0.0129  0.0173  0.1774
 1185ERGO    R213495  15.630  17.837   7.652  0.0110 -0.0164  0.1516
 1185ERGO    R313496  15.695  18.072   7.772  0.2145 -0.0669  0.1442
 1185ERGO    R413497  15.519  17.937   7.964 -0.0010  0.1396  0.0989
 1185ERGO    R513498  15.495  18.139   7.885  0.2393  0.1584  0.0623
 1185ERGO    C113499  15.517  18.216   8.258  0.1831  0.1830  0.0614
 1185ERGO    C213500  15.643  18.131   8.573 -0.4186  0.0489  0.1954
 1186ERGO   ROH13501  13.589   5.691   6.292  0.0792  0.1736  0.1097
 1186ERGO    R113502  13.585   5.662   6.573  0.1074  0.0369  0.0962
 1186ERGO    R213503  13.797   5.735   6.734  0.0408  0.1613  0.1283
 1186ERGO    R313504  13.608   5.882   6.863 -0.0979 -0.0752  0.2002
 1186ERGO    R413505  13.792   5.795   7.074  0.1335  0.2114  0.1212
 1186ERGO    R513506  13.576   5.767   7.071  0.1660 -0.0872  0.2373
 1186ERGO    C113507  13.612   5.968   7.393  0.0573  0.0186  0.1847
 1186ERGO    C213508  13.665   6.101   7.751  0.5620  0.1111 -0.0306
 1187ERGO   ROH13509  10.573   0.780   6.771  0.2920  0.1447 -0.1032
 1187ERGO    R113510  10.648   0.778   7.044  0.0695  0.0275 -0.0402
 1187ERGO    R213511  10.558   0.967   7.224  0.0514  0.0464 -0.0692
 1187ERGO    R313512  10.479   0.749   7.365 -0.2144  0.0653 -0.1832
 1187ERGO    R413513  10.490   0.965   7.563 -0.0790 -0.0238 -0.0947
 1187ERGO    R513514  10.589   0.771   7.576 -0.2715 -0.1262 -0.1317
 1187ERGO    C113515  10.376   0.759   7.892 -0.4044 -0.0471 -0.2166
 1187ERGO    C213516  10.081   0.638   8.070  0.1203  0.3297 -0.1044
 1188ERGO   ROH13517   3.502   2.192   7.520  0.0764  0.2441 -0.2120
 1188ERGO    R113518   3.667   2.028   7.680  0.0323  0.1497 -0.2649
 1188ERGO    R213519   3.943   2.046   7.678  0.0258  0.1906 -0.1391
 1188ERGO    R313520   3.911   2.076   7.946 -0.0821 -0.0145 -0.1255
 1188ERGO    R413521   4.169   1.941   7.917  0.2168  0.5185 -0.1670
 1188ERGO    R513522   4.001   1.875   8.040  0.3185  0.1064 -0.2230
 1188ERGO    C113523   4.271   1.907   8.308  0.2268  0.5169 -0.1706
 1188ERGO    C213524   4.390   1.932   8.598 -0.0294 -0.1935 -0.0373
 1189ERGO   ROH13525  10.162  10.474   6.625 -0.1662  0.0489  0.0017
 1189ERGO    R113526  10.278  10.664   6.801 -0.0125 -0.0221 -0.0221
 1189ERGO    R213527  10.153  10.749   7.032  0.0306  0.1489 -0.0608
 1189ERGO    R313528  10.386  10.671   7.148 -0.0603 -0.0489 -0.0067
 1189ERGO    R413529  10.252  10.834   7.352  0.0455  0.0916 -0.0498
 1189ERGO    R513530  10.455  10.861   7.276  0.0858 -0.0972 -0.0125
 1189ERGO    C113531  10.529  10.811   7.647 -0.0311 -0.1274  0.0074
 1189ERGO    C213532  10.590  10.647   7.921  0.3813  0.0141  0.1224
 1190ERGO   ROH13533   9.103   1.869   6.266  0.1116  0.1573  0.1008
 1190ERGO    R113534   9.088   2.038   6.493  0.0007  0.1599  0.0919
 1190ERGO    R213535   8.850   2.092   6.622 -0.0530  0.1022  0.0199
 1190ERGO    R313536   8.986   2.005   6.841 -0.0944  0.1425  0.0623
 1190ERGO    R413537   8.772   2.172   6.949 -0.2216  0.0133  0.0028
 1190ERGO    R513538   8.985   2.192   6.990 -0.2493  0.1184  0.0899
 1190ERGO    C113539   8.854   2.137   7.344 -0.3586 -0.0006  0.0325
 1190ERGO    C213540   8.926   2.092   7.691 -0.0066  0.0008  0.0976
 1191ERGO   ROH13541  17.061  10.906   7.042  0.2591  0.1795  0.0697
 1191ERGO    R113542  16.890  10.914   7.267  0.1880  0.1842  0.0181
 1191ERGO    R213543  16.931  10.757   7.491 -0.0414 -0.0224 -0.0713
 1191ERGO    R313544  16.923  10.995   7.621  0.1540 -0.1009  0.0869
 1191ERGO    R413545  16.832  10.800   7.819  0.0303 -0.1480 -0.0336
 1191ERGO    R513546  16.728  10.982   7.759  0.1651 -0.0343  0.0986
 1191ERGO    C113547  16.767  11.050   8.132  0.2554 -0.2947  0.1370
 1191ERGO    C213548  17.026  11.209   8.410  0.1531 -0.1215 -0.1255
 1192ERGO   ROH13549   5.424   1.136   6.529 -0.3932 -0.2024  0.0275
 1192ERGO    R113550   5.369   1.118   6.806 -0.2625 -0.1203  0.0598
 1192ERGO    R213551   5.544   1.001   6.985 -0.2294 -0.1719 -0.0053
 1192ERGO    R313552   5.521   1.239   7.114 -0.0460 -0.1342 -0.0395
 1192ERGO    R413553   5.635   1.057   7.314 -0.1284 -0.1786 -0.0319
 1192ERGO    R513554   5.456   1.180   7.337 -0.0430 -0.0551 -0.0174
 1192ERGO    C113555   5.666   1.314   7.626  0.1027 -0.1473 -0.0795
 1192ERGO    C213556   5.888   1.267   7.840  0.1297  0.0997 -0.1847
 1193ERGO   ROH13557  14.413  14.544   6.712  0.0904 -0.0461  0.0969
 1193ERGO    R113558  14.526  14.545   6.972  0.1249 -0.0546  0.0823
 1193ERGO    R213559  14.567  14.778   7.115  0.0557 -0.0654  0.1236
 1193ERGO    R313560  14.422  14.649   7.305  0.1285 -0.1596  0.1160
 1193ERGO    R413561  14.609  14.816   7.456 -0.0164 -0.0096  0.1264
 1193ERGO    R513562  14.579  14.601   7.479  0.1413 -0.0292  0.1392
 1193ERGO    C113563  14.497  14.717   7.833  0.0102 -0.0656  0.1209
 1193ERGO    C213564  14.571  14.766   8.213 -0.1381 -0.1316  0.0953
 1194ERGO   ROH13565   3.625   3.430   6.758  0.0768  0.1835 -0.0722
 1194ERGO    R113566   3.531   3.418   7.024  0.0714  0.1564 -0.0764
 1194ERGO    R213567   3.598   3.214   7.196 -0.0161  0.0883 -0.1312
 1194ERGO    R313568   3.678   3.418   7.357  0.0675  0.0116 -0.0725
 1194ERGO    R413569   3.611   3.198   7.541 -0.1257  0.0096 -0.1293
 1194ERGO    R513570   3.533   3.402   7.548 -0.0021  0.0632 -0.1154
 1194ERGO    C113571   3.694   3.380   7.893 -0.1110 -0.1084 -0.0731
 1194ERGO    C213572   3.666   3.390   8.236 -0.3634  0.1370 -0.0205
 1195ERGO   ROH13573  13.681   3.875   6.236 -0.2079  0.0991  0.3068
 1195ERGO    R113574  13.686   3.804   6.510 -0.0621  0.1276  0.3135
 1195ERGO    R213575  13.902   3.681   6.628 -0.0274  0.0641  0.1938
 1195ERGO    R313576  13.885   3.889   6.803  0.1519  0.0923  0.1790
 1195ERGO    R413577  13.956   3.658   6.969 -0.1198  0.0309  0.2058
 1195ERGO    R513578  13.788   3.793   7.000  0.0142  0.2055  0.1648
 1195ERGO    C113579  13.971   3.839   7.331 -0.0055  0.0381  0.1989
 1195ERGO    C213580  13.932   3.934   7.655 -0.1802  0.0192 -0.0128
 1196ERGO   ROH13581   6.917  14.701   6.511 -0.0331  0.0700 -0.0501
 1196ERGO    R113582   6.993  14.729   6.782  0.2156 -0.0066 -0.1098
 1196ERGO    R213583   7.208  14.884   6.860  0.0806  0.2502 -0.2393
 1196ERGO    R313584   7.023  15.002   7.020  0.0759 -0.1218  0.0425
 1196ERGO    R413585   7.268  14.996   7.181  0.1774 -0.1667 -0.1053
 1196ERGO    R513586   7.073  14.919   7.239  0.2673 -0.4046 -0.1002
 1196ERGO    C113587   7.130  15.173   7.519  0.2293 -0.7586  0.2371
 1196ERGO    C213588   7.277  15.334   7.712  0.0837  0.0628  0.2103
 1197ERGO   ROH13589   5.654  14.703   6.724 -0.0644  0.0608 -0.0729
 1197ERGO    R113590   5.574  14.862   6.943 -0.0502  0.0620 -0.0687
 1197ERGO    R213591   5.370  14.788   7.115  0.0248  0.0178  0.0004
 1197ERGO    R313592   5.560  14.827   7.305  0.0688  0.1023 -0.0596
 1197ERGO    R413593   5.307  14.815   7.454  0.1160  0.0199  0.0176
 1197ERGO    R513594   5.456  14.974   7.463  0.0612  0.0765 -0.0396
 1197ERGO    C113595   5.449  14.868   7.830  0.2104  0.1004 -0.0287
 1197ERGO    C213596   5.362  14.899   8.087  0.1508  0.2524  0.0131
 1198ERGO   ROH13597   8.062   8.520   7.066  0.0275  0.3263 -0.0165
 1198ERGO    R113598   8.067   8.581   7.342 -0.0412  0.0316  0.0534
 1198ERGO    R213599   8.034   8.388   7.538  0.1262 -0.2140 -0.1549
 1198ERGO    R313600   8.270   8.488   7.630  0.0319 -0.0967 -0.0376
 1198ERGO    R413601   8.134   8.383   7.868  0.0120 -0.2820 -0.1212
 1198ERGO    R513602   8.214   8.584   7.842 -0.1075 -0.2158 -0.0156
 1198ERGO    C113603   8.414   8.473   8.147 -0.1431 -0.2114  0.0085
 1198ERGO    C213604   8.597   8.376   8.370  0.0085 -0.1719  0.0994
 1199ERGO   ROH13605   2.656   9.194   7.089  0.3946 -0.0384  0.0246
 1199ERGO    R113606   2.574   9.159   7.357  0.3298  0.1546  0.0305
 1199ERGO    R213607   2.572   8.913   7.481 -0.0642  0.1831  0.0874
 1199ERGO    R313608   2.725   9.041   7.667  0.1353 -0.0127  0.0639
 1199ERGO    R413609   2.560   8.853   7.822 -0.0535  0.1623  0.0848
 1199ERGO    R513610   2.579   9.068   7.855  0.2093  0.1425  0.1023
 1199ERGO    C113611   2.696   8.939   8.194  0.1400 -0.0335  0.0612
 1199ERGO    C213612   2.664   9.028   8.489 -0.1214 -0.1461 -0.0503
 1200ERGO   ROH13613  12.697   1.759   6.641  0.2122  0.1378 -0.0016
 1200ERGO    R113614  12.821   1.830   6.885  0.2333 -0.0428  0.0429
 1200ERGO    R213615  12.699   1.992   7.073  0.4119  0.1665 -0.0092
 1200ERGO    R313616  12.753   1.785   7.239  0.0200  0.0828  0.0177
 1200ERGO    R413617  12.763   2.022   7.411  0.1952  0.0460  0.0431
 1200ERGO    R513618  12.918   1.871   7.390  0.0148 -0.1478  0.1514
 1200ERGO    C113619  12.851   1.844   7.764 -0.2990 -0.1027  0.0988
 1200ERGO    C213620  12.761   1.854   8.047 -0.0917 -0.0653 -0.0375
 1201ERGO   ROH13621   1.398   3.862   6.699 -0.2657  0.0728 -0.0517
 1201ERGO    R113622   1.379   3.975   6.958 -0.3256  0.0002 -0.0241
 1201ERGO    R213623   1.256   3.845   7.168 -0.1761 -0.1563 -0.0324
 1201ERGO    R313624   1.494   3.891   7.292 -0.1952  0.0297 -0.0610
 1201ERGO    R413625   1.292   3.944   7.498 -0.2103 -0.1965 -0.0162
 1201ERGO    R513626   1.452   4.078   7.435 -0.3398 -0.0385 -0.0128
 1201ERGO    C113627   1.536   4.044   7.806 -0.2481 -0.0453 -0.0337
 1201ERGO    C213628   1.460   3.973   8.098 -0.0796 -0.2169 -0.1049
 1202ERGO   ROH13629  16.227  12.499   6.713 -0.2694  0.1047  0.0195
 1202ERGO    R113630  16.148  12.337   6.931 -0.1822  0.0265 -0.0067
 1202ERGO    R213631  16.320  12.268   7.136 -0.1326  0.0464 -0.0439
 1202ERGO    R313632  16.124  12.373   7.293 -0.1531 -0.0635  0.0050
 1202ERGO    R413633  16.314  12.252   7.481  0.0998  0.2619 -0.0264
 1202ERGO    R513634  16.099  12.214   7.470  0.1287  0.0198  0.1267
 1202ERGO    C113635  16.127  12.340   7.829  0.2157  0.2843  0.0299
 1202ERGO    C213636  16.096  12.561   8.143  0.3061 -0.2259 -0.1191
 1203ERGO   ROH13637  17.568   8.499   6.864  0.2856  0.0777 -0.0102
 1203ERGO    R113638  17.644   8.317   7.067  0.0750 -0.0617 -0.0528
 1203ERGO    R213639  17.629   8.380   7.336  0.1637 -0.1008 -0.0382
 1203ERGO    R313640  17.482   8.152   7.348 -0.1164  0.0725 -0.0819
 1203ERGO    R413641  17.527   8.226   7.628  0.0572 -0.0833 -0.0658
 1203ERGO    R513642  17.572   8.034   7.536 -0.2059 -0.1080 -0.1497
 1203ERGO    C113643  17.330   7.923   7.810 -0.2675  0.0895 -0.1229
 1203ERGO    C213644  17.176   7.688   8.091  0.0733 -0.1566  0.0854
 1204ERGO   ROH13645   5.487  12.402   6.884 -0.2711 -0.2821 -0.0444
 1204ERGO    R113646   5.443  12.330   7.155 -0.2106 -0.2142 -0.0166
 1204ERGO    R213647   5.648  12.254   7.324 -0.1531 -0.0252 -0.0015
 1204ERGO    R313648   5.548  12.452   7.481 -0.2689 -0.0317 -0.0645
 1204ERGO    R413649   5.749  12.317   7.648 -0.1645  0.1580 -0.0316
 1204ERGO    R513650   5.540  12.355   7.700 -0.1862  0.0407 -0.0277
 1204ERGO    C113651   5.714  12.539   7.985 -0.2799  0.2585 -0.1084
 1204ERGO    C213652   5.895  12.772   8.180 -0.2626 -0.0914 -0.1511
 1205ERGO   ROH13653  10.791   2.905   6.507 -0.0585  0.0585 -0.1996
 1205ERGO    R113654  10.825   2.897   6.788 -0.0036  0.0740 -0.2038
 1205ERGO    R213655  10.732   3.097   6.955 -0.1454 -0.0029 -0.1725
 1205ERGO    R313656  10.608   2.890   7.081  0.0463 -0.1182 -0.1734
 1205ERGO    R413657  10.655   3.089   7.291  0.0983 -0.2106 -0.1198
 1205ERGO    R513658  10.715   2.879   7.295  0.1990 -0.1746 -0.2591
 1205ERGO    C113659  10.494   2.890   7.606  0.4202 -0.4397 -0.0900
 1205ERGO    C213660  10.382   3.002   7.927  0.0006 -0.0902 -0.3757
 1206ERGO   ROH13661   8.397   8.302   6.736 -0.0542  0.0786  0.0172
 1206ERGO    R113662   8.333   8.161   6.973 -0.0769 -0.0078 -0.0399
 1206ERGO    R213663   8.526   8.045   7.133 -0.0925 -0.0781 -0.0699
 1206ERGO    R313664   8.408   8.193   7.328 -0.0987 -0.1443 -0.0229
 1206ERGO    R413665   8.553   7.983   7.472 -0.0082 -0.1193 -0.0838
 1206ERGO    R513666   8.342   8.032   7.493 -0.0174 -0.1872 -0.0339
 1206ERGO    C113667   8.458   8.086   7.852  0.0351 -0.2056 -0.0478
 1206ERGO    C213668   8.660   7.956   8.078  0.0351 -0.0565  0.1315
 1207ERGO   ROH13669   0.660  17.172   6.974 -0.0306 -0.2557 -0.1115
 1207ERGO    R113670   0.820  17.181   7.208 -0.0507 -0.1109 -0.1035
 1207ERGO    R213671   0.768  17.355   7.418 -0.1318 -0.0567 -0.1726
 1207ERGO    R313672   0.769  17.126   7.564 -0.0527 -0.0030 -0.0857
 1207ERGO    R413673   0.834  17.337   7.756 -0.1662  0.1005 -0.1556
 1207ERGO    R513674   0.949  17.155   7.719 -0.0826  0.1330 -0.0733
 1207ERGO    C113675   0.874  17.111   8.091 -0.1120  0.2426 -0.0642
 1207ERGO    C213676   1.058  16.875   8.265 -0.3991 -0.3677  0.2796
 1208ERGO   ROH13677   1.931  11.743   6.731  0.1544  0.1367 -0.1714
 1208ERGO    R113678   2.118  11.701   6.939 -0.0158 -0.1824 -0.0770
 1208ERGO    R213679   2.229  11.908   7.085  0.4547 -0.3379 -0.1972
 1208ERGO    R313680   2.136  11.766   7.296  0.0172  0.0406 -0.1173
 1208ERGO    R413681   2.312  11.967   7.415  0.1921 -0.0766 -0.1723
 1208ERGO    R513682   2.322  11.751   7.446 -0.1552 -0.0644  0.0948
 1208ERGO    C113683   2.273  11.867   7.806 -0.3715  0.4309 -0.0828
 1208ERGO    C213684   2.411  11.880   8.186 -0.1171 -0.1502 -0.1521
 1209ERGO   ROH13685   9.239   8.810   6.914  0.1351  0.1326 -0.1965
 1209ERGO    R113686   9.219   8.675   7.163  0.1139  0.1008 -0.2144
 1209ERGO    R213687   9.397   8.478   7.239  0.1056  0.0848 -0.2249
 1209ERGO    R313688   9.427   8.635   7.459  0.0923  0.0589 -0.2057
 1209ERGO    R413689   9.478   8.363   7.555 -0.0392  0.0370 -0.2054
 1209ERGO    R513690   9.335   8.506   7.638 -0.0124  0.0828 -0.2436
 1209ERGO    C113691   9.554   8.444   7.945 -0.1361 -0.0154 -0.1760
 1209ERGO    C213692   9.612   8.275   8.268 -0.0014  0.1212 -0.0026
 1210ERGO   ROH13693  13.691  11.290   6.576 -0.2384  0.0748 -0.0787
 1210ERGO    R113694  13.503  11.190   6.764 -0.2557  0.2909  0.0215
 1210ERGO    R213695  13.567  10.994   6.948 -0.4293  0.0826 -0.1375
 1210ERGO    R313696  13.474  11.177   7.126  0.0226  0.1518  0.0422
 1210ERGO    R413697  13.451  10.920   7.265 -0.3655  0.0943 -0.1109
 1210ERGO    R513698  13.292  11.066   7.236 -0.1201  0.4159  0.0837
 1210ERGO    C113699  13.296  11.048   7.617  0.0958  0.1659  0.0732
 1210ERGO    C213700  13.109  11.073   7.910  0.0981 -0.0283  0.1812
 1211ERGO   ROH13701   7.575   5.129   6.318 -0.0427  0.0288 -0.0780
 1211ERGO    R113702   7.538   5.324   6.520  0.0239  0.0697 -0.1059
 1211ERGO    R213703   7.289   5.424   6.586  0.0397  0.0259  0.0068
 1211ERGO    R313704   7.360   5.347   6.837  0.1954  0.1089 -0.0099
 1211ERGO    R413705   7.146   5.543   6.877 -0.2903 -0.3949  0.0267
 1211ERGO    R513706   7.344   5.547   6.967 -0.2964  0.0460  0.0515
 1211ERGO    C113707   7.129   5.540   7.281 -0.3364 -0.5620  0.0226
 1211ERGO    C213708   7.023   5.465   7.585  0.0117  0.2975  0.0923
 1212ERGO   ROH13709   5.522  17.174   6.771  0.1092 -0.1285  0.0332
 1212ERGO    R113710   5.371  17.260   6.994  0.0687 -0.0086 -0.0388
 1212ERGO    R213711   5.274  17.084   7.185 -0.2247  0.0550 -0.1197
 1212ERGO    R313712   5.405  17.249   7.356 -0.1453 -0.1079 -0.0210
 1212ERGO    R413713   5.204  17.115   7.522 -0.2020 -0.1055 -0.0993
 1212ERGO    R513714   5.234  17.330   7.503 -0.1009 -0.1118  0.0281
 1212ERGO    C113715   5.286  17.289   7.879 -0.1143 -0.3518  0.0052
 1212ERGO    C213716   5.260  17.186   8.278 -0.1154 -0.0003  0.1030
 1213ERGO   ROH13717   5.922   0.241   6.727  0.2236 -0.1237  0.0654
 1213ERGO    R113718   6.056   0.158   6.962  0.0275 -0.2908  0.1198
 1213ERGO    R213719   6.164   0.336   7.143  0.4057 -0.4205  0.0221
 1213ERGO    R313720   6.012   0.199   7.321  0.0879  0.0059  0.0979
 1213ERGO    R413721   6.195   0.359   7.487  0.5297 -0.3676  0.0091
 1213ERGO    R513722   6.164   0.143   7.498 -0.0013 -0.3079  0.0878
 1213ERGO    C113723   6.069   0.243   7.854  0.3036  0.0634  0.0727
 1213ERGO    C213724   5.786   0.272   8.063 -0.0445 -0.0004 -0.0172
 1214ERGO   ROH13725   2.595   4.718   6.773  0.0695  0.0723  0.0510
 1214ERGO    R113726   2.729   4.806   7.007  0.0149  0.0029  0.1089
 1214ERGO    R213727   2.845   5.055   7.027  0.1244 -0.0513  0.1630
 1214ERGO    R313728   2.690   5.074   7.249  0.0406  0.0148  0.0997
 1214ERGO    R413729   2.937   5.215   7.319  0.0175  0.0261  0.1549
 1214ERGO    R513730   2.844   5.053   7.431 -0.0296  0.0603  0.1643
 1214ERGO    C113731   2.845   5.326   7.698 -0.1235  0.1334  0.0907
 1214ERGO    C213732   2.940   5.549   7.920 -0.0620  0.3351 -0.0106
 1215ERGO   ROH13733  13.574   6.609   6.313  0.1569  0.0996  0.0354
 1215ERGO    R113734  13.437   6.522   6.545  0.0727  0.1399  0.0013
 1215ERGO    R213735  13.533   6.319   6.707 -0.0624  0.0642 -0.0123
 1215ERGO    R313736  13.506   6.507   6.902  0.0084  0.0510  0.0105
 1215ERGO    R413737  13.619   6.275   7.039 -0.0525 -0.0005 -0.0235
 1215ERGO    R513738  13.440   6.383   7.096 -0.0161  0.0487  0.0012
 1215ERGO    C113739  13.644   6.425   7.415  0.0197 -0.0504 -0.0087
 1215ERGO    C213740  13.833   6.659   7.749 -0.1441  0.1473  0.1166
 1216ERGO   ROH13741  17.512   7.274   6.783 -0.3395  0.2274 -0.0232
 1216ERGO    R113742  17.436   7.285   7.055 -0.3439  0.0572 -0.0156
 1216ERGO    R213743  17.341   7.066   7.192 -0.1004 -0.0941 -0.0807
 1216ERGO    R313744  17.540   7.128   7.366 -0.1595  0.0696 -0.0703
 1216ERGO    R413745  17.368   6.940   7.513 -0.0041 -0.0883 -0.0869
 1216ERGO    R513746  17.431   7.139   7.580 -0.1775 -0.0361 -0.0740
 1216ERGO    C113747  17.572   6.925   7.863 -0.0033  0.0686 -0.0808
 1216ERGO    C213748  17.676   6.861   8.143  0.0499  0.5275  0.1873
 1217ERGO   ROH13749   9.179   1.021   6.722  0.2523 -0.2064 -0.0385
 1217ERGO    R113750   9.151   0.898   6.976  0.1869 -0.1681 -0.0270
 1217ERGO    R213751   9.350   0.906   7.168  0.0774 -0.0093  0.0799
 1217ERGO    R313752   9.150   1.005   7.323 -0.0669 -0.0936 -0.0484
 1217ERGO    R413753   9.370   0.950   7.510 -0.0859  0.1903  0.0654
 1217ERGO    R513754   9.164   0.878   7.526 -0.0340  0.0246  0.0252
 1217ERGO    C113755   9.193   1.069   7.855 -0.3164  0.2276 -0.0635
 1217ERGO    C213756   9.267   1.208   8.100  0.0172 -0.2345 -0.0699
 1218ERGO   ROH13757  16.320  10.851   6.687  0.0085  0.2043  0.3079
 1218ERGO    R113758  16.214  10.606   6.781 -0.1354  0.1986  0.1435
 1218ERGO    R213759  16.349  10.445   6.961 -0.1491 -0.0916 -0.0843
 1218ERGO    R313760  16.119  10.466   7.103 -0.0431 -0.0195  0.0751
 1218ERGO    R413761  16.264  10.245   7.230 -0.0738 -0.1110 -0.0768
 1218ERGO    R513762  16.060  10.240   7.155 -0.1197  0.0041  0.0615
 1218ERGO    C113763  15.998  10.149   7.520  0.0697 -0.0545  0.0771
 1218ERGO    C213764  15.959  10.002   7.817 -0.1257 -0.0044 -0.2739
 1219ERGO   ROH13765  15.299   0.685   6.861 -0.0727 -0.2693 -0.1092
 1219ERGO    R113766  15.378   0.595   7.117 -0.1610 -0.1294 -0.0326
 1219ERGO    R213767  15.616   0.673   7.236 -0.1484 -0.1582 -0.0457
 1219ERGO    R313768  15.452   0.747   7.440 -0.1487  0.0581 -0.1218
 1219ERGO    R413769  15.720   0.753   7.555 -0.1700 -0.1020 -0.0521
 1219ERGO    R513770  15.548   0.646   7.634 -0.2780  0.0641 -0.0512
 1219ERGO    C113771  15.627   0.870   7.932 -0.1829  0.1338 -0.1272
 1219ERGO    C213772  15.460   0.885   8.342 -0.0846 -0.1357  0.2079
 1220ERGO   ROH13773  10.285   7.425   6.633 -0.2409  0.3618 -0.2058
 1220ERGO    R113774  10.250   7.559   6.880 -0.2008  0.2512 -0.1397
 1220ERGO    R213775  10.014   7.546   7.024 -0.0816 -0.0474  0.0356
 1220ERGO    R313776  10.179   7.463   7.224  0.1600  0.0706 -0.1105
 1220ERGO    R413777   9.934   7.548   7.360  0.1502 -0.2582  0.0957
 1220ERGO    R513778  10.136   7.616   7.403  0.1077 -0.0380 -0.0271
 1220ERGO    C113779  10.042   7.472   7.744  0.5120 -0.2703 -0.0065
 1220ERGO    C213780   9.899   7.240   7.987 -0.3536  0.0156  0.2492
 1221ERGO   ROH13781  10.874   3.827   6.146  0.1806  0.0171  0.0195
 1221ERGO    R113782  10.977   3.870   6.407  0.1222  0.1101  0.0280
 1221ERGO    R213783  10.963   4.115   6.534 -0.1091  0.0985  0.0280
 1221ERGO    R313784  10.844   3.969   6.730  0.0063 -0.0098  0.0180
 1221ERGO    R413785  10.891   4.231   6.852 -0.3106  0.0623 -0.0028
 1221ERGO    R513786  10.954   4.039   6.931 -0.1146  0.1388  0.0350
 1221ERGO    C113787  10.739   4.162   7.221 -0.3196 -0.0604 -0.0302
 1221ERGO    C213788  10.532   4.374   7.383  0.3059 -0.1781 -0.4380
 1222ERGO   ROH13789   6.510   8.407   6.884 -0.0421  0.5267 -0.0832
 1222ERGO    R113790   6.528   8.520   7.142 -0.0155  0.3164  0.0091
 1222ERGO    R213791   6.349   8.461   7.344 -0.0316  0.1985 -0.0370
 1222ERGO    R313792   6.574   8.397   7.482 -0.0466  0.0322 -0.0873
 1222ERGO    R413793   6.379   8.473   7.688  0.0249  0.0681 -0.0367
 1222ERGO    R513794   6.580   8.555   7.662  0.0640 -0.0313 -0.0358
 1222ERGO    C113795   6.609   8.421   8.018  0.0436 -0.1638 -0.0839
 1222ERGO    C213796   6.650   8.349   8.333  0.1317  0.4523 -0.0068
 1223ERGO   ROH13797   0.782   7.601   7.355  0.1032  0.1583  0.1643
 1223ERGO    R113798   0.641   7.675   7.588  0.2353  0.1358  0.2516
 1223ERGO    R213799   0.490   7.496   7.734 -0.1087  0.2318  0.0196
 1223ERGO    R313800   0.645   7.582   7.940  0.0536 -0.3138  0.1422
 1223ERGO    R413801   0.375   7.551   8.055 -0.1767  0.5883 -0.0607
 1223ERGO    R513802   0.501   7.730   8.064  0.4474  0.1807  0.0464
 1223ERGO    C113803   0.454   7.663   8.436 -0.0640  0.2838  0.0076
 1223ERGO    C213804   0.227   7.622   8.752 -0.1083  0.0436  0.1971
 1224ERGO   ROH13805  13.772  13.822   6.766 -0.2098  0.0393 -0.0630
 1224ERGO    R113806  13.638  13.950   6.980 -0.1462 -0.0127  0.0084
 1224ERGO    R213807  13.409  13.845   7.096 -0.1199 -0.0326  0.0401
 1224ERGO    R313808  13.554  13.870   7.324 -0.0585 -0.1029  0.0095
 1224ERGO    R413809  13.274  13.889   7.411 -0.0348 -0.0262  0.0761
 1224ERGO    R513810  13.433  14.031   7.454  0.0203 -0.0793  0.0554
 1224ERGO    C113811  13.332  13.937   7.809  0.0724 -0.0885  0.0683
 1224ERGO    C213812  13.212  13.764   7.972  0.3553 -0.1988  0.1885
 1225ERGO   ROH13813   9.974   9.331   7.055  0.0445  0.1218  0.0779
 1225ERGO    R113814   9.982   9.438   7.316  0.1259  0.0682  0.0971
 1225ERGO    R213815   9.759   9.447   7.480  0.1253  0.2372  0.0822
 1225ERGO    R313816   9.922   9.317   7.654 -0.0016  0.0608  0.0736
 1225ERGO    R413817   9.676   9.369   7.806 -0.0178  0.1514  0.0272
 1225ERGO    R513818   9.880   9.423   7.865  0.0037  0.0019  0.1076
 1225ERGO    C113819   9.781   9.201   8.160 -0.2204 -0.0642 -0.0129
 1225ERGO    C213820   9.611   9.232   8.463 -0.0438 -0.0516 -0.0776
 1226ERGO   ROH13821  17.075  18.147   6.979  0.1177 -0.1845  0.2202
 1226ERGO    R113822  16.866  18.181   7.166  0.1450  0.0456  0.2118
 1226ERGO    R213823  16.682  17.983   7.222 -0.1178  0.2652  0.1577
 1226ERGO    R313824  16.762  18.025   7.478 -0.0780  0.1107  0.1710
 1226ERGO    R413825  16.610  17.774   7.487 -0.0931  0.1193  0.0499
 1226ERGO    R513826  16.577  17.950   7.611 -0.0615  0.0489  0.1560
 1226ERGO    C113827  16.644  17.691   7.883 -0.0414 -0.1109 -0.0003
 1226ERGO    C213828  16.770  17.349   8.178 -0.0016  0.4173  0.0174
 1227ERGO   ROH13829  16.094   1.814   6.623 -0.1111 -0.0839  0.0994
 1227ERGO    R113830  16.224   1.875   6.866 -0.1291 -0.1739  0.1318
 1227ERGO    R213831  16.165   2.100   7.016  0.0321 -0.0976  0.0846
 1227ERGO    R313832  16.128   1.918   7.214 -0.1980 -0.0405  0.0967
 1227ERGO    R413833  16.133   2.177   7.351  0.1657 -0.0373  0.0839
 1227ERGO    R513834  16.256   2.003   7.398 -0.0643 -0.2041  0.0813
 1227ERGO    C113835  16.080   2.051   7.733  0.0277  0.0515  0.0948
 1227ERGO    C213836  15.849   2.291   7.935  0.0695 -0.1590 -0.1333
 1228ERGO   ROH13837   3.742   8.443   6.921 -0.0755  0.0554  0.0960
 1228ERGO    R113838   3.656   8.307   7.153  0.0097 -0.1229  0.0252
 1228ERGO    R213839   3.787   8.085   7.253  0.2304 -0.0170 -0.0153
 1228ERGO    R313840   3.792   8.232   7.482  0.0045 -0.0844  0.0348
 1228ERGO    R413841   3.871   7.962   7.565  0.1693 -0.0412 -0.0085
 1228ERGO    R513842   3.710   8.082   7.650  0.0372 -0.1936 -0.0508
 1228ERGO    C113843   3.924   8.027   7.961 -0.0783 -0.1187  0.0424
 1228ERGO    C213844   4.116   7.822   8.098 -0.1006  0.1732 -0.0444
 1229ERGO   ROH13845   3.123  17.868   7.034 -0.0448  0.0673  0.0025
 1229ERGO    R113846   3.047  17.819   7.302  0.0658  0.0530  0.0321
 1229ERGO    R213847   3.195  17.659   7.472  0.1739  0.0992 -0.0152
 1229ERGO    R313848   3.188  17.879   7.632  0.1691  0.1029 -0.0212
 1229ERGO    R413849   3.267  17.661   7.810  0.0654  0.0933  0.0082
 1229ERGO    R513850   3.102  17.799   7.840  0.0863  0.1274 -0.0475
 1229ERGO    C113851   3.303  17.868   8.157 -0.0022  0.0934  0.0161
 1229ERGO    C213852   3.569  17.753   8.470 -0.1016  0.0640  0.2106
 1230ERGO   ROH13853   8.537  13.844   6.639  0.0270 -0.2152 -0.1408
 1230ERGO    R113854   8.357  13.945   6.832  0.0352 -0.1503 -0.1653
 1230ERGO    R213855   8.150  13.794   6.936 -0.0018 -0.0971 -0.1499
 1230ERGO    R313856   8.262  13.862   7.174  0.0041 -0.0808 -0.1584
 1230ERGO    R413857   7.976  13.835   7.232  0.0126 -0.0686 -0.1461
 1230ERGO    R513858   8.102  14.008   7.275  0.0144 -0.0714 -0.1634
 1230ERGO    C113859   7.980  13.924   7.627  0.0265 -0.0368 -0.1520
 1230ERGO    C213860   7.761  13.714   7.892  0.0659  0.0368 -0.1465
 1231ERGO   ROH13861  17.411  12.123   6.839  0.0507 -0.0163 -0.0431
 1231ERGO    R113862  17.521  12.248   7.068  0.0536 -0.0891 -0.0039
 1231ERGO    R213863  17.405  12.231   7.318  0.0332 -0.1338 -0.0145
 1231ERGO    R313864  17.651  12.141   7.391  0.0147 -0.1893 -0.0216
 1231ERGO    R413865  17.503  12.167   7.643  0.0762 -0.0178 -0.0046
 1231ERGO    R513866  17.697  12.255   7.596  0.0984 -0.1108 -0.0846
 1231ERGO    C113867  17.792  12.046   7.901  0.0842 -0.0024 -0.0055
 1231ERGO    C213868  17.787  11.861   8.244  0.1307 -0.0860 -0.1044
 1232ERGO   ROH13869  18.023  17.745   7.029 -0.2999 -0.4155 -0.0205
 1232ERGO    R113870  17.815  17.693   7.214 -0.2307 -0.2836  0.0986
 1232ERGO    R213871  17.863  17.609   7.473 -0.1317 -0.0901  0.1500
 1232ERGO    R313872  17.709  17.824   7.536 -0.1095 -0.0427  0.0417
 1232ERGO    R413873  17.744  17.680   7.789 -0.2378  0.0161  0.0862
 1232ERGO    R513874  17.555  17.740   7.700 -0.1879  0.0347  0.0033
 1232ERGO    C113875  17.530  17.922   8.034 -0.2785  0.1226 -0.0526
 1232ERGO    C213876  17.619  18.110   8.279  0.0573 -0.0679 -0.1947
 1233ERGO   ROH13877   1.293  10.285   6.923  0.1078 -0.0005 -0.0370
 1233ERGO    R113878   1.353  10.412   7.169  0.1053  0.0433 -0.0588
 1233ERGO    R213879   1.210  10.628   7.264 -0.0388 -0.0789  0.0067
 1233ERGO    R313880   1.181  10.472   7.484  0.1859 -0.1111  0.0156
 1233ERGO    R413881   1.200  10.745   7.589 -0.1744 -0.0769  0.0025
 1233ERGO    R513882   1.322  10.575   7.649  0.0613  0.0866  0.0019
 1233ERGO    C113883   1.167  10.666   7.985 -0.0423 -0.1061  0.0083
 1233ERGO    C213884   0.936  10.757   8.332  0.0803 -0.0047 -0.0313
 1234ERGO   ROH13885   3.197   8.370   6.988  0.0292  0.1478 -0.0209
 1234ERGO    R113886   3.096   8.277   7.235 -0.0154 -0.0274 -0.1022
 1234ERGO    R213887   3.146   8.023   7.331  0.1999 -0.0068 -0.1425
 1234ERGO    R313888   3.234   8.158   7.550 -0.0636  0.0339 -0.0590
 1234ERGO    R413889   3.271   7.876   7.618 -0.0747  0.0574  0.0131
 1234ERGO    R513890   3.164   8.024   7.735 -0.2317  0.0438 -0.1186
 1234ERGO    C113891   3.427   7.917   7.990 -0.4819  0.1330  0.1821
 1234ERGO    C213892   3.610   7.899   8.308 -0.3635  0.1060 -0.0897
 1235ERGO   ROH13893  10.224   9.110   6.753 -0.1103 -0.1296 -0.0317
 1235ERGO    R113894  10.228   8.996   7.012 -0.2221 -0.1349 -0.0312
 1235ERGO    R213895  10.437   9.033   7.189 -0.2435 -0.2309  0.0208
 1235ERGO    R313896  10.240   9.118   7.355 -0.2465 -0.1422 -0.0287
 1235ERGO    R413897  10.409   8.947   7.522 -0.2498 -0.0425  0.0692
 1235ERGO    R513898  10.194   8.929   7.494 -0.2459 -0.0620  0.0774
 1235ERGO    C113899  10.208   8.977   7.872 -0.2563  0.1506  0.0510
 1235ERGO    C213900  10.230   8.892   8.194 -0.1751 -0.0651  0.0284
 1236ERGO   ROH13901  13.065   2.613   6.393 -0.0637 -0.0648  0.1145
 1236ERGO    R113902  13.102   2.679   6.666 -0.0371 -0.1786  0.1402
 1236ERGO    R213903  13.350   2.671   6.788  0.0084 -0.0640  0.0724
 1236ERGO    R313904  13.289   2.927   6.854 -0.1631 -0.1410  0.2124
 1236ERGO    R413905  13.369   2.803   7.107  0.1195 -0.1581  0.1039
 1236ERGO    R513906  13.184   2.910   7.069  0.0054 -0.3036  0.2782
 1236ERGO    C113907  13.323   3.120   7.355  0.0233 -0.2852  0.2538
 1236ERGO    C213908  13.184   3.423   7.585  0.3048  0.1779 -0.0118
 1237ERGO   ROH13909   3.049  13.910   7.001  0.1308  0.0727 -0.0178
 1237ERGO    R113910   3.005  13.803   7.259  0.0366  0.0248 -0.0530
 1237ERGO    R213911   3.151  13.883   7.480  0.0610 -0.1264 -0.0129
 1237ERGO    R313912   2.905  13.931   7.585  0.0776 -0.0067 -0.0279
 1237ERGO    R413913   3.091  13.974   7.807  0.0844 -0.1182 -0.0110
 1237ERGO    R513914   2.917  13.843   7.807  0.0159 -0.0288 -0.0331
 1237ERGO    C113915   2.825  14.073   8.097  0.1137 -0.0011 -0.0239
 1237ERGO    C213916   2.849  14.466   8.227 -0.0100  0.0324  0.3935
 1238ERGO   ROH13917   6.054   4.436   6.273 -0.1264  0.2044  0.1164
 1238ERGO    R113918   6.226   4.272   6.426 -0.1696  0.1212  0.0755
 1238ERGO    R213919   6.491   4.336   6.474 -0.1202 -0.0185 -0.0079
 1238ERGO    R313920   6.419   4.304   6.734 -0.0603  0.0376  0.0166
 1238ERGO    R413921   6.682   4.177   6.714 -0.0571  0.0530 -0.0095
 1238ERGO    R513922   6.500   4.086   6.792 -0.0324  0.0579  0.0520
 1238ERGO    C113923   6.725   4.054   7.098  0.0358  0.1473  0.0124
 1238ERGO    C213924   6.855   4.102   7.453 -0.0431  0.3688 -0.0087
 1239ERGO   ROH13925   0.722   1.161   6.949 -0.1599  0.3086 -0.0517
 1239ERGO    R113926   0.888   1.209   7.173 -0.1039  0.2887 -0.0902
 1239ERGO    R213927   0.848   1.422   7.344 -0.2198  0.1229  0.0806
 1239ERGO    R313928   0.845   1.227   7.534  0.0428 -0.0176 -0.0510
 1239ERGO    R413929   0.896   1.476   7.682 -0.4693  0.0066  0.1380
 1239ERGO    R513930   1.016   1.293   7.689 -0.1333  0.2027  0.0668
 1239ERGO    C113931   0.921   1.325   8.057 -0.3680 -0.1929  0.0478
 1239ERGO    C213932   0.688   1.426   8.316  0.3337  0.0716 -0.1407
 1240ERGO   ROH13933  14.378  18.082   6.598  0.1322 -0.0779 -0.0189
 1240ERGO    R113934  14.412  18.046   6.876 -0.0240 -0.0746  0.0015
 1240ERGO    R213935  14.333  18.235   7.062  0.0758  0.0277 -0.0583
 1240ERGO    R313936  14.196  18.026   7.168 -0.1732  0.1713 -0.0891
 1240ERGO    R413937  14.292  18.177   7.400  0.2101 -0.1017 -0.0633
 1240ERGO    R513938  14.322  17.965   7.362 -0.1354 -0.1306 -0.2044
 1240ERGO    C113939  14.140  17.947   7.697  0.0545 -0.0422 -0.0950
 1240ERGO    C213940  14.028  18.101   7.958  0.1563  0.0718  0.1149
 1241ERGO   ROH13941   3.516   6.611   6.862 -0.0332 -0.1583  0.0394
 1241ERGO    R113942   3.586   6.613   7.137  0.0280 -0.1528  0.0240
 1241ERGO    R213943   3.401   6.656   7.338  0.1031  0.0349  0.0565
 1241ERGO    R313944   3.499   6.421   7.433 -0.0578 -0.0216  0.0842
 1241ERGO    R413945   3.319   6.516   7.643 -0.1730  0.0059 -0.0288
 1241ERGO    R513946   3.527   6.458   7.667 -0.2136 -0.0796  0.1124
 1241ERGO    C113947   3.362   6.214   7.910 -0.4849 -0.0641 -0.0525
 1241ERGO    C213948   3.146   6.041   8.005 -0.0526  0.0302  0.2536
 1242ERGO   ROH13949  10.724  10.542   6.673  0.0932 -0.0220  0.1370
 1242ERGO    R113950  10.916  10.539   6.881  0.1162  0.0116  0.1176
 1242ERGO    R213951  10.856  10.614   7.140  0.1696  0.1580  0.0949
 1242ERGO    R313952  10.958  10.369   7.200  0.0887  0.1487  0.1930
 1242ERGO    R413953  10.988  10.525   7.447  0.0265  0.1859  0.1647
 1242ERGO    R513954  11.145  10.416   7.342  0.0396  0.1287  0.2568
 1242ERGO    C113955  11.161  10.244   7.682 -0.1330  0.1936  0.2975
 1242ERGO    C213956  11.238  10.003   8.011  0.4735 -0.0498  0.0302
 1243ERGO   ROH13957  14.687  11.125   6.690 -0.0913  0.0949  0.1071
 1243ERGO    R113958  14.859  11.160   6.912 -0.0866 -0.0071  0.1194
 1243ERGO    R213959  14.799  11.333   7.120 -0.0139  0.0038  0.1273
 1243ERGO    R313960  14.838  11.111   7.272 -0.1292 -0.0261  0.1153
 1243ERGO    R413961  14.864  11.334   7.460 -0.0231 -0.0436  0.1298
 1243ERGO    R513962  15.008  11.174   7.428 -0.0996 -0.1166  0.1240
 1243ERGO    C113963  14.939  11.126   7.800 -0.1369 -0.0992  0.1201
 1243ERGO    C213964  15.004  11.042   8.130  0.3360  0.0662 -0.2078
 1244ERGO   ROH13965  15.299   2.708   6.196  0.0313 -0.0197 -0.0425
 1244ERGO    R113966  15.216   2.621   6.452  0.0605  0.0177 -0.0213
 1244ERGO    R213967  15.357   2.433   6.598  0.0589  0.0200 -0.0257
 1244ERGO    R313968  15.352   2.625   6.790  0.1099  0.0375 -0.0400
 1244ERGO    R413969  15.329   2.372   6.937  0.2581  0.0366 -0.0042
 1244ERGO    R513970  15.195   2.543   6.951  0.2156  0.0045  0.0523
 1244ERGO    C113971  15.308   2.517   7.315  0.4219  0.0626 -0.0051
 1244ERGO    C213972  15.406   2.672   7.542  0.0734 -0.0789 -0.2032
 1245ERGO   ROH13973   8.836  10.496   6.926 -0.1131 -0.0656  0.0186
 1245ERGO    R113974   8.690  10.561   7.160 -0.1235  0.0036 -0.0063
 1245ERGO    R213975   8.586  10.368   7.329 -0.2161  0.0509 -0.0044
 1245ERGO    R313976   8.725  10.506   7.518 -0.1915  0.0167  0.0019
 1245ERGO    R413977   8.518  10.362   7.668 -0.1655 -0.0095  0.0045
 1245ERGO    R513978   8.558  10.576   7.675 -0.1668 -0.0131  0.0386
 1245ERGO    C113979   8.609  10.487   8.042 -0.1129 -0.0768  0.0155
 1245ERGO    C213980   8.715  10.464   8.318  0.2320  0.1132 -0.0497
 1246ERGO   ROH13981   1.194  14.744   6.751 -0.2274 -0.0905 -0.1058
 1246ERGO    R113982   1.315  14.770   7.006 -0.0811 -0.0869 -0.1746
 1246ERGO    R213983   1.168  14.774   7.240  0.0394  0.0716 -0.1005
 1246ERGO    R313984   1.336  14.572   7.310 -0.0465 -0.0099 -0.1263
 1246ERGO    R413985   1.184  14.628   7.553  0.0025  0.0513 -0.1080
 1246ERGO    R513986   1.401  14.623   7.535 -0.0006 -0.0484 -0.1299
 1246ERGO    C113987   1.351  14.354   7.801 -0.0995 -0.0369 -0.1365
 1246ERGO    C213988   1.554  14.254   8.080  0.0159  0.1078  0.0072
 1247ERGO   ROH13989  14.626   9.519   6.653 -0.1537 -0.1251 -0.0887
 1247ERGO    R113990  14.446   9.530   6.872 -0.1880  0.0396 -0.1231
 1247ERGO    R213991  14.525   9.476   7.131 -0.2933 -0.0652 -0.1117
 1247ERGO    R313992  14.417   9.721   7.180 -0.0524  0.0441 -0.1123
 1247ERGO    R413993  14.406   9.582   7.438 -0.2623  0.0228 -0.1299
 1247ERGO    R513994  14.239   9.678   7.335 -0.1388  0.2093 -0.1622
 1247ERGO    C113995  14.235   9.873   7.662 -0.0180  0.1768 -0.1411
 1247ERGO    C213996  14.149   9.859   8.035  0.0244 -0.2065  0.3121
 1248ERGO   ROH13997   6.568   0.544   6.429 -0.0616  0.0346 -0.0369
 1248ERGO    R113998   6.626   0.633   6.691  0.1665 -0.0115 -0.0704
 1248ERGO    R213999   6.489   0.542   6.913  0.1481  0.1824 -0.0036
 1248ERGO    R314000   6.738   0.482   7.003  0.1156 -0.1229 -0.1048
 1248ERGO    R414001   6.576   0.503   7.246  0.2496  0.1656 -0.0313
 1248ERGO    R514002   6.762   0.609   7.204  0.3766 -0.0895 -0.1502
 1248ERGO    C114003   6.861   0.423   7.523  0.2782 -0.1307 -0.1424
 1248ERGO    C214004   7.189   0.287   7.741 -0.0634 -0.0720  0.1628
 1249ERGO   ROH14005   5.645   1.552   6.498  0.2229  0.0525 -0.0264
 1249ERGO    R114006   5.685   1.464   6.764  0.1612  0.0777 -0.0095
 1249ERGO    R214007   5.882   1.282   6.834  0.0999  0.0349  0.0412
 1249ERGO    R314008   5.953   1.477   7.010  0.1298  0.0368  0.0286
 1249ERGO    R414009   6.048   1.229   7.132 -0.1433 -0.0068  0.1721
 1249ERGO    R514010   5.919   1.378   7.225 -0.0957  0.1242  0.0394
 1249ERGO    C114011   6.210   1.380   7.471 -0.2569 -0.0294  0.2364
 1249ERGO    C214012   6.308   1.496   7.705 -0.0445  0.0692  0.0962
 1250ERGO   ROH14013   2.211  17.946   6.859 -0.1546 -0.1154  0.0529
 1250ERGO    R114014   2.100  18.031   7.105 -0.1261  0.0134  0.0238
 1250ERGO    R214015   2.096  17.871   7.330 -0.2119  0.0784  0.0749
 1250ERGO    R314016   2.219  18.084   7.445 -0.1108  0.0584  0.0121
 1250ERGO    R414017   2.143  17.913   7.670 -0.4730  0.2997  0.0854
 1250ERGO    R514018   2.095  18.124   7.646 -0.2559  0.3328 -0.1253
 1250ERGO    C114019   2.285  18.138   7.976 -0.5301  0.4099  0.0326
 1250ERGO    C214020   2.507  18.151   8.205 -0.0345 -0.0386  0.0495
 1251ERGO   ROH14021   3.377  10.633   7.238 -0.0414  0.0758  0.0391
 1251ERGO    R114022   3.275  10.621   7.502 -0.0186 -0.0381  0.0423
 1251ERGO    R214023   3.004  10.619   7.557 -0.0103 -0.1016  0.0614
 1251ERGO    R314024   3.067  10.393   7.695  0.0332 -0.1425 -0.0223
 1251ERGO    R414025   2.882  10.538   7.871 -0.0889 -0.2933 -0.0158
 1251ERGO    R514026   3.081  10.465   7.923 -0.0738 -0.2392  0.0181
 1251ERGO    C114027   2.871  10.279   8.183 -0.0939 -0.4434 -0.1394
 1251ERGO    C214028   2.699   9.970   8.236 -0.1639  0.4466  0.0661
 1252ERGO   ROH14029  11.134  11.948   6.686  0.0516 -0.0006  0.0145
 1252ERGO    R114030  11.235  12.144   6.864 -0.0622  0.0619  0.0106
 1252ERGO    R214031  11.111  12.206   7.103 -0.1118  0.0110 -0.0048
 1252ERGO    R314032  11.356  12.151   7.208 -0.0907  0.1456  0.0197
 1252ERGO    R414033  11.227  12.327   7.405 -0.2252  0.0485  0.0249
 1252ERGO    R514034  11.422  12.356   7.312 -0.2285  0.1771  0.0519
 1252ERGO    C114035  11.524  12.345   7.680 -0.2716  0.1966  0.0652
 1252ERGO    C214036  11.737  12.275   7.914 -0.4981  0.1455  0.0300
 1253ERGO   ROH14037   2.014  16.501   6.949  0.0049  0.0993 -0.0257
 1253ERGO    R114038   2.056  16.491   7.229  0.1143  0.1708 -0.0388
 1253ERGO    R214039   1.961  16.285   7.386 -0.1338  0.3854  0.1036
 1253ERGO    R314040   2.221  16.267   7.464 -0.1199  0.0271 -0.0085
 1253ERGO    R414041   2.068  16.268   7.714 -0.0120  0.1797  0.0556
 1253ERGO    R514042   2.233  16.401   7.662  0.1430 -0.0260  0.0146
 1253ERGO    C114043   2.374  16.242   7.979  0.0719 -0.2764 -0.0776
 1253ERGO    C214044   2.433  16.259   8.242 -0.4597  0.0646  0.1196
 1254ERGO   ROH14045   2.776   8.077   7.052 -0.0067  0.2353  0.0583
 1254ERGO    R114046   2.649   7.948   7.270 -0.0822  0.2492  0.0225
 1254ERGO    R214047   2.791   7.813   7.466 -0.1679 -0.0485 -0.1151
 1254ERGO    R314048   2.652   7.978   7.633  0.0913  0.0175  0.0427
 1254ERGO    R414049   2.790   7.791   7.811  0.0898 -0.1383 -0.1173
 1254ERGO    R514050   2.577   7.835   7.809  0.1191  0.0297  0.0646
 1254ERGO    C114051   2.659   7.932   8.168  0.4832 -0.1286  0.0296
 1254ERGO    C214052   2.757   7.836   8.529 -0.0812 -0.0181 -0.0022
 1255ERGO   ROH14053   6.674   7.358   6.805  0.1877  0.0875  0.0026
 1255ERGO    R114054   6.660   7.439   7.076  0.1481 -0.0912  0.0555
 1255ERGO    R214055   6.435   7.558   7.184  0.2591  0.1796  0.0005
 1255ERGO    R314056   6.457   7.357   7.366 -0.1631  0.0027 -0.1323
 1255ERGO    R414057   6.409   7.598   7.526  0.3604  0.0051  0.0303
 1255ERGO    R514058   6.573   7.457   7.550  0.0625 -0.3684 -0.0665
 1255ERGO    C114059   6.413   7.434   7.896  0.0229 -0.2625 -0.0770
 1255ERGO    C214060   6.296   7.411   8.289  0.1203  0.3724  0.3246
 1256ERGO   ROH14061  15.883   4.462   6.540  0.1720 -0.0058 -0.1530
 1256ERGO    R114062  15.925   4.555   6.804  0.0134  0.1319 -0.1747
 1256ERGO    R214063  16.052   4.403   6.997 -0.3410  0.1228  0.0592
 1256ERGO    R314064  16.212   4.622   7.018 -0.1194 -0.0355  0.0602
 1256ERGO    R414065  16.161   4.539   7.295 -0.1200 -0.0417  0.0566
 1256ERGO    R514066  16.129   4.738   7.211  0.0493  0.0088  0.1081
 1256ERGO    C114067  16.375   4.823   7.489  0.2167 -0.2862  0.0560
 1256ERGO    C214068  16.594   4.877   7.699 -0.0207  0.0968  0.2849
 1257ERGO   ROH14069  16.083  14.145   6.839  0.1508 -0.0207 -0.0314
 1257ERGO    R114070  15.885  14.263   7.004  0.0428 -0.0777 -0.1190
 1257ERGO    R214071  15.642  14.141   7.055  0.1612 -0.2725 -0.0180
 1257ERGO    R314072  15.715  14.178   7.314  0.1345  0.0039 -0.0447
 1257ERGO    R414073  15.427  14.125   7.325  0.1703 -0.2156 -0.0063
 1257ERGO    R514074  15.531  14.296   7.412  0.0383 -0.0556 -0.1468
 1257ERGO    C114075  15.370  14.150   7.725  0.1508  0.0771 -0.0245
 1257ERGO    C214076  15.262  14.197   8.064 -0.2064  0.0311  0.2203
 1258ERGO   ROH14077   4.056  12.516   7.273  0.1206  0.1183 -0.0336
 1258ERGO    R114078   4.022  12.481   7.551  0.1855  0.0052 -0.0387
 1258ERGO    R214079   4.208  12.567   7.736  0.0946  0.1983 -0.0308
 1258ERGO    R314080   3.994  12.696   7.844 -0.0655 -0.0970  0.0148
 1258ERGO    R414081   4.147  12.601   8.075 -0.0028 -0.0707 -0.0195
 1258ERGO    R514082   3.936  12.565   8.035  0.0420 -0.2764 -0.0739
 1258ERGO    C114083   3.911  12.742   8.373 -0.2099 -0.5045  0.0300
 1258ERGO    C214084   3.829  12.780   8.676  0.2202 -0.2476 -0.0575
 1259ERGO   ROH14085  13.232  14.723   6.607  0.0751 -0.2694  0.0264
 1259ERGO    R114086  13.124  14.854   6.834  0.1069 -0.1150 -0.0468
 1259ERGO    R214087  12.928  14.740   6.992  0.0568  0.0363 -0.0023
 1259ERGO    R314088  13.105  14.791   7.192  0.0594  0.0752 -0.0139
 1259ERGO    R414089  12.862  14.700   7.329  0.0867  0.0081  0.0004
 1259ERGO    R514090  12.971  14.885   7.367  0.0445  0.0372 -0.0018
 1259ERGO    C114091  12.990  14.724   7.712  0.1067  0.0281 -0.0089
 1259ERGO    C214092  13.048  14.701   8.023 -0.1227 -0.1195  0.0020
 1260ERGO   ROH14093  16.852   2.992   6.581  0.0367  0.2002  0.0045
 1260ERGO    R114094  16.777   3.106   6.829 -0.0181  0.1498  0.0120
 1260ERGO    R214095  16.584   2.994   6.992 -0.0666  0.1237 -0.0580
 1260ERGO    R314096  16.781   3.004   7.178 -0.1093  0.0705 -0.0104
 1260ERGO    R414097  16.532   3.010   7.333 -0.1389 -0.1706 -0.0526
 1260ERGO    R514098  16.697   3.153   7.346 -0.2109 -0.1031  0.0924
 1260ERGO    C114099  16.686   3.029   7.707 -0.2214 -0.3919 -0.0047
 1260ERGO    C214100  16.454   2.987   7.903  0.0884 -0.1821  0.1272
 1261ERGO   ROH14101   0.014   0.550   6.941 -0.0802  0.0564 -0.0713
 1261ERGO    R114102  -0.012   0.584   7.221 -0.1424  0.0260 -0.0731
 1261ERGO    R214103  -0.211   0.461   7.368  0.0633 -0.3180 -0.0690
 1261ERGO    R314104  -0.002   0.370   7.515  0.2277  0.0512 -0.0628
 1261ERGO    R414105  -0.225   0.387   7.705  0.2277 -0.2037 -0.0365
 1261ERGO    R514106  -0.027   0.477   7.728  0.1013  0.1011 -0.1026
 1261ERGO    C114107  -0.036   0.259   8.040  0.4776  0.2094 -0.0117
 1261ERGO    C214108  -0.151   0.175   8.396  0.1908  0.2766  0.1294
 1262ERGO   ROH14109  11.151  13.155   6.702 -0.1486 -0.0915  0.0625
 1262ERGO    R114110  11.328  13.198   6.918 -0.0785 -0.0177 -0.0084
 1262ERGO    R214111  11.298  13.409   7.095 -0.0626  0.0023 -0.0280
 1262ERGO    R314112  11.304  13.211   7.281  0.0514  0.0309 -0.0010
 1262ERGO    R414113  11.268  13.458   7.436  0.0944  0.0502 -0.0207
 1262ERGO    R514114  11.422  13.307   7.466  0.1281  0.0739 -0.0720
 1262ERGO    C114115  11.256  13.301   7.809  0.2928  0.1049  0.0088
 1262ERGO    C214116  11.085  13.352   8.124  0.0948  0.0041 -0.3073
 1263ERGO   ROH14117  15.679  16.793   6.813  0.0246 -0.2696  0.0038
 1263ERGO    R114118  15.724  16.712   7.080  0.0906 -0.1588  0.0265
 1263ERGO    R214119  15.961  16.762   7.213  0.0908 -0.0271 -0.0259
 1263ERGO    R314120  15.796  16.875   7.398  0.0771 -0.0201 -0.0403
 1263ERGO    R414121  16.055  16.853   7.533  0.0865  0.0447 -0.0442
 1263ERGO    R514122  15.864  16.777   7.606  0.0992  0.0264 -0.0243
 1263ERGO    C114123  15.955  17.011   7.893  0.0712  0.0932 -0.0684
 1263ERGO    C214124  16.003  17.040   8.224  0.3439 -0.0752  0.1678
 1264ERGO   ROH14125   5.068  11.025   7.308 -0.0927 -0.0054  0.0350
 1264ERGO    R114126   5.204  10.922   7.534  0.0484  0.0955 -0.0033
 1264ERGO    R214127   5.242  11.070   7.764 -0.1052  0.0838  0.0310
 1264ERGO    R314128   5.125  10.855   7.882  0.1546 -0.0880 -0.0134
 1264ERGO    R414129   5.257  10.997   8.102 -0.3538  0.2601  0.0831
 1264ERGO    R514130   5.281  10.786   8.050  0.0970  0.2737  0.1972
 1264ERGO    C114131   5.155  10.753   8.409 -0.2546  0.2014  0.0719
 1264ERGO    C214132   5.070  10.699   8.721  0.1593  0.1541 -0.2195
 1265ERGO   ROH14133   0.436  12.061   6.769  0.1145  0.1285  0.1131
 1265ERGO    R114134   0.318  11.927   6.987  0.0858 -0.1158 -0.0506
 1265ERGO    R214135   0.421  11.693   7.092  0.4239  0.0891  0.0758
 1265ERGO    R314136   0.416  11.832   7.325 -0.1760  0.0807  0.0859
 1265ERGO    R414137   0.416  11.551   7.407  0.5299  0.0476  0.0606
 1265ERGO    R514138   0.273  11.704   7.468  0.0337 -0.3342 -0.0545
 1265ERGO    C114139   0.408  11.599   7.809  0.0284  0.0154  0.0612
 1265ERGO    C214140   0.517  11.616   8.133 -0.1911 -0.0466 -0.1108
 1266ERGO   ROH14141   1.980  13.101   6.495 -0.0298  0.0355 -0.0855
 1266ERGO    R114142   1.941  12.887   6.677  0.0479  0.1044  0.0132
 1266ERGO    R214143   2.088  12.861   6.909 -0.0391  0.3449  0.1003
 1266ERGO    R314144   1.843  12.852   7.026 -0.0895  0.2233 -0.0127
 1266ERGO    R414145   2.031  12.796   7.244 -0.1722  0.1956  0.0496
 1266ERGO    R514146   1.859  12.675   7.186 -0.1087  0.1658 -0.0752
 1266ERGO    C114147   1.767  12.751   7.548 -0.2970 -0.0057 -0.0859
 1266ERGO    C214148   1.782  12.676   7.840  0.1122  0.1866  0.4694
 1267ERGO   ROH14149   4.161  13.903   7.126  0.1375  0.0024 -0.1508
 1267ERGO    R114150   4.194  13.718   7.337  0.0897  0.0313 -0.1181
 1267ERGO    R214151   4.350  13.771   7.559  0.0292  0.0661 -0.0853
 1267ERGO    R314152   4.122  13.707   7.694 -0.0030  0.0740 -0.1350
 1267ERGO    R414153   4.312  13.790   7.902  0.0040 -0.0738 -0.0794
 1267ERGO    R514154   4.200  13.603   7.895 -0.0519 -0.0389 -0.1729
 1267ERGO    C114155   4.076  13.741   8.229 -0.0410 -0.1480 -0.1226
 1267ERGO    C214156   3.883  13.777   8.559 -0.1439 -0.0230 -0.1036
 1268ERGO   ROH14157   5.743  17.614   6.670  0.0996 -0.0436  0.1287
 1268ERGO    R114158   5.769  17.700   6.938  0.0854 -0.0282  0.1252
 1268ERGO    R214159   5.603  17.610   7.140  0.1017 -0.0489  0.1293
 1268ERGO    R314160   5.838  17.545   7.260  0.1133 -0.0030  0.1316
 1268ERGO    R414161   5.655  17.599   7.482  0.1032 -0.0214  0.1298
 1268ERGO    R514162   5.851  17.689   7.450  0.0888  0.0101  0.1240
 1268ERGO    C114163   5.906  17.531   7.793  0.1148  0.0377  0.1324
 1268ERGO    C214164   6.059  17.398   8.099 -0.0326  0.0387 -0.0839
 1269ERGO   ROH14165  14.600  10.562   6.756  0.2228  0.0680 -0.1584
 1269ERGO    R114166  14.730  10.663   6.986 -0.0401  0.0809 -0.0113
 1269ERGO    R214167  14.593  10.734   7.216 -0.2538 -0.4430  0.0374
 1269ERGO    R314168  14.768  10.562   7.334  0.0625 -0.2319 -0.1098
 1269ERGO    R414169  14.688  10.745   7.548 -0.2075 -0.5034  0.0266
 1269ERGO    R514170  14.892  10.698   7.487 -0.1354 -0.1211 -0.0456
 1269ERGO    C114171  14.908  10.590   7.852  0.1164 -0.3403 -0.1178
 1269ERGO    C214172  14.928  10.537   8.261 -0.2115  0.0065  0.0088
 1270ERGO   ROH14173  14.492   6.204   6.431 -0.2478  0.0516  0.0048
 1270ERGO    R114174  14.625   6.302   6.660 -0.1296  0.0033 -0.0434
 1270ERGO    R214175  14.506   6.475   6.839 -0.0215 -0.0010  0.0295
 1270ERGO    R314176  14.579   6.287   7.021  0.0317 -0.0316 -0.0227
 1270ERGO    R414177  14.534   6.529   7.180  0.0885 -0.0491  0.0288
 1270ERGO    R514178  14.714   6.406   7.179  0.0875 -0.0561 -0.0481
 1270ERGO    C114179  14.619   6.383   7.548  0.2026 -0.1059 -0.0205
 1270ERGO    C214180  14.537   6.515   7.863  0.5364 -0.0174  0.0732
 1271ERGO   ROH14181  13.944   4.294   6.382 -0.2507 -0.1439  0.0432
 1271ERGO    R114182  14.019   4.418   6.624 -0.1782 -0.1056  0.0015
 1271ERGO    R214183  13.930   4.330   6.871 -0.0519 -0.1083  0.0475
 1271ERGO    R314184  14.196   4.321   6.927 -0.0251 -0.0378 -0.0651
 1271ERGO    R414185  14.066   4.211   7.166  0.0820  0.3176  0.1647
 1271ERGO    R514186  14.209   4.375   7.160  0.0896  0.3061 -0.1457
 1271ERGO    C114187  14.395   4.133   7.390  0.1851  0.6318  0.1271
 1271ERGO    C214188  14.492   3.915   7.692 -0.3139  0.1262 -0.1770
 1272ERGO   ROH14189  12.950  11.369   6.622 -0.1061  0.1556 -0.1323
 1272ERGO    R114190  13.031  11.319   6.888 -0.0234  0.1073 -0.1655
 1272ERGO    R214191  13.052  11.520   7.077 -0.0181  0.0663 -0.1206
 1272ERGO    R314192  12.886  11.360   7.220  0.0557 -0.0070 -0.1169
 1272ERGO    R414193  12.981  11.561   7.412  0.0968 -0.0634 -0.0797
 1272ERGO    R514194  12.991  11.344   7.435  0.1349 -0.0696 -0.1601
 1272ERGO    C114195  12.783  11.434   7.743  0.2331 -0.2078 -0.0523
 1272ERGO    C214196  12.757  11.540   8.078  0.1588  0.1572  0.1865
 1273ERGO   ROH14197  12.669  12.381   6.740  0.0835 -0.3280  0.1591
 1273ERGO    R114198  12.516  12.437   6.971  0.0176 -0.1929  0.0843
 1273ERGO    R214199  12.624  12.432   7.226 -0.0787 -0.1464  0.1270
 1273ERGO    R314200  12.522  12.684   7.238  0.0091 -0.1043  0.0034
 1273ERGO    R414201  12.584  12.615   7.516 -0.0616 -0.0111  0.0442
 1273ERGO    R514202  12.393  12.686   7.440 -0.0241  0.0258 -0.0182
 1273ERGO    C114203  12.466  12.959   7.697  0.0308  0.1072 -0.1201
 1273ERGO    C214204  12.441  13.160   8.035  0.1003  0.2493 -0.1992
 1274ERGO   ROH14205   2.766  13.350   7.129  0.2251 -0.0582 -0.0219
 1274ERGO    R114206   2.825  13.274   7.395  0.0979 -0.1540 -0.0218
 1274ERGO    R214207   2.809  13.451   7.608  0.1918 -0.1802 -0.0028
 1274ERGO    R314208   2.647  13.259   7.712  0.0102 -0.0655 -0.0641
 1274ERGO    R414209   2.713  13.431   7.939  0.2839 -0.2594  0.0211
 1274ERGO    R514210   2.738  13.215   7.928  0.0423 -0.2912 -0.1151
 1274ERGO    C114211   2.506  13.239   8.230  0.1670 -0.1977 -0.0226
 1274ERGO    C214212   2.460  13.269   8.617 -0.1315  0.2038 -0.1645
 1275ERGO   ROH14213   1.229  15.667   7.319  0.2159 -0.1935  0.0536
 1275ERGO    R114214   1.125  15.699   7.580  0.0315 -0.1484 -0.0247
 1275ERGO    R214215   1.107  15.490   7.761  0.0091 -0.0921  0.0347
 1275ERGO    R314216   1.248  15.659   7.921 -0.1715  0.0264  0.0723
 1275ERGO    R414217   1.085  15.500   8.105  0.0554 -0.2544  0.0439
 1275ERGO    R514218   1.094  15.718   8.095 -0.2193 -0.2324  0.1239
 1275ERGO    C114219   1.204  15.665   8.456 -0.0872 -0.2376  0.0844
 1275ERGO    C214220   1.469  15.588   8.725  0.1899  0.0138  0.3866
 1276ERGO   ROH14221   1.900   3.495   6.849  0.1155  0.2126  0.0398
 1276ERGO    R114222   1.782   3.508   7.106  0.0660  0.0808  0.0235
 1276ERGO    R214223   1.849   3.333   7.309  0.0744  0.0217 -0.0369
 1276ERGO    R314224   1.897   3.562   7.447 -0.0132 -0.0219  0.0688
 1276ERGO    R414225   1.777   3.379   7.644  0.1395 -0.2057  0.0107
 1276ERGO    R514226   1.710   3.581   7.596  0.0106 -0.2103  0.1340
 1276ERGO    C114227   1.781   3.621   7.968  0.0953 -0.3791  0.1376
 1276ERGO    C214228   1.745   3.475   8.260  0.2652 -0.3242 -0.0524
 1277ERGO   ROH14229  12.189   7.423   6.574  0.0550 -0.1727 -0.0440
 1277ERGO    R114230  12.205   7.216   6.766  0.0530 -0.0957  0.0395
 1277ERGO    R214231  12.439   7.155   6.900  0.0814 -0.1229 -0.0240
 1277ERGO    R314232  12.284   7.191   7.121  0.1791  0.0278  0.0217
 1277ERGO    R414233  12.491   7.002   7.206 -0.1424 -0.4157 -0.1280
 1277ERGO    R514234  12.276   6.974   7.224 -0.1991 -0.0314 -0.1131
 1277ERGO    C114235  12.376   6.946   7.590 -0.1812 -0.4447 -0.1458
 1277ERGO    C214236  12.304   6.944   7.941 -0.1530  0.0222 -0.3166
 1278ERGO   ROH14237  12.423   9.817   6.359  0.2036 -0.1746 -0.2727
 1278ERGO    R114238  12.580   9.793   6.593  0.1379 -0.0919 -0.2198
 1278ERGO    R214239  12.809   9.943   6.635 -0.0277  0.1270 -0.0824
 1278ERGO    R314240  12.682  10.010   6.866 -0.1871 -0.0749 -0.1072
 1278ERGO    R414241  12.950   9.926   6.950 -0.1014  0.2466 -0.0423
 1278ERGO    R514242  12.760   9.850   7.026 -0.0325 -0.0090 -0.1145
 1278ERGO    C114243  12.913   9.980   7.351 -0.2941  0.1268 -0.0423
 1278ERGO    C214244  12.932  10.237   7.568 -0.1592  0.1618 -0.0166
 1279ERGO   ROH14245   2.049  13.951   6.467  0.2569 -0.3319  0.0482
 1279ERGO    R114246   2.105  13.888   6.737  0.1633 -0.0670  0.1329
 1279ERGO    R214247   2.058  14.065   6.945 -0.2007  0.0274 -0.0209
 1279ERGO    R314248   1.915  13.858   7.046 -0.0038 -0.0869  0.0292
 1279ERGO    R414249   1.976  14.026   7.278 -0.3331  0.1375 -0.0396
 1279ERGO    R514250   2.017  13.813   7.258 -0.0608  0.1705  0.1145
 1279ERGO    C114251   1.794  13.808   7.568 -0.2254  0.0944 -0.0035
 1279ERGO    C214252   1.625  13.748   7.817 -0.0643 -0.2501  0.0679
 1280ERGO   ROH14253   4.284   0.722   6.601 -0.1537  0.1016  0.0064
 1280ERGO    R114254   4.122   0.614   6.807 -0.0721  0.0300  0.0341
 1280ERGO    R214255   4.199   0.615   7.072 -0.1009  0.2157  0.0454
 1280ERGO    R314256   3.958   0.738   7.107 -0.2247 -0.0001 -0.0363
 1280ERGO    R414257   4.052   0.681   7.379 -0.2341  0.1492 -0.0039
 1280ERGO    R514258   3.860   0.625   7.293 -0.1622 -0.0494 -0.0348
 1280ERGO    C114259   3.742   0.835   7.589 -0.4277 -0.0922 -0.1093
 1280ERGO    C214260   3.658   1.049   7.771  0.2253  0.1452 -0.4846
 1281ERGO   ROH14261  16.854  13.494   6.934  0.4796 -0.0423  0.0684
 1281ERGO    R114262  16.998  13.513   7.177  0.3794  0.0834  0.1189
 1281ERGO    R214263  17.001  13.743   7.331  0.0173  0.0464  0.1889
 1281ERGO    R314264  16.919  13.574   7.527  0.1844 -0.1264  0.1133
 1281ERGO    R414265  17.041  13.799   7.670  0.0898 -0.1386  0.2127
 1281ERGO    R514266  17.091  13.588   7.694  0.2286 -0.1240  0.0674
 1281ERGO    C114267  16.988  13.673   8.051  0.2891 -0.4085  0.1555
 1281ERGO    C214268  16.856  13.860   8.225 -0.3942 -0.2994 -0.4204
 1282ERGO   ROH14269  17.182  14.432   6.787 -0.0718  0.1538 -0.1713
 1282ERGO    R114270  17.209  14.394   7.066 -0.0820  0.0097 -0.1908
 1282ERGO    R214271  17.111  14.574   7.251 -0.0743 -0.0826 -0.1059
 1282ERGO    R314272  16.985  14.355   7.351 -0.0896 -0.1240 -0.2119
 1282ERGO    R414273  17.024  14.529   7.583 -0.0948 -0.2159 -0.1279
 1282ERGO    R514274  17.084  14.321   7.565 -0.0986 -0.2176 -0.2164
 1282ERGO    C114275  16.854  14.296   7.869 -0.1211 -0.3324 -0.2403
 1282ERGO    C214276  16.697  14.336   8.268  0.1031 -0.2098  0.1252
 1283ERGO   ROH14277   0.320   2.754   6.531  0.1925 -0.1341 -0.1042
 1283ERGO    R114278   0.308   2.673   6.802 -0.0395 -0.0323 -0.0816
 1283ERGO    R214279   0.513   2.720   6.981 -0.0129 -0.3294 -0.0304
 1283ERGO    R314280   0.315   2.836   7.127  0.1306  0.0597 -0.1295
 1283ERGO    R414281   0.551   2.847   7.300  0.0735 -0.4474  0.0068
 1283ERGO    R514282   0.357   2.763   7.352 -0.1384 -0.0624 -0.1125
 1283ERGO    C114283   0.388   3.029   7.624  0.2585 -0.1508 -0.0645
 1283ERGO    C214284   0.292   3.150   7.964 -0.0260  0.3136 -0.4040
 1284ERGO   ROH14285  14.312   0.944   6.855  0.0248  0.1676 -0.1753
 1284ERGO    R114286  14.463   0.954   7.094 -0.0791  0.1439 -0.1094
 1284ERGO    R214287  14.425   1.149   7.286 -0.1392  0.1399 -0.1263
 1284ERGO    R314288  14.395   0.935   7.451 -0.2334  0.1434 -0.1364
 1284ERGO    R414289  14.531   1.138   7.615  0.3092 -0.0797 -0.2676
 1284ERGO    R514290  14.597   0.933   7.582 -0.0412 -0.1832 -0.4130
 1284ERGO    C114291  14.564   0.932   7.962  0.4817 -0.2042 -0.3594
 1284ERGO    C214292  14.704   1.077   8.238  0.1545  0.1103  0.3434
 1285ERGO   ROH14293  10.940  11.544   6.503 -0.1227 -0.0280 -0.0135
 1285ERGO    R114294  10.824  11.636   6.745 -0.2137  0.0108 -0.0714
 1285ERGO    R214295  10.885  11.525   6.990 -0.3206  0.0379 -0.0336
 1285ERGO    R314296  10.944  11.782   7.056 -0.3294  0.0419 -0.0406
 1285ERGO    R414297  10.912  11.644   7.313 -0.2306  0.0235 -0.0355
 1285ERGO    R514298  10.809  11.826   7.249 -0.2734  0.0157  0.0060
 1285ERGO    C114299  10.983  11.955   7.563 -0.1862  0.0190 -0.0430
 1285ERGO    C214300  11.056  12.189   7.833 -0.0175  0.3252  0.4290
 1286ERGO   ROH14301   7.328   9.103   7.142  0.0285  0.3835  0.0344
 1286ERGO    R114302   7.368   9.008   7.406 -0.0828  0.1272 -0.0366
 1286ERGO    R214303   7.436   9.175   7.615  0.0973 -0.1100  0.1063
 1286ERGO    R314304   7.217   9.064   7.732 -0.0328  0.0365  0.0008
 1286ERGO    R414305   7.397   9.125   7.955 -0.0771 -0.1438  0.0805
 1286ERGO    R514306   7.305   8.932   7.912 -0.2071 -0.0629  0.0115
 1286ERGO    C114307   7.168   8.992   8.263 -0.3008 -0.0260 -0.0334
 1286ERGO    C214308   6.925   9.164   8.607 -0.1745  0.0844  0.0287
 1287ERGO   ROH14309   5.679   9.262   6.747  0.1447 -0.0898  0.0172
 1287ERGO    R114310   5.658   9.016   6.886 -0.0609 -0.0202  0.1143
 1287ERGO    R214311   5.876   8.853   6.935 -0.2137 -0.2477  0.0645
 1287ERGO    R314312   5.793   8.873   7.193 -0.0680 -0.0602  0.0987
 1287ERGO    R414313   5.940   8.619   7.181 -0.3331 -0.2198  0.1214
 1287ERGO    R514314   5.736   8.648   7.254 -0.2700  0.0189  0.2120
 1287ERGO    C114315   5.898   8.501   7.567 -0.2657 -0.0277  0.1866
 1287ERGO    C214316   5.852   8.350   7.805  0.2643 -0.2190 -0.5394
 1288ERGO   ROH14317  11.927   6.877   6.327  0.0698 -0.1338 -0.0190
 1288ERGO    R114318  11.939   6.930   6.605  0.0570 -0.0703 -0.0304
 1288ERGO    R214319  11.724   6.890   6.774  0.0209  0.0594 -0.0475
 1288ERGO    R314320  11.902   6.738   6.912 -0.0588  0.0209  0.0138
 1288ERGO    R414321  11.648   6.705   7.055 -0.0439  0.3515  0.1316
 1288ERGO    R514322  11.838   6.766   7.142  0.0412  0.2632  0.0157
 1288ERGO    C114323  11.770   6.454   7.349 -0.1561  0.4855  0.2935
 1288ERGO    C214324  11.706   6.273   7.680 -0.1337  0.1687 -0.2371
 1289ERGO   ROH14325  13.286   0.486   6.881  0.0043  0.0248 -0.0883
 1289ERGO    R114326  13.377   0.358   7.116  0.1293  0.1499 -0.0672
 1289ERGO    R214327  13.501   0.495   7.322 -0.2442  0.3531  0.0303
 1289ERGO    R314328  13.307   0.378   7.473 -0.1065 -0.0591 -0.0985
 1289ERGO    R414329  13.520   0.444   7.663 -0.3053  0.2735  0.0221
 1289ERGO    R514330  13.428   0.249   7.635  0.0634  0.1042 -0.0896
 1289ERGO    C114331  13.350   0.306   8.004 -0.2117 -0.1597 -0.1037
 1289ERGO    C214332  13.480   0.236   8.237  0.2400 -0.0574 -0.3236
 1290ERGO   ROH14333   5.678  10.269   7.067 -0.0121  0.1250 -0.1807
 1290ERGO    R114334   5.673  10.273   7.350 -0.1372  0.0382 -0.1819
 1290ERGO    R214335   5.777  10.068   7.504 -0.0084  0.0939 -0.2019
 1290ERGO    R314336   5.918  10.270   7.619 -0.2480  0.1952 -0.0752
 1290ERGO    R414337   5.844  10.093   7.842  0.3061 -0.2781 -0.2286
 1290ERGO    R514338   5.807  10.308   7.828 -0.1063 -0.3078  0.1122
 1290ERGO    C114339   6.015  10.297   8.147  0.2642 -0.3997 -0.1252
 1290ERGO    C214340   5.942  10.389   8.542  0.0304 -0.3698  0.2277
 1291ERGO   ROH14341  13.936  16.640   6.692 -0.0676  0.1687  0.0193
 1291ERGO    R114342  13.917  16.693   6.970 -0.1966  0.0370  0.0370
 1291ERGO    R214343  13.677  16.684   7.107 -0.2313 -0.2397 -0.0338
 1291ERGO    R314344  13.813  16.510   7.267 -0.1176 -0.1841 -0.0692
 1291ERGO    R414345  13.556  16.550   7.402 -0.0702 -0.2358  0.0349
 1291ERGO    R514346  13.754  16.575   7.489 -0.0401 -0.1725 -0.0523
 1291ERGO    C114347  13.613  16.309   7.723  0.1301 -0.1810  0.0416
 1291ERGO    C214348  13.580  16.224   8.050  0.2044  0.0107 -0.0903
 1292ERGO   ROH14349   5.918   9.366   7.122 -0.1753  0.1322 -0.1422
 1292ERGO    R114350   6.005   9.398   7.390 -0.0726 -0.1293 -0.1430
 1292ERGO    R214351   5.925   9.610   7.548  0.2270 -0.1236 -0.0048
 1292ERGO    R314352   5.848   9.413   7.718  0.0240 -0.1257 -0.0945
 1292ERGO    R414353   5.959   9.621   7.892  0.2414 -0.3013  0.0011
 1292ERGO    R514354   6.017   9.411   7.888  0.0310 -0.3681 -0.0930
 1292ERGO    C114355   5.906   9.441   8.251  0.0592 -0.4069 -0.0796
 1292ERGO    C214356   5.669   9.433   8.539 -0.3757 -0.1935  0.0337
 1293ERGO   ROH14357   8.578   9.343   6.859  0.1754  0.1171 -0.0365
 1293ERGO    R114358   8.586   9.515   7.083  0.0142  0.0711  0.0066
 1293ERGO    R214359   8.408   9.492   7.294 -0.0072 -0.1074 -0.0223
 1293ERGO    R314360   8.636   9.480   7.442 -0.0184  0.0196  0.0047
 1293ERGO    R414361   8.420   9.466   7.639 -0.0234 -0.0317 -0.0168
 1293ERGO    R514362   8.586   9.606   7.639 -0.0867  0.0357 -0.0275
 1293ERGO    C114363   8.640   9.440   7.978 -0.0432  0.1317  0.0117
 1293ERGO    C214364   8.661   9.346   8.239  0.2361  0.1644 -0.0398
 1294ERGO   ROH14365  10.399   4.101   6.081  0.0471  0.2931  0.0772
 1294ERGO    R114366  10.492   4.035   6.340  0.0060  0.0426  0.0299
 1294ERGO    R214367  10.485   4.214   6.551  0.1703 -0.0909  0.1441
 1294ERGO    R314368  10.350   4.012   6.674  0.0075 -0.0581  0.0259
 1294ERGO    R414369  10.424   4.195   6.891  0.1661 -0.2332  0.1368
 1294ERGO    R514370  10.465   3.981   6.882 -0.0055 -0.2703  0.0092
 1294ERGO    C114371  10.262   3.994   7.204  0.0108 -0.2851  0.0216
 1294ERGO    C214372  10.109   4.127   7.484 -0.2016  0.0858 -0.0656
 1295ERGO   ROH14373   7.179   7.667   6.969  0.0552  0.1327  0.0725
 1295ERGO    R114374   7.051   7.628   7.218  0.0585 -0.0436  0.0477
 1295ERGO    R214375   7.059   7.386   7.354  0.4635 -0.0039  0.1039
 1295ERGO    R314376   7.153   7.541   7.557  0.1318  0.2180  0.0949
 1295ERGO    R414377   6.965   7.357   7.685  0.4653 -0.1376  0.0928
 1295ERGO    R514378   6.963   7.574   7.699  0.0371 -0.1299  0.0589
 1295ERGO    C114379   6.998   7.485   8.068  0.1550 -0.0070  0.0780
 1295ERGO    C214380   7.085   7.544   8.255 -0.2167 -0.0114 -0.1517
 1296ERGO   ROH14381   3.074  16.909   7.114 -0.1090 -0.1153  0.0966
 1296ERGO    R114382   3.057  16.729   7.332 -0.1008 -0.1641  0.0561
 1296ERGO    R214383   3.264  16.561   7.403 -0.0502 -0.0828  0.0913
 1296ERGO    R314384   3.233  16.677   7.647 -0.1827 -0.1460  0.1061
 1296ERGO    R414385   3.425  16.460   7.692  0.3415  0.2709  0.0077
 1296ERGO    R514386   3.239  16.494   7.801  0.3114 -0.1436  0.1075
 1296ERGO    C114387   3.489  16.510   8.089  0.4452  0.4174 -0.0270
 1296ERGO    C214388   3.647  16.507   8.348  0.3557  0.3507 -0.0757
 1297ERGO   ROH14389   6.415  12.818   6.691 -0.1017  0.1511  0.0314
 1297ERGO    R114390   6.519  12.966   6.909 -0.2107  0.1040  0.1160
 1297ERGO    R214391   6.369  13.025   7.134 -0.2325 -0.2118  0.1885
 1297ERGO    R314392   6.576  12.908   7.264 -0.0816 -0.0932  0.0659
 1297ERGO    R414393   6.444  13.071   7.468 -0.0708 -0.1760  0.1484
 1297ERGO    R514394   6.655  13.076   7.415 -0.0973 -0.0453  0.0259
 1297ERGO    C114395   6.682  12.987   7.785  0.1650 -0.0438  0.0100
 1297ERGO    C214396   6.910  12.855   8.034  0.0688 -0.0226  0.3059
 1298ERGO   ROH14397   9.031  16.369   6.456 -0.0209  0.0697 -0.0928
 1298ERGO    R114398   9.187  16.438   6.682 -0.0654 -0.2003  0.0265
 1298ERGO    R214399   9.171  16.687   6.803  0.3377 -0.1279 -0.0403
 1298ERGO    R314400   9.123  16.539   7.026 -0.1641  0.0031 -0.0527
 1298ERGO    R414401   9.193  16.805   7.127  0.1457 -0.0978 -0.0383
 1298ERGO    R514402   9.284  16.616   7.185 -0.2289 -0.2286  0.1194
 1298ERGO    C114403   9.160  16.735   7.525 -0.4370  0.0429 -0.0489
 1298ERGO    C214404   9.380  16.887   7.786  0.1410 -0.1400  0.0934
 1299ERGO   ROH14405   6.651   2.394   6.309 -0.0568  0.1921 -0.1729
 1299ERGO    R114406   6.632   2.413   6.591 -0.0372  0.1104 -0.1662
 1299ERGO    R214407   6.681   2.648   6.727 -0.0356  0.0718 -0.1031
 1299ERGO    R314408   6.433   2.602   6.830 -0.0266  0.0345 -0.0966
 1299ERGO    R414409   6.589   2.708   7.055 -0.0339  0.0536 -0.0988
 1299ERGO    R514410   6.475   2.522   7.052 -0.0077  0.0364 -0.0986
 1299ERGO    C114411   6.304   2.699   7.343 -0.0243  0.0080 -0.0902
 1299ERGO    C214412   6.297   2.937   7.576  0.0709 -0.0788 -0.1066
 1300ERGO   ROH14413  15.706   9.734   6.663 -0.0170 -0.1447 -0.0351
 1300ERGO    R114414  15.655   9.878   6.902  0.0524  0.0003 -0.1064
 1300ERGO    R214415  15.428   9.837   7.055  0.0325  0.1843 -0.0820
 1300ERGO    R314416  15.610   9.799   7.254  0.0172  0.1981 -0.0657
 1300ERGO    R414417  15.358   9.857   7.393  0.0251  0.2764 -0.0888
 1300ERGO    R514418  15.549   9.959   7.422  0.0412  0.2476 -0.1055
 1300ERGO    C114419  15.488   9.832   7.776  0.0064  0.3431 -0.0775
 1300ERGO    C214420  15.640   9.758   8.070  0.2369  0.0745 -0.0188
 1301ERGO   ROH14421   3.977   8.792   7.088 -0.2512  0.1012  0.1797
 1301ERGO    R114422   4.074   8.671   7.324 -0.0550  0.1639  0.1323
 1301ERGO    R214423   4.085   8.805   7.566 -0.2402  0.1025  0.1741
 1301ERGO    R314424   3.941   8.592   7.654  0.0809 -0.1466  0.1160
 1301ERGO    R414425   4.059   8.708   7.897 -0.3519  0.1712  0.1869
 1301ERGO    R514426   4.074   8.500   7.831  0.1034  0.1671  0.2689
 1301ERGO    C114427   3.910   8.451   8.172 -0.1154 -0.0227  0.1399
 1301ERGO    C214428   3.598   8.460   8.374 -0.0934 -0.2365  0.2706
 1302ERGO   ROH14429  10.244   2.131   6.608 -0.0614  0.0615  0.0219
 1302ERGO    R114430  10.166   2.042   6.865 -0.1385  0.0851  0.0078
 1302ERGO    R214431  10.335   1.898   7.030 -0.2677 -0.1136 -0.0234
 1302ERGO    R314432  10.277   2.095   7.208 -0.0710 -0.0871  0.0120
 1302ERGO    R414433  10.363   1.868   7.373 -0.0319 -0.0992 -0.0404
 1302ERGO    R514434  10.177   1.981   7.393  0.0247 -0.0375  0.0901
 1302ERGO    C114435  10.326   2.036   7.740  0.2900 -0.0660 -0.0172
 1302ERGO    C214436  10.522   2.050   8.057 -0.0015  0.0039 -0.3650
 1303ERGO   ROH14437   4.816   1.887   6.801  0.1787 -0.1964  0.0216
 1303ERGO    R114438   4.946   1.932   7.049  0.2242 -0.0393 -0.0294
 1303ERGO    R214439   5.092   2.161   7.101  0.0251  0.1096 -0.1111
 1303ERGO    R314440   4.927   2.178   7.317  0.0829 -0.0203 -0.0561
 1303ERGO    R414441   5.196   2.228   7.424  0.0756  0.2542 -0.1570
 1303ERGO    R514442   5.053   2.079   7.495  0.2426  0.1244 -0.0860
 1303ERGO    C114443   5.102   2.283   7.814  0.1592  0.2164 -0.1320
 1303ERGO    C214444   5.107   2.541   8.034  0.0001 -0.0700 -0.3192
 1304ERGO   ROH14445   1.129   8.969   7.027 -0.0576  0.1528 -0.2177
 1304ERGO    R114446   1.199   9.076   7.279 -0.0609  0.0737 -0.1839
 1304ERGO    R214447   1.010   9.154   7.465 -0.0602  0.0051 -0.1617
 1304ERGO    R314448   1.148   8.986   7.628 -0.0539 -0.0391 -0.2101
 1304ERGO    R414449   1.014   9.174   7.810 -0.0759 -0.0975 -0.1544
 1304ERGO    R514450   1.227   9.128   7.805 -0.0682 -0.0837 -0.1630
 1304ERGO    C114451   1.147   9.028   8.164 -0.0792 -0.1988 -0.1956
 1304ERGO    C214452   1.185   9.081   8.465 -0.1320  0.0491 -0.4057
 1305ERGO   ROH14453  16.853   9.186   7.085 -0.1179 -0.0302  0.0520
 1305ERGO    R114454  16.802   9.127   7.357  0.0167  0.0764  0.1006
 1305ERGO    R214455  16.928   8.920   7.490 -0.0247  0.0432  0.0758
 1305ERGO    R314456  16.994   9.116   7.666  0.2022  0.0489 -0.0116
 1305ERGO    R414457  16.973   8.872   7.829 -0.3707  0.1743  0.1456
 1305ERGO    R514458  16.870   9.062   7.864 -0.0585  0.4009 -0.0622
 1305ERGO    C114459  17.062   9.028   8.192 -0.3591  0.2562  0.1041
 1305ERGO    C214460  17.329   8.861   8.389  0.1892  0.2519 -0.4254
 1306ERGO   ROH14461   9.120   4.169   6.299  0.0261  0.0576 -0.0148
 1306ERGO    R114462   9.022   4.149   6.563  0.0214 -0.3513 -0.0417
 1306ERGO    R214463   9.143   3.991   6.755  0.5821  0.0534 -0.0376
 1306ERGO    R314464   9.146   4.222   6.898 -0.3222  0.0758  0.0014
 1306ERGO    R414465   9.128   4.010   7.100  0.4498 -0.0575 -0.0365
 1306ERGO    R514466   8.995   4.182   7.079 -0.2206 -0.5354 -0.0276
 1306ERGO    C114467   9.123   4.239   7.434 -0.4763 -0.1009  0.0008
 1306ERGO    C214468   9.276   4.484   7.650  0.2589 -0.2940  0.1554
 1307ERGO   ROH14469   6.193   6.138   6.612  0.0582  0.0636 -0.0563
 1307ERGO    R114470   5.988   6.039   6.781  0.0859  0.0413 -0.0370
 1307ERGO    R214471   6.015   5.806   6.925  0.1580  0.0909  0.0234
 1307ERGO    R314472   5.950   5.966   7.135  0.0964  0.1217 -0.0179
 1307ERGO    R414473   5.983   5.699   7.252  0.2101  0.1596  0.0520
 1307ERGO    R514474   5.809   5.829   7.272  0.1537  0.0961  0.0206
 1307ERGO    C114475   5.903   5.787   7.640  0.1826  0.2286  0.0299
 1307ERGO    C214476   6.203   5.643   7.851  0.3495  0.0150 -0.0758
 1308ERGO   ROH14477   4.247  15.951   6.980  0.0547  0.1251  0.0790
 1308ERGO    R114478   4.243  15.934   7.263  0.0270  0.0918  0.0763
 1308ERGO    R214479   4.473  15.951   7.416  0.0006  0.1712  0.1052
 1308ERGO    R314480   4.335  16.149   7.541 -0.0980  0.0997  0.1123
 1308ERGO    R414481   4.516  16.044   7.746  0.0609  0.2816  0.0673
 1308ERGO    R514482   4.301  16.067   7.763  0.0496  0.1253  0.1462
 1308ERGO    C114483   4.412  16.284   8.056  0.0035  0.2786  0.0518
 1308ERGO    C214484   4.592  16.395   8.306  0.0922  0.1482  0.1464
 1309ERGO   ROH14485  12.066   6.067   6.480  0.0579 -0.0658  0.0365
 1309ERGO    R114486  12.282   5.982   6.642  0.1534  0.1672  0.0361
 1309ERGO    R214487  12.420   6.155   6.807 -0.2121  0.2691  0.2562
 1309ERGO    R314488  12.358   5.971   6.997  0.0326 -0.0295  0.0551
 1309ERGO    R414489  12.561   6.142   7.122 -0.4374  0.3129  0.3599
 1309ERGO    R514490  12.567   5.924   7.105  0.0497  0.3345  0.1811
 1309ERGO    C114491  12.585   5.961   7.485 -0.3388  0.0580  0.2316
 1309ERGO    C214492  12.797   6.003   7.792  0.3177 -0.0702  0.1878
 1310ERGO   ROH14493   3.980  14.321   7.030  0.2392  0.1837  0.0194
 1310ERGO    R114494   3.905  14.229   7.287  0.2461  0.0068 -0.0425
 1310ERGO    R214495   4.090  14.172   7.485  0.2320  0.2132  0.0219
 1310ERGO    R314496   3.940  14.345   7.630 -0.0822 -0.0397  0.0116
 1310ERGO    R414497   4.039  14.151   7.826  0.4473  0.2423  0.0589
 1310ERGO    R514498   3.831  14.207   7.793  0.2911 -0.2202  0.1272
 1310ERGO    C114499   3.868  14.301   8.161  0.2776  0.0219  0.0707
 1310ERGO    C214500   3.672  14.357   8.523  0.2001 -0.0947  0.1023
 1311ERGO   ROH14501   9.315   3.658   7.397  0.0819 -0.1435  0.1278
 1311ERGO    R114502   9.391   3.425   7.539  0.1642 -0.0798  0.1917
 1311ERGO    R214503   9.437   3.425   7.812 -0.0103 -0.0284  0.2283
 1311ERGO    R314504   9.254   3.224   7.810  0.1353 -0.1600  0.1155
 1311ERGO    R414505   9.444   3.149   8.020  0.0746 -0.0484  0.1978
 1311ERGO    R514506   9.382   3.026   7.851  0.2491 -0.0726  0.1586
 1311ERGO    C114507   9.276   2.799   8.138  0.2607 -0.1835  0.0743
 1311ERGO    C214508   9.145   2.717   8.443 -0.0579  0.1780  0.0793
 1312ERGO   ROH14509   9.750  17.954   6.277 -0.0290  0.0142  0.0773
 1312ERGO    R114510   9.780  18.031   6.547 -0.0040  0.0773  0.0576
 1312ERGO    R214511   9.567  18.038   6.725  0.0061  0.1348  0.0748
 1312ERGO    R314512   9.728  17.877   6.873  0.0072  0.1567  0.0955
 1312ERGO    R414513   9.539  17.991   7.066 -0.0463  0.0986  0.0648
 1312ERGO    R514514   9.756  17.995   7.080 -0.0554  0.1406  0.1088
 1312ERGO    C114515   9.674  17.812   7.404 -0.0758  0.0979  0.0784
 1312ERGO    C214516   9.683  17.808   7.750  0.1097  0.0209 -0.2290
 1313ERGO   ROH14517   7.469   8.581   7.092 -0.1929 -0.0229  0.0824
 1313ERGO    R114518   7.603   8.535   7.337 -0.0826 -0.1065  0.0080
 1313ERGO    R214519   7.497   8.614   7.580  0.1080 -0.0294  0.0674
 1313ERGO    R314520   7.535   8.352   7.644 -0.0310 -0.0545  0.0504
 1313ERGO    R414521   7.509   8.489   7.903  0.0678 -0.0546  0.0593
 1313ERGO    R514522   7.672   8.358   7.841 -0.0101 -0.1417  0.0383
 1313ERGO    C114523   7.551   8.171   8.150 -0.0861 -0.0927  0.0387
 1313ERGO    C214524   7.613   8.035   8.397 -0.1877  0.0596 -0.1845
 1314ERGO   ROH14525  15.153   7.388   6.822 -0.2109 -0.0412 -0.1806
 1314ERGO    R114526  15.146   7.459   7.096 -0.1060 -0.0055 -0.1876
 1314ERGO    R214527  14.914   7.458   7.244 -0.0457  0.0095 -0.0991
 1314ERGO    R314528  15.058   7.298   7.410  0.0195  0.0358 -0.1289
 1314ERGO    R414529  14.818   7.370   7.565  0.0963  0.1063 -0.0286
 1314ERGO    R514530  15.026   7.394   7.627  0.1347  0.1003 -0.1365
 1314ERGO    C114531  14.898   7.168   7.907  0.2400  0.1874 -0.0155
 1314ERGO    C214532  14.598   7.013   8.007  0.1361 -0.2781  0.0876
 1315ERGO   ROH14533   0.948   8.566   7.190  0.0821  0.2159 -0.1118
 1315ERGO    R114534   0.904   8.679   7.446  0.1092  0.1531 -0.0793
 1315ERGO    R214535   0.801   8.532   7.657  0.0345  0.1285 -0.1347
 1315ERGO    R314536   1.025   8.621   7.784  0.0603 -0.0027 -0.0863
 1315ERGO    R414537   0.852   8.522   7.999 -0.1325  0.2623 -0.1049
 1315ERGO    R514538   0.943   8.720   7.986  0.0518  0.1799 -0.1731
 1315ERGO    C114539   1.090   8.600   8.317 -0.2056  0.2172 -0.0422
 1315ERGO    C214540   1.390   8.544   8.530 -0.1211  0.0102  0.0386
 1316ERGO   ROH14541   2.676   0.584   6.775  0.0602  0.1970 -0.0274
 1316ERGO    R114542   2.638   0.471   7.032 -0.0329  0.1352 -0.0665
 1316ERGO    R214543   2.838   0.464   7.222 -0.0426 -0.0791 -0.0571
 1316ERGO    R314544   2.652   0.588   7.376  0.0420  0.0082 -0.0260
 1316ERGO    R414545   2.822   0.445   7.567 -0.1816 -0.3391 -0.0770
 1316ERGO    R514546   2.605   0.431   7.551 -0.1940 -0.0833 -0.1669
 1316ERGO    C114547   2.637   0.550   7.912 -0.1831 -0.4085 -0.0595
 1316ERGO    C214548   2.811   0.750   8.184  0.1779 -0.2386  0.0910
 1317ERGO   ROH14549   8.290  17.300   6.044 -0.0419 -0.1995  0.1026
 1317ERGO    R114550   8.329  17.410   6.302  0.0172 -0.0233  0.0201
 1317ERGO    R214551   8.352  17.682   6.346 -0.1947  0.0241 -0.1438
 1317ERGO    R314552   8.150  17.638   6.522 -0.0523 -0.0597  0.0010
 1317ERGO    R414553   8.242  17.910   6.581 -0.1708  0.0051 -0.1141
 1317ERGO    R514554   8.222  17.746   6.723  0.0196  0.0209 -0.0678
 1317ERGO    C114555   7.988  18.001   6.884 -0.0231 -0.0847  0.0391
 1317ERGO    C214556   7.906  18.273   6.943 -0.0739  0.0041  0.3227
 1318ERGO   ROH14557  16.756  16.491   6.981 -0.1565 -0.0427  0.1128
 1318ERGO    R114558  16.905  16.411   7.207 -0.0699  0.0474  0.0884
 1318ERGO    R214559  16.944  16.576   7.426 -0.0496  0.1078  0.0407
 1318ERGO    R314560  16.843  16.365   7.563  0.0438  0.1120  0.1170
 1318ERGO    R414561  16.834  16.588   7.753 -0.3380  0.2519 -0.0592
 1318ERGO    R514562  16.925  16.393   7.786 -0.1712  0.3661  0.1682
 1318ERGO    C114563  16.673  16.397   8.072 -0.4183  0.3396 -0.0457
 1318ERGO    C214564  16.531  16.221   8.242 -0.3254  0.0949  0.0125
 1319ERGO   ROH14565   1.034   4.106   6.616 -0.0638  0.1786 -0.0282
 1319ERGO    R114566   1.002   4.272   6.843 -0.0134  0.2244 -0.0536
 1319ERGO    R214567   0.913   4.176   7.086 -0.0839  0.2956 -0.0477
 1319ERGO    R314568   1.141   4.290   7.178 -0.0394  0.2045 -0.0420
 1319ERGO    R414569   0.969   4.269   7.414  0.0141  0.1201 -0.0139
 1319ERGO    R514570   1.067   4.449   7.341  0.0320  0.1371  0.0554
 1319ERGO    C114571   1.216   4.431   7.692  0.1130 -0.0676  0.0111
 1319ERGO    C214572   1.416   4.509   7.900  0.0835  0.2024  0.0877
 1320ERGO   ROH14573  13.228   1.433   6.729  0.0158 -0.1824  0.1268
 1320ERGO    R114574  13.191   1.501   7.001  0.0236 -0.0848  0.1040
 1320ERGO    R214575  12.965   1.428   7.144  0.0502 -0.0760  0.1506
 1320ERGO    R314576  13.147   1.321   7.315  0.0848  0.0277  0.1777
 1320ERGO    R414577  12.914   1.379   7.482  0.0061 -0.1440  0.1337
 1320ERGO    R514578  13.118   1.445   7.518 -0.0435 -0.0108  0.1844
 1320ERGO    C114579  13.055   1.250   7.840  0.0130 -0.0862  0.1494
 1320ERGO    C214580  13.272   1.105   8.115 -0.0319 -0.0710 -0.2073
 1321ERGO   ROH14581   0.857  18.126   7.065  0.1184  0.0011  0.1099
 1321ERGO    R114582   0.710  17.980   7.258  0.0570  0.0197  0.0798
 1321ERGO    R214583   0.831  17.817   7.445  0.0122  0.1003  0.1902
 1321ERGO    R314584   0.689  17.968   7.621 -0.1146  0.1267  0.0752
 1321ERGO    R414585   0.811  17.759   7.785 -0.0745  0.2606  0.2120
 1321ERGO    R514586   0.600  17.811   7.777 -0.0971  0.1640  0.1209
 1321ERGO    C114587   0.667  17.868   8.148 -0.2441  0.3787  0.1166
 1321ERGO    C214588   0.672  17.826   8.548  0.3000  0.0615 -0.0268
 1322ERGO   ROH14589  11.018   6.412   6.575 -0.1020 -0.1673 -0.0668
 1322ERGO    R114590  11.066   6.352   6.847 -0.0656 -0.0455 -0.0466
 1322ERGO    R214591  11.265   6.474   6.993 -0.0120 -0.0223 -0.1465
 1322ERGO    R314592  11.061   6.533   7.163  0.0366  0.1083 -0.1305
 1322ERGO    R414593  11.292   6.489   7.338  0.0193 -0.0914 -0.1452
 1322ERGO    R514594  11.098   6.391   7.352 -0.0586  0.0498 -0.1511
 1322ERGO    C114595  11.116   6.552   7.697  0.0830 -0.0089 -0.1293
 1322ERGO    C214596  11.202   6.738   8.008 -0.0759  0.1647  0.3812
 1323ERGO   ROH14597   8.232   3.015   6.165 -0.0439 -0.2340  0.0359
 1323ERGO    R114598   8.334   2.970   6.425  0.0484 -0.1473  0.0166
 1323ERGO    R214599   8.483   3.159   6.561  0.0870 -0.0917 -0.0888
 1323ERGO    R314600   8.295   3.122   6.754  0.1494 -0.0451 -0.0201
 1323ERGO    R414601   8.500   3.288   6.882  0.1227  0.0752 -0.1576
 1323ERGO    R514602   8.421   3.099   6.957  0.1991  0.0973 -0.0404
 1323ERGO    C114603   8.333   3.328   7.249  0.2022  0.2162 -0.1331
 1323ERGO    C214604   8.318   3.456   7.553  0.1939  0.1011  0.0930
 1324ERGO   ROH14605   7.195  17.142   6.197  0.0205 -0.1878  0.0249
 1324ERGO    R114606   7.174  17.050   6.464 -0.0331  0.0796  0.1167
 1324ERGO    R214607   7.380  16.919   6.592 -0.1723 -0.0903  0.1770
 1324ERGO    R314608   7.345  17.113   6.779  0.1429  0.1350  0.0104
 1324ERGO    R414609   7.544  16.931   6.896 -0.2759 -0.1848  0.2370
 1324ERGO    R514610   7.357  16.996   6.988 -0.1869  0.2725  0.1091
 1324ERGO    C114611   7.607  17.121   7.249 -0.0403 -0.0283  0.1157
 1324ERGO    C214612   7.835  17.085   7.492 -0.2107 -0.0619 -0.4066
 1325ERGO   ROH14613   6.799   3.631   6.282  0.3103 -0.2349 -0.1196
 1325ERGO    R114614   6.854   3.734   6.540  0.2658 -0.1150 -0.1586
 1325ERGO    R214615   6.717   3.653   6.766  0.1490  0.0761 -0.1637
 1325ERGO    R314616   6.967   3.601   6.859  0.0925  0.0147 -0.0409
 1325ERGO    R414617   6.793   3.580   7.095 -0.0806 -0.3042 -0.1879
 1325ERGO    R514618   6.971   3.703   7.076 -0.0875 -0.2410  0.0915
 1325ERGO    C114619   7.072   3.488   7.374 -0.2672 -0.5833 -0.0866
 1325ERGO    C214620   7.079   3.335   7.638 -0.1531 -0.1577  0.2093
 1326ERGO   ROH14621  17.918   3.483   6.474  0.2487 -0.0141 -0.0761
 1326ERGO    R114622  17.854   3.551   6.742  0.0943 -0.0462 -0.1047
 1326ERGO    R214623  17.815   3.361   6.938  0.0265 -0.0724 -0.1389
 1326ERGO    R314624  18.004   3.505   7.070 -0.0661 -0.0430 -0.0313
 1326ERGO    R414625  17.883   3.336   7.276  0.0402 -0.2493 -0.1519
 1326ERGO    R514626  17.905   3.552   7.283 -0.0950 -0.2436 -0.0024
 1326ERGO    C114627  18.099   3.456   7.596 -0.0385 -0.3248 -0.0584
 1326ERGO    C214628  18.109   3.371   7.886  0.0745 -0.1903  0.3505
 1327ERGO   ROH14629  16.948   0.809   6.739  0.1103  0.1164 -0.0969
 1327ERGO    R114630  17.039   0.804   7.007  0.0869  0.0531 -0.0904
 1327ERGO    R214631  17.284   0.907   7.084  0.0675  0.0557 -0.0419
 1327ERGO    R314632  17.133   1.050   7.259  0.0408 -0.0063 -0.0132
 1327ERGO    R414633  17.383   1.000   7.401  0.1219  0.1522 -0.0864
 1327ERGO    R514634  17.182   0.955   7.472  0.1662  0.0466 -0.0153
 1327ERGO    C114635  17.299   1.189   7.751  0.1289  0.1501 -0.0853
 1327ERGO    C214636  17.265   1.402   8.033 -0.0468 -0.0526  0.0167
 1328ERGO   ROH14637   2.267   0.751   6.894 -0.0256 -0.3068 -0.0682
 1328ERGO    R114638   2.371   0.813   7.149 -0.0774 -0.1482 -0.0847
 1328ERGO    R214639   2.254   0.999   7.316 -0.1403 -0.0806 -0.2033
 1328ERGO    R314640   2.256   0.794   7.494 -0.1270  0.0147 -0.0916
 1328ERGO    R414641   2.283   1.035   7.659  0.0629  0.0924 -0.2360
 1328ERGO    R514642   2.414   0.861   7.661 -0.0074  0.0403 -0.2144
 1328ERGO    C114643   2.301   0.863   8.025  0.1938  0.2826 -0.1502
 1328ERGO    C214644   2.324   0.844   8.309  0.0565  0.0892  0.1969
 1329ERGO   ROH14645  12.298  13.398   6.584  0.0889  0.0215  0.1032
 1329ERGO    R114646  12.305  13.607   6.775 -0.1015  0.1334 -0.0092
 1329ERGO    R214647  12.077  13.736   6.863 -0.2449 -0.1713  0.0761
 1329ERGO    R314648  12.171  13.665   7.108  0.0327  0.0958  0.0527
 1329ERGO    R414649  12.057  13.933   7.146 -0.3418 -0.0435 -0.0185
 1329ERGO    R514650  12.259  13.869   7.199 -0.2029  0.2819 -0.1195
 1329ERGO    C114651  12.134  13.982   7.541 -0.1375  0.2815 -0.0955
 1329ERGO    C214652  11.963  13.914   7.912 -0.1438 -0.2254 -0.0881
 1330ERGO   ROH14653   4.778  10.693   7.329  0.1178  0.2259  0.0360
 1330ERGO    R114654   4.848  10.644   7.599  0.0543  0.1728  0.0433
 1330ERGO    R214655   4.695  10.733   7.811  0.0539  0.2129  0.0261
 1330ERGO    R314656   4.701  10.471   7.883 -0.0609  0.2032  0.0030
 1330ERGO    R414657   4.798  10.615   8.119  0.0320  0.1381  0.0051
 1330ERGO    R514658   4.899  10.451   8.017 -0.0555  0.0996 -0.0196
 1330ERGO    C114659   4.865  10.300   8.366 -0.0885  0.0855 -0.0289
 1330ERGO    C214660   5.074  10.191   8.601 -0.0732 -0.1023  0.0189
 1331ERGO   ROH14661   8.161  12.231   6.706 -0.2072  0.4283 -0.0841
 1331ERGO    R114662   8.318  12.180   6.936 -0.1546  0.1393 -0.1785
 1331ERGO    R214663   8.442  12.382   7.078  0.1388 -0.0660 -0.1334
 1331ERGO    R314664   8.309  12.273   7.288  0.1108 -0.0194 -0.1271
 1331ERGO    R414665   8.530  12.423   7.410  0.1135 -0.0211 -0.1324
 1331ERGO    R514666   8.481  12.213   7.443  0.0912 -0.0105 -0.1025
 1331ERGO    C114667   8.455  12.345   7.800  0.0726  0.0489 -0.1259
 1331ERGO    C214668   8.460  12.599   8.052 -0.0262  0.1506  0.0391
 1332ERGO   ROH14669   6.394   9.505   7.093  0.1399 -0.0492 -0.1014
 1332ERGO    R114670   6.510   9.420   7.337  0.0950 -0.0006 -0.0628
 1332ERGO    R214671   6.506   9.576   7.566  0.0215  0.0305 -0.0843
 1332ERGO    R314672   6.394   9.354   7.676  0.0250  0.0306 -0.0807
 1332ERGO    R414673   6.457   9.526   7.904  0.0113  0.0385 -0.0847
 1332ERGO    R514674   6.518   9.319   7.878  0.0186  0.0404 -0.0758
 1332ERGO    C114675   6.324   9.289   8.205  0.0087  0.0432 -0.0814
 1332ERGO    C214676   6.215   9.098   8.510 -0.0118  0.0997 -0.1615
 1333ERGO   ROH14677   5.911  11.101   6.944  0.1680 -0.0694  0.0171
 1333ERGO    R114678   5.832  11.259   7.166  0.2710  0.0089 -0.0006
 1333ERGO    R214679   5.607  11.203   7.316  0.0474  0.3581 -0.1891
 1333ERGO    R314680   5.783  11.207   7.523 -0.0962 -0.0122 -0.0511
 1333ERGO    R414681   5.544  11.338   7.628  0.0501  0.3852 -0.2007
 1333ERGO    R514682   5.746  11.418   7.629  0.1969  0.0288 -0.0246
 1333ERGO    C114683   5.672  11.420   8.003 -0.0832  0.0535 -0.0780
 1333ERGO    C214684   5.554  11.341   8.294 -0.2022 -0.1384 -0.2750
 1334ERGO   ROH14685  14.459   0.461   7.082 -0.0163 -0.0850 -0.0003
 1334ERGO    R114686  14.390   0.497   7.355 -0.0284 -0.1978  0.0124
 1334ERGO    R214687  14.433   0.302   7.545  0.1738 -0.1939 -0.0235
 1334ERGO    R314688  14.566   0.501   7.673 -0.0036 -0.0871 -0.0031
 1334ERGO    R414689  14.489   0.315   7.886  0.0423 -0.1043 -0.0051
 1334ERGO    R514690  14.447   0.529   7.880 -0.0957 -0.1332 -0.0509
 1334ERGO    C114691  14.646   0.510   8.205 -0.2007  0.0481  0.0248
 1334ERGO    C214692  14.729   0.323   8.638 -0.2700  0.1946 -0.2205
 1335ERGO   ROH14693  16.953   4.031   6.510 -0.1152 -0.3255  0.0327
 1335ERGO    R114694  16.921   4.146   6.766 -0.0659 -0.2039 -0.0162
 1335ERGO    R214695  17.028   4.032   6.995 -0.1555 -0.1833  0.0331
 1335ERGO    R314696  17.140   4.278   7.025 -0.0033 -0.2350 -0.0511
 1335ERGO    R414697  17.090   4.186   7.298 -0.1048 -0.0951 -0.0191
 1335ERGO    R514698  17.023   4.374   7.211  0.0249 -0.0841 -0.1065
 1335ERGO    C114699  17.229   4.506   7.504  0.0676 -0.0923 -0.1284
 1335ERGO    C214700  17.478   4.417   7.688 -0.1963 -0.2657 -0.1354
 1336ERGO   ROH14701   7.940  16.061   6.263 -0.1388  0.0083  0.2322
 1336ERGO    R114702   7.943  16.121   6.540 -0.1464 -0.1470  0.2651
 1336ERGO    R214703   8.030  15.940   6.730  0.2725 -0.0963  0.1217
 1336ERGO    R314704   8.194  16.145   6.802 -0.0842  0.1792  0.1832
 1336ERGO    R414705   8.104  16.028   7.056  0.4437 -0.3587  0.1579
 1336ERGO    R514706   8.090  16.238   6.997 -0.0835 -0.2926  0.4297
 1336ERGO    C114707   8.301  16.272   7.314  0.2085 -0.2526  0.2368
 1336ERGO    C214708   8.411  16.408   7.620  0.1481 -0.0344  0.1319
 1337ERGO   ROH14709  16.507   1.648   6.595  0.1750  0.1807 -0.1248
 1337ERGO    R114710  16.658   1.706   6.828  0.0995  0.2197 -0.0857
 1337ERGO    R214711  16.655   1.955   6.948 -0.1169  0.1748  0.0029
 1337ERGO    R314712  16.587   1.811   7.169 -0.0275  0.0409 -0.0553
 1337ERGO    R414713  16.740   2.039   7.273 -0.1182  0.0651  0.0323
 1337ERGO    R514714  16.779   1.828   7.312 -0.0175  0.0622 -0.0694
 1337ERGO    C114715  16.726   1.952   7.669 -0.0352 -0.1244 -0.0051
 1337ERGO    C214716  16.566   2.053   7.938  0.1273  0.0707  0.1488
 1338ERGO   ROH14717  16.097   3.459   6.180 -0.1875  0.0498  0.0657
 1338ERGO    R114718  15.917   3.528   6.388 -0.0742  0.0473  0.1648
 1338ERGO    R214719  15.849   3.353   6.590 -0.0435  0.0105  0.1367
 1338ERGO    R314720  15.930   3.557   6.750  0.0900 -0.0660  0.1707
 1338ERGO    R414721  15.751   3.398   6.919 -0.0902  0.0571  0.1173
 1338ERGO    R514722  15.736   3.612   6.880  0.0952  0.0805  0.1280
 1338ERGO    C114723  15.769   3.616   7.260  0.0080  0.0123  0.1378
 1338ERGO    C214724  15.927   3.591   7.544  0.0460  0.1221  0.1016
 1339ERGO   ROH14725  10.162  13.066   6.415 -0.4233  0.1576  0.1738
 1339ERGO    R114726  10.263  13.228   6.623 -0.3022  0.0733  0.1827
 1339ERGO    R214727  10.103  13.326   6.827 -0.2175  0.1244  0.2298
 1339ERGO    R314728  10.288  13.207   6.986 -0.2494  0.0003  0.1739
 1339ERGO    R414729  10.125  13.366   7.169 -0.0849  0.1024  0.2237
 1339ERGO    R514730  10.342  13.373   7.150 -0.0893 -0.0410  0.1607
 1339ERGO    C114731  10.312  13.278   7.518 -0.0376 -0.0270  0.1677
 1339ERGO    C214732  10.376  13.409   7.760 -0.0603 -0.2693 -0.0105
 1340ERGO   ROH14733   0.076  15.015   6.738  0.0578 -0.2847 -0.0510
 1340ERGO    R114734  -0.019  14.866   6.960 -0.0011 -0.1563  0.0123
 1340ERGO    R214735   0.099  14.879   7.209  0.0655 -0.1716 -0.0137
 1340ERGO    R314736  -0.154  14.940   7.289  0.1256  0.0354  0.0222
 1340ERGO    R414737  -0.028  14.815   7.524 -0.0340 -0.3370 -0.0869
 1340ERGO    R514738  -0.216  14.756   7.431 -0.0942 -0.0336 -0.1621
 1340ERGO    C114739  -0.339  14.834   7.783 -0.0356 -0.2393 -0.0959
 1340ERGO    C214740  -0.300  15.079   8.089  0.1078  0.2778  0.0337
 1341ERGO   ROH14741  10.255   8.073   6.621 -0.2968 -0.1523 -0.0668
 1341ERGO    R114742  10.336   8.108   6.890 -0.0892 -0.2149 -0.1199
 1341ERGO    R214743  10.156   8.134   7.098  0.0657  0.0708 -0.0194
 1341ERGO    R314744  10.297   7.928   7.204 -0.1536 -0.1077 -0.0648
 1341ERGO    R414745  10.203   8.080   7.436  0.0917  0.0063 -0.0324
 1341ERGO    R514746  10.409   8.023   7.393  0.0162 -0.2441 -0.0913
 1341ERGO    C114747  10.363   7.855   7.732 -0.0990 -0.1988 -0.0828
 1341ERGO    C214748  10.353   7.807   7.998  0.0315  0.1826 -0.1014
 1342ERGO   ROH14749   1.472   3.387   6.695 -0.1575 -0.4014  0.1669
 1342ERGO    R114750   1.336   3.441   6.937 -0.1855 -0.2686  0.1216
 1342ERGO    R214751   1.290   3.247   7.128 -0.0478 -0.1239  0.3002
 1342ERGO    R314752   1.413   3.425   7.293 -0.1638  0.1116  0.1391
 1342ERGO    R414753   1.276   3.239   7.474  0.1421  0.0406  0.3141
 1342ERGO    R514754   1.258   3.457   7.473 -0.1111  0.0268  0.2038
 1342ERGO    C114755   1.384   3.402   7.829  0.1437  0.3576  0.1710
 1342ERGO    C214756   1.226   3.367   8.202  0.0835 -0.2202  0.1851
 1343W        W14757  10.806   2.846   5.532  0.2307  0.0341 -0.0530
 1344W        W14758   6.759  17.695  12.438  0.0270  0.0136 -0.0276
 1345W        W14759  14.084  13.072   6.153 -0.2838 -0.1664  0.1009
 1346W        W14760  12.869   0.714  15.644 -0.1127 -0.1858  0.2854
 1347W        W14761  11.560   1.788   3.218 -0.3175  0.2386 -0.2402
 1348W        W14762  16.973   9.693   2.369  0.1482  0.1030  0.0009
 1349W        W14763   4.877  13.648   5.809 -0.0998  0.2557  0.0638
 1350W        W14764  18.066  18.023  15.656  0.0011  0.0008 -0.1543
 1351W        W14765   1.135   0.224  13.682 -0.0393  0.1489 -0.4654
 1352W        W14766  11.081  14.458  11.976  0.0279 -0.2632  0.0456
 1353W        W14767   0.838   4.295  13.081 -0.1874 -0.0808 -0.0646
 1354W        W14768  13.971  17.421   4.215  0.2897 -0.1511 -0.1956
 1355W        W14769  10.907   5.479  15.394  0.3867 -0.0060 -0.2306
 1356W        W14770   3.587   8.555  12.601  0.1500  0.1606 -0.0845
 1357W        W14771   6.145  10.010  12.902  0.0744 -0.3114 -0.1253
 1358W        W14772  10.983   5.507  15.861  0.0864  0.3477  0.0046
 1359W        W14773   8.258  16.338   0.082 -0.1809 -0.0277  0.4436
 1360W        W14774   0.987  10.068  12.111 -0.1069  0.0581 -0.0750
 1361W        W14775   8.120   7.202  13.931  0.0845  0.3496  0.3758
 1362W        W14776  13.313  13.164  13.995  0.1982  0.2799 -0.0918
 1363W        W14777   2.183   4.477  10.246 -0.4023 -0.2543  0.2331
 1364W        W14778  10.568   1.189  14.381 -0.1554  0.1671  0.2650
 1365W        W14779  13.168   9.141   3.362 -0.1107 -0.0334 -0.0266
 1366W        W14780   3.529   2.650   6.065 -0.1246  0.0439 -0.1021
 1367W        W14781   8.031  16.971  13.715  0.0733  0.1334 -0.0300
 1368W        W14782   1.761  17.759   3.684  0.0016  0.1463  0.5287
 1369W        W14783   8.331   5.588   4.515 -0.0141  0.2100 -0.1590
 1370W        W14784  10.674   6.167  11.503 -0.0991 -0.1984  0.0571
 1371W        W14785   5.618   0.230  11.608  0.0364 -0.0029  0.1114
 1372W        W14786   1.025   0.590  11.177 -0.1520 -0.0879 -0.0482
 1373W        W14787  10.454   2.627  12.809 -0.2064  0.2507 -0.0173
 1374W        W14788   7.820   5.093   3.629  0.1497 -0.0613 -0.6157
 1375W        W14789  16.995  12.903   4.741 -0.0749 -0.0877 -0.0696
 1376W        W14790   9.556  10.592   5.681  0.3131  0.3879 -0.1077
 1377W        W14791  16.035   3.043  16.466 -0.3185  0.3367 -0.2700
 1378W        W14792  15.404  12.783   4.475 -0.2421 -0.2378 -0.0829
 1379W        W14793   3.535  10.322   4.534 -0.2265 -0.1366 -0.0492
 1380W        W14794   3.749  12.740   6.961 -0.3244 -0.0807 -0.3026
 1381W        W14795   0.200  13.446  13.565  0.2554  0.0869 -0.2433
 1382W        W14796  15.616  14.331   5.785  0.1360 -0.3891  0.1862
 1383W        W14797   1.744   6.393  10.718  0.1082  0.1528 -0.1058
 1384W        W14798   5.175  11.097   4.542 -0.1299 -0.0616 -0.1027
 1385W        W14799  14.575   8.162  15.899  0.2084  0.1218 -0.2710
 1386W        W14800  16.596  11.366  12.772  0.1637 -0.1725  0.1958
 1387W        W14801  12.403   6.902  14.194  0.2113 -0.1034 -0.3196
 1388W        W14802   2.818  17.424  11.017  0.0237 -0.3390  0.0487
 1389W        W14803  15.936   0.708   1.919 -0.1143  0.1385  0.2180
 1390W        W14804  15.778   1.664   0.425 -0.1966 -0.2142  0.1358
 1391W        W14805  11.895  14.470  12.061 -0.1426 -0.3276 -0.0352
 1392W        W14806   2.305   4.216  15.023 -0.2702  0.0532 -0.1202
 1393W        W14807   3.223  10.880   3.990 -0.2763  0.0506  0.0684
 1394W        W14808  17.816  15.233  12.111 -0.0109  0.1909 -0.2437
 1395W        W14809  14.661   4.672  11.131  0.1148 -0.0831  0.1951
 1396W        W14810   6.320  18.079  11.699  0.3886 -0.2388 -0.0971
 1397W        W14811   7.418   4.653   1.490  0.2438  0.2864 -0.2485
 1398W        W14812   7.562  15.431   5.106  0.0717 -0.0882  0.1560
 1399W        W14813   4.048  15.424  13.001 -0.0316 -0.1287  0.3183
 1400W        W14814   5.796   1.272  13.520  0.0852  0.0584 -0.0167
 1401W        W14815   2.540  16.621   0.348 -0.3464 -0.0895 -0.2243
 1402W        W14816   2.674  15.586  13.571 -0.2561  0.2070 -0.2555
 1403W        W14817   5.857   5.952   0.115  0.0294  0.1336  0.1295
 1404W        W14818   5.626   9.715   3.285  0.0756  0.0943  0.1326
 1405W        W14819   9.334  15.595   5.351  0.0111 -0.0541 -0.2359
 1406W        W14820   2.127  16.590  11.113  0.0162 -0.0249 -0.1076
 1407W        W14821  14.137  13.451   5.257 -0.0802 -0.2696 -0.1527
 1408W        W14822   5.865  11.571   2.600  0.1481  0.0698 -0.4984
 1409W        W14823  16.147  11.329  10.594  0.0387  0.1162  0.1477
 1410W        W14824  13.865  15.144  14.608 -0.0420  0.2703  0.0037
 1411W        W14825   1.882   0.087   5.795 -0.1336 -0.0783 -0.0158
 1412W        W14826   9.797   4.633  11.864 -0.0185  0.1776 -0.3992
 1413W        W14827  15.562  10.199   1.281  0.1242  0.3103  0.0126
 1414W        W14828  12.712   7.168  15.410  0.1300  0.1181  0.0813
 1415W        W14829  15.544   3.136   5.338  0.4213 -0.0949  0.3067
 1416W        W14830   9.168   5.302   4.039  0.0144 -0.0922  0.1510
 1417W        W14831  16.850  12.369   4.866  0.1304 -0.2254 -0.0353
 1418W        W14832  14.591   1.643   0.553  0.2771  0.0119  0.3473
 1419W        W14833  16.222   8.781   4.905 -0.0298  0.1953  0.0224
 1420W        W14834  10.086  11.141  11.548  0.2524  0.3390  0.3063
 1421W        W14835   2.516   2.558   0.096  0.2263  0.0479 -0.0380
 1422W        W14836  11.941   4.744   3.300 -0.1499 -0.1459  0.1668
 1423W        W14837   6.006  16.314  11.440  0.2040 -0.2066 -0.2404
 1424W        W14838  13.805   7.745   0.014  0.1080  0.1248  0.2246
 1425W        W14839   7.306   9.739   5.360  0.0091  0.1088 -0.3134
 1426W        W14840   1.589  14.796   0.101  0.0858  0.0607  0.0381
 1427W        W14841   7.878  16.528  10.292 -0.0972  0.1601 -0.0786
 1428W        W14842   9.052  17.543   5.357  0.3196  0.0656  0.1811
 1429W        W14843  14.968   7.872  16.066  0.1350  0.1708  0.0772
 1430W        W14844  12.914  17.541   3.543 -0.0990 -0.0022 -0.2854
 1431W        W14845   3.880   2.585   0.396 -0.1351  0.2424 -0.3553
 1432W        W14846  17.555  13.685   6.275 -0.0368  0.0598  0.2465
 1433W        W14847   8.281   7.942  12.717  0.1129 -0.0489  0.1656
 1434W        W14848  13.321   7.458   4.243 -0.0621 -0.3337  0.1685
 1435W        W14849   6.434   8.701   2.855 -0.2311  0.0496 -0.1086
 1436W        W14850  11.241   5.334   2.045  0.0312 -0.3517  0.1216
 1437W        W14851   4.977   4.238  12.249 -0.1767 -0.1043 -0.1651
 1438W        W14852   0.473   2.248   5.593 -0.1381  0.1228  0.1469
 1439W        W14853  12.933  11.350  11.473  0.1317  0.3293  0.1526
 1440W        W14854  13.272  13.381  14.568  0.0534 -0.0659  0.1433
 1441W        W14855   2.653   9.804   2.493 -0.2921 -0.1926 -0.2207
 1442W        W14856  14.355   9.702   1.178  0.2205 -0.2409  0.3664
 1443W        W14857   1.125  14.402  11.410  0.1418  0.1297  0.4096
 1444W        W14858   8.625   0.057  10.554 -0.0861  0.3911  0.0332
 1445W        W14859  15.686   2.113   1.364  0.4039  0.1765  0.2482
 1446W        W14860   9.376   8.659   1.349  0.2106  0.0948 -0.1446
 1447W        W14861  13.320  11.809   1.092 -0.0773  0.1188  0.2062
 1448W        W14862  14.245   6.162  13.231  0.0829 -0.3801  0.0439
 1449W        W14863   1.524  13.662   1.822  0.2327 -0.0260  0.1817
 1450W        W14864  13.850   1.562  15.046 -0.0208  0.1433 -0.1841
 1451W        W14865  14.102   2.892   3.030  0.1188  0.2250  0.1107
 1452W        W14866   5.249  10.755   6.327 -0.1082  0.0791  0.3731
 1453W        W14867  16.084  11.440  11.543  0.0078 -0.2926  0.3557
 1454W        W14868  12.120  10.486   4.741 -0.1301 -0.0423  0.0864
 1455W        W14869   8.311  12.268   4.580  0.2921 -0.1355  0.1319
 1456W        W14870  13.526   7.730   9.432 -0.0529  0.1119  0.1493
 1457W        W14871  15.951  16.613  11.846  0.3726  0.0639 -0.0304
 1458W        W14872   8.071   0.013  13.142 -0.0394  0.0644 -0.0553
 1459W        W14873  12.955   6.524  12.607 -0.4401 -0.1780  0.0868
 1460W        W14874  11.165  15.654   4.617 -0.1427  0.1857 -0.2854
 1461W        W14875  15.165  17.078  12.136 -0.0879  0.0790 -0.0342
 1462W        W14876  15.412   1.909   1.803  0.0815 -0.2955  0.1338
 1463W        W14877  13.015  11.431  14.328 -0.0647 -0.2141  0.0750
 1464W        W14878   3.897   3.204   1.169  0.2229 -0.0374 -0.3508
 1465W        W14879  16.083  18.056   1.279  0.3283  0.0967  0.3145
 1466W        W14880   5.673   0.223  13.397  0.0169  0.1706  0.1196
 1467W        W14881   0.834  13.779   0.516  0.0484  0.2180 -0.0981
 1468W        W14882  12.448   2.000  12.229  0.0358  0.2227 -0.1163
 1469W        W14883  13.998   9.207   1.913  0.1360  0.2035 -0.1131
 1470W        W14884   2.207  13.493  12.959 -0.2087 -0.1263 -0.1679
 1471W        W14885  14.450   6.136   1.027 -0.0017 -0.1745  0.1418
 1472W        W14886  10.946  16.224  16.252  0.0064  0.4813  0.0796
 1473W        W14887   5.202   9.969   0.892  0.0494 -0.1204  0.1660
 1474W        W14888  13.240   3.161   2.686  0.1090 -0.2624 -0.1718
 1475W        W14889   3.361  16.759   2.589 -0.1397 -0.1218  0.0056
 1476W        W14890   9.869  14.630  12.453  0.2219  0.1249  0.0647
 1477W        W14891   2.143   6.109  10.714 -0.1101  0.1940 -0.1567
 1478W        W14892  14.925   3.928   5.529 -0.0171  0.0536 -0.4575
 1479W        W14893   2.708  11.649   3.564 -0.1649 -0.1784 -0.3185
 1480W        W14894   8.062  16.211  10.668  0.4284 -0.2759  0.0875
 1481W        W14895   5.192   9.324  12.747 -0.0946  0.1368  0.1790
 1482W        W14896  14.133   8.863  12.077 -0.1865 -0.2161  0.1612
 1483W        W14897  15.611   7.265   2.389 -0.2034  0.0951  0.0595
 1484W        W14898   5.919   2.211  15.175 -0.0001 -0.0556  0.0326
 1485W        W14899   1.754   4.819  15.431 -0.0463 -0.0891  0.0734
 1486W        W14900  13.384   4.646   0.046 -0.0202 -0.1692 -0.2733
 1487W        W14901  15.706   0.667  13.112 -0.0655  0.2493 -0.2510
 1488W        W14902   4.685   2.268  14.747 -0.0116 -0.2605 -0.3339
 1489W        W14903   6.576   1.783  15.314  0.0124  0.2339  0.1173
 1490W        W14904   0.783  14.810   2.768 -0.1692  0.0934  0.0397
 1491W        W14905   5.347   2.612   5.415 -0.0820  0.2314 -0.0220
 1492W        W14906   3.245   9.132  16.178  0.0695 -0.2808  0.0099
 1493W        W14907   6.526   5.045  12.823 -0.0870  0.0719 -0.0078
 1494W        W14908   0.886   7.946  16.183 -0.0117 -0.0077 -0.0008
 1495W        W14909   5.334  11.025  14.209  0.1158 -0.1256 -0.0299
 1496W        W14910   4.430   7.062  11.569  0.1311 -0.0828 -0.1020
 1497W        W14911  11.961  13.238   1.247  0.3969  0.0345 -0.0073
 1498W        W14912  12.167   0.442  15.271 -0.2559  0.0718  0.0388
 1499W        W14913  14.183   6.830   3.019 -0.0831  0.1025 -0.0432
 1500W        W14914  13.673  14.308   2.924 -0.0171 -0.2312 -0.0471
 1501W        W14915   4.101   3.040   6.008 -0.0004  0.0281  0.1874
 1502W        W14916  16.665  12.394   2.163 -0.0507  0.0425 -0.1225
 1503W        W14917   3.252  10.960   3.298 -0.0153 -0.0791  0.1595
 1504W        W14918   7.435  13.600   1.993  0.0028 -0.0361 -0.0901
 1505W        W14919   8.608   9.216  11.985  0.0660 -0.2410 -0.2930
 1506W        W14920  14.953  10.702  10.812 -0.0613  0.2318 -0.1193
 1507W        W14921  17.513   3.947  15.471  0.4407 -0.0573  0.1716
 1508W        W14922   4.109   7.061   2.306 -0.0308 -0.0222  0.2602
 1509W        W14923  13.229   8.052  11.783 -0.0293 -0.0233 -0.1299
 1510W        W14924   4.768  16.259   6.470  0.0963 -0.1618 -0.3446
 1511W        W14925  13.817   2.137  11.331  0.2965  0.0490 -0.0875
 1512W        W14926  16.400   0.227  15.064  0.1411  0.0908 -0.1467
 1513W        W14927   8.370  10.607   3.204  0.1774  0.1397  0.0109
 1514W        W14928   2.283   9.757  11.705  0.2431  0.2295 -0.1039
 1515W        W14929   1.746   5.160  11.911 -0.1034 -0.0538  0.1069
 1516W        W14930  13.062  17.457  14.555  0.0031 -0.1361 -0.0033
 1517W        W14931   7.772   8.624   4.982 -0.3228 -0.1858 -0.0948
 1518W        W14932   0.170   8.804  10.686  0.0174  0.1137  0.0602
 1519W        W14933  12.181  12.696   4.358 -0.0249  0.0253 -0.1456
 1520W        W14934   6.828  14.260   3.983 -0.0385 -0.1516  0.2303
 1521W        W14935   0.448  17.034  16.244 -0.0791  0.1135 -0.1082
 1522W        W14936   5.717  10.980  12.429 -0.0389 -0.0551  0.0465
 1523W        W14937  10.172   7.900  11.030  0.1736 -0.3109 -0.0124
 1524W        W14938  17.031  13.279  13.535  0.0726 -0.2114 -0.0333
 1525W        W14939   5.624  18.018  16.086 -0.0141 -0.1279 -0.0699
 1526W        W14940   1.083   0.167   0.238 -0.0632 -0.0287  0.2254
 1527W        W14941   3.738   4.398   5.667  0.2794 -0.1808 -0.1625
 1528W        W14942   1.854   0.786   0.183  0.0152 -0.1343 -0.2108
 1529W        W14943  17.058   5.836  12.495  0.0852  0.2572  0.1902
 1530W        W14944   6.728  12.840  14.817 -0.0033  0.3418 -0.1136
 1531W        W14945   8.195  11.816   0.912  0.0651  0.2361  0.0633
 1532W        W14946   4.011  13.412   1.262  0.2651 -0.1342 -0.1915
 1533W        W14947  12.716  14.116   2.622 -0.0211  0.4423 -0.0566
 1534W        W14948   8.935  13.850  10.595 -0.2215  0.0400  0.0443
 1535W        W14949  12.845  13.430  13.194  0.1120  0.0662 -0.0087
 1536W        W14950  14.840  16.310  14.552  0.2982  0.0741  0.1788
 1537W        W14951  11.278  17.651   1.704 -0.1658  0.0592  0.0129
 1538W        W14952   7.710   1.808   1.584 -0.2896  0.0390 -0.2704
 1539W        W14953  12.806   8.793  10.967  0.0990 -0.0409 -0.0956
 1540W        W14954   7.928  10.391   2.928  0.1518 -0.0863 -0.1563
 1541W        W14955  15.154   4.905   1.509  0.0434 -0.0357 -0.0723
 1542W        W14956  15.311   2.206  13.111 -0.0975 -0.1294 -0.3189
 1543W        W14957   4.851   7.826  12.127 -0.0027 -0.0823  0.0692
 1544W        W14958   1.041   9.535   4.928  0.1844 -0.0940 -0.0454
 1545W        W14959  14.678   7.596  12.574 -0.2767  0.1246  0.0349
 1546W        W14960   2.465   0.881   2.713  0.0696  0.0897  0.0754
 1547W        W14961  15.095   3.327   3.377  0.1226  0.1970  0.3157
 1548W        W14962   0.632   0.459  14.901  0.0807  0.0191 -0.0048
 1549W        W14963  12.572  11.021  15.798  0.2320  0.1146 -0.1246
 1550W        W14964  12.114  13.616  10.561 -0.0232 -0.0169 -0.0847
 1551W        W14965   7.406  14.319  13.607 -0.1245  0.0079 -0.0650
 1552W        W14966   8.150  10.200   3.490  0.0541  0.1456  0.2640
 1553W        W14967  16.687   4.863   0.643  0.1951 -0.1151  0.2346
 1554W        W14968   0.622  16.603  12.268  0.3357  0.0030  0.1014
 1555W        W14969   0.596  15.468   4.792 -0.1301  0.0075  0.0341
 1556W        W14970  15.834   2.141  16.201 -0.1979  0.2073  0.0473
 1557W        W14971   6.135  11.278  15.682  0.1510 -0.0240 -0.1884
 1558W        W14972   2.678   1.133  11.095 -0.0692  0.0113 -0.0901
 1559W        W14973   9.928   5.236   1.451 -0.0234  0.0321 -0.2434
 1560W        W14974  11.342  10.606  11.720 -0.0178 -0.0007 -0.1587
 1561W        W14975  14.220  10.436   2.435  0.0847 -0.0725 -0.1013
 1562W        W14976   2.745   0.150   2.628  0.2996  0.1979  0.2756
 1563W        W14977   2.712  10.378   2.864  0.1300  0.0183 -0.5217
 1564W        W14978   1.647  12.615  12.717 -0.0421 -0.3194  0.0464
 1565W        W14979  15.467  10.786  12.042  0.3496 -0.1206 -0.1392
 1566W        W14980   2.245   1.588   1.346 -0.2246 -0.2261  0.1037
 1567W        W14981  14.782   6.958   0.941  0.0420 -0.0633 -0.0929
 1568W        W14982   7.482   0.857   2.931 -0.0385  0.0340 -0.1594
 1569W        W14983   3.442   3.564   4.019  0.3655 -0.3784 -0.1834
 1570W        W14984  10.608  11.476  15.331 -0.0724 -0.2352  0.2629
 1571W        W14985  14.333   3.623  10.123  0.0344 -0.0680  0.0374
 1572W        W14986  11.428  10.492  10.774 -0.0444 -0.2168 -0.0107
 1573W        W14987  10.353  10.172  13.884  0.2700 -0.0640 -0.0371
 1574W        W14988  17.605   5.496   4.565  0.1016  0.0959  0.1623
 1575W        W14989  10.499   7.472  10.984 -0.0706 -0.1062  0.3226
 1576W        W14990   0.628   1.365   1.289  0.2586 -0.1448 -0.0743
 1577W        W14991  12.931   0.525  11.132  0.1685 -0.3075  0.1000
 1578W        W14992   1.305  13.219   0.953 -0.1376  0.0249  0.1693
 1579W        W14993   5.935   9.620   6.085  0.2280  0.1462  0.0718
 1580W        W14994   7.796   4.094   4.061  0.0444 -0.1342  0.0934
 1581W        W14995  13.437   2.272  15.291  0.2281  0.0096  0.0591
 1582W        W14996  10.512  12.894   2.702 -0.2665  0.2781  0.1331
 1583W        W14997   9.075   1.651  15.335 -0.2357 -0.1068 -0.1720
 1584W        W14998   9.148  10.135   3.553  0.1464  0.1794  0.2127
 1585W        W14999   0.756   5.566  15.253  0.1783 -0.2943  0.1318
 1586W        W15000   8.413   0.619   0.616  0.0967 -0.1947 -0.0005
 1587W        W15001   0.251   1.843   2.239 -0.0119  0.1863  0.1409
 1588W        W15002  14.857  17.584  13.951  0.0495 -0.0090 -0.1803
 1589W        W15003   6.048   7.494   0.433 -0.1405 -0.0643 -0.1256
 1590W        W15004   4.708   1.400  15.435  0.1020  0.1258 -0.0525
 1591W        W15005   3.371  14.572   2.161 -0.1834 -0.3670 -0.1702
 1592W        W15006   6.585  18.061   3.987  0.1124 -0.3442  0.1993
 1593W        W15007   9.944   7.690   4.925 -0.2804 -0.0594 -0.0177
 1594W        W15008   2.040  17.599   2.365  0.0703  0.0333  0.1525
 1595W        W15009   4.736  16.415  11.351 -0.1662  0.1677 -0.0334
 1596W        W15010  13.912   7.989   0.520  0.0201  0.0163  0.2563
 1597W        W15011   7.510  12.835  13.765  0.0520 -0.2356 -0.0725
 1598W        W15012   3.537   6.253  13.839 -0.0161 -0.0595  0.0362
 1599W        W15013  13.235   7.913   5.101 -0.2241 -0.0312 -0.0105
 1600W        W15014  12.584   4.008   5.543 -0.1221 -0.2086 -0.0667
 1601W        W15015  16.698   8.753  13.199  0.0372  0.0817  0.0235
 1602W        W15016   8.857   1.251  14.362 -0.4283  0.3375  0.0540
 1603W        W15017  16.327  15.456  15.727  0.1724  0.2172 -0.0077
 1604W        W15018   9.456  11.672  15.822  0.2228 -0.0303  0.3246
 1605W        W15019   8.191  16.605  12.318 -0.2238  0.0521  0.1267
 1606W        W15020  15.726   9.949   0.906  0.0144  0.0563  0.1626
 1607W        W15021   7.201   5.744  13.908 -0.0133 -0.0262 -0.1687
 1608W        W15022  17.248  12.127   3.933 -0.3040 -0.0713 -0.2151
 1609W        W15023   0.478   2.914   3.068  0.1678 -0.2603  0.1107
 1610W        W15024   5.146  17.764  16.055  0.1158 -0.1685 -0.1559
 1611W        W15025  17.590  13.568   5.810  0.0795  0.2123 -0.2747
 1612W        W15026   9.030  15.076   2.568 -0.0236 -0.0631 -0.1595
 1613W        W15027  14.269  10.221  11.801  0.0310  0.1125  0.0546
 1614W        W15028  15.341   3.226   2.351 -0.1878 -0.1035 -0.0634
 1615W        W15029  18.199   5.743   2.899 -0.4088 -0.0911  0.0401
 1616W        W15030   9.072   3.377   5.061  0.0230 -0.3019 -0.0436
 1617W        W15031   2.224  18.138  13.643  0.1612 -0.0311  0.2152
 1618W        W15032   4.824   5.769   2.675  0.0295 -0.0695  0.0365
 1619W        W15033   1.308   4.682   3.196  0.0317  0.1218  0.0348
 1620W        W15034   7.377   4.897   0.194 -0.4786 -0.0723 -0.1527
 1621W        W15035   1.855   2.496   2.249  0.0511 -0.0693 -0.0604
 1622W        W15036   6.741  14.973  13.241  0.0822  0.2753 -0.0784
 1623W        W15037   5.914   7.962  16.262  0.1876 -0.0884  0.2478
 1624W        W15038  11.246   4.106   3.787 -0.1069  0.2946  0.0803
 1625W        W15039  17.700   3.695   5.147 -0.0767  0.0013 -0.3377
 1626W        W15040  13.701   4.359  11.569  0.0708  0.0031 -0.1919
 1627W        W15041  11.098  17.634  12.100  0.1426  0.2130 -0.2414
 1628W        W15042   9.490   3.983   1.483 -0.1687  0.0364 -0.0888
 1629W        W15043   8.767   9.221  15.585 -0.1881 -0.1027  0.2482
 1630W        W15044   6.571   0.700   1.423 -0.2227 -0.0299 -0.2736
 1631W        W15045  16.342   9.878   0.872  0.0623  0.1570  0.1410
 1632W        W15046   2.877  10.147   4.558 -0.0066 -0.0802  0.3104
 1633W        W15047   9.313   4.268   1.998  0.0927 -0.0668  0.0353
 1634W        W15048   9.942   1.723  14.896 -0.1265 -0.0688 -0.1584
 1635W        W15049   8.057   2.483   0.898 -0.2065  0.1528  0.0978
 1636W        W15050   6.985   3.999   4.775  0.2002  0.2422  0.1649
 1637W        W15051  14.719   8.486   1.421 -0.1130  0.0570  0.0487
 1638W        W15052  12.069  14.975   5.116 -0.0014  0.1566 -0.1706
 1639W        W15053   0.218   5.444  10.618  0.1911 -0.1651 -0.2017
 1640W        W15054   5.858   3.763   5.197  0.0060  0.0747 -0.1419
 1641W        W15055  16.158   7.483  15.328 -0.0427  0.5197  0.0886
 1642W        W15056   5.320  17.171  13.829 -0.3510  0.0724 -0.1664
 1643W        W15057   7.483   2.262   0.870  0.2034 -0.0061 -0.0661
 1644W        W15058   6.539   6.457  11.081 -0.2917  0.0478 -0.0139
 1645W        W15059   0.469  10.031   2.369 -0.3248 -0.0010 -0.3409
 1646W        W15060  13.719   8.330  12.747  0.1181  0.0883 -0.1129
 1647W        W15061  15.525   6.235   2.135 -0.0885 -0.3201 -0.0907
 1648W        W15062   6.644   5.123  14.482  0.2389 -0.1682  0.1320
 1649W        W15063  13.382   2.310  15.874  0.1160  0.0476  0.0043
 1650W        W15064   9.211  13.142  15.484  0.0758  0.1667  0.1232
 1651W        W15065  15.059   3.759  15.710 -0.0943  0.0564 -0.2397
 1652W        W15066  16.423  18.131  12.962  0.2116 -0.0987 -0.3134
 1653W        W15067   2.181   0.221   2.414  0.1541 -0.1440  0.3173
 1654W        W15068  15.707  12.688  11.797 -0.3812 -0.2922 -0.1099
 1655W        W15069  12.618  12.510   2.183 -0.1680  0.1607  0.0776
 1656W        W15070   4.334   6.456   0.265  0.1470 -0.1116 -0.2093
 1657W        W15071  16.546   5.098  14.016 -0.0335 -0.0018  0.1639
 1658W        W15072  10.320   6.919   1.906  0.0152 -0.0023 -0.0309
 1659W        W15073  15.072  15.653   1.312  0.0392  0.1899  0.3313
 1660W        W15074   8.660   8.870   4.558  0.0113 -0.1320  0.0321
 1661W        W15075  12.741   3.359   2.586  0.0598  0.3804 -0.0114
 1662W        W15076  13.869  10.004   5.853 -0.3863  0.2957 -0.0730
 1663W        W15077  12.710   4.569   5.529 -0.0857 -0.1816  0.2015
 1664W        W15078   2.869   5.004   0.668  0.1042 -0.0361 -0.0061
 1665W        W15079  12.067   0.354  10.689 -0.0904  0.1507 -0.0812
 1666W        W15080   7.208   0.549   0.810  0.0530  0.0792  0.1523
 1667W        W15081  14.648   3.241  10.469  0.2627 -0.0989  0.0107
 1668W        W15082   3.165   9.289  14.110 -0.3250  0.1496  0.0939
 1669W        W15083  10.885   3.930  13.821  0.1891  0.0820 -0.3050
 1670W        W15084   7.831  11.271  16.062  0.0691 -0.3005  0.0520
 1671W        W15085  18.144   8.452   1.238 -0.0472  0.0821 -0.0073
 1672W        W15086   0.624  15.558   6.237  0.2679 -0.0992  0.0088
 1673W        W15087   8.856  12.332  13.124 -0.0866  0.0754  0.1949
 1674W        W15088   0.439   2.693  16.352  0.2772 -0.0916 -0.0048
 1675W        W15089  14.159  12.852  15.605  0.2724 -0.2046 -0.0908
 1676W        W15090   6.306   7.428  14.687  0.0366 -0.2214  0.1803
 1677W        W15091   1.238  17.850   6.078 -0.0000 -0.2028  0.0310
 1678W        W15092  12.413  14.489   3.269 -0.0747  0.0490 -0.0238
 1679W        W15093   6.128   2.593   3.104 -0.3174  0.1870 -0.2655
 1680W        W15094   0.518   0.392   6.259 -0.0414 -0.3079  0.1528
 1681W        W15095   1.761  17.738   1.994  0.1555  0.1909 -0.1046
 1682W        W15096  15.009   3.196  13.409 -0.3291  0.0339  0.1033
 1683W        W15097   6.715   4.214   3.415 -0.0881  0.2671  0.1482
 1684W        W15098  16.520   5.977   1.484  0.3298 -0.1769 -0.1032
 1685W        W15099   6.699  16.436   4.130 -0.0072  0.4358 -0.0436
 1686W        W15100   9.134   9.708   5.041  0.0407 -0.1622 -0.1950
 1687W        W15101   6.141   6.357   1.794 -0.2657 -0.2557 -0.3791
 1688W        W15102  11.533   2.292   3.005 -0.2292 -0.0359  0.0755
 1689W        W15103   7.063  13.828  11.794  0.2608  0.3514  0.3154
 1690W        W15104  12.465   1.681   0.629 -0.2034  0.3172 -0.2659
 1691W        W15105   4.459  15.023   3.348 -0.1060  0.1449  0.0331
 1692W        W15106  10.441  15.917   2.920  0.1840 -0.0191 -0.0468
 1693W        W15107  14.586   7.964  11.799  0.2916  0.0003  0.0536
 1694W        W15108  17.188  14.352  12.939  0.0986  0.4517 -0.0002
 1695W        W15109   7.226  18.111  15.472  0.3915 -0.1708 -0.0862
 1696W        W15110   3.728   0.263   0.371 -0.4518  0.1732 -0.0847
 1697W        W15111  12.675   6.374  12.112  0.1775 -0.1490 -0.0476
 1698W        W15112   2.596   1.151   6.832 -0.0593 -0.2538 -0.1440
 1699W        W15113   1.389  11.958  12.341  0.0297 -0.0485  0.3485
 1700W        W15114   0.322   3.550   2.942 -0.0560 -0.2147  0.0383
 1701W        W15115  12.048   5.173   5.662  0.4799 -0.1113 -0.1445
 1702W        W15116   8.825  12.093   4.369  0.0972  0.0052  0.1031
 1703W        W15117   1.820  15.684  16.353  0.2019  0.0744  0.2203
 1704W        W15118   2.160  16.025   5.166  0.0414  0.1997  0.4145
 1705W        W15119   8.523  14.151  14.213 -0.3784 -0.0730 -0.0128
 1706W        W15120  15.799   0.823   3.574  0.1566  0.0953 -0.0679
 1707W        W15121   5.437   1.758   5.104 -0.0073 -0.0841  0.0219
 1708W        W15122  16.883   4.865  14.434 -0.3384 -0.2466  0.0718
 1709W        W15123   1.431   5.941  12.844 -0.2698  0.0849 -0.2381
 1710W        W15124   3.218  10.228   3.098  0.2656 -0.2763  0.0049
 1711W        W15125   6.989  16.140   4.499 -0.1057  0.2132 -0.0792
 1712W        W15126   3.497  17.730  11.166  0.2194  0.0873 -0.2328
 1713W        W15127   0.906  14.617  15.463 -0.1261 -0.2913 -0.2512
 1714W        W15128  10.363  17.755  12.798  0.4112 -0.0846 -0.0737
 1715W        W15129   2.695   6.988  16.073 -0.1857 -0.1391 -0.0926
 1716W        W15130   1.156  12.527   5.507  0.0809  0.0087  0.2556
 1717W        W15131  15.425   1.977  13.992  0.1481 -0.0182  0.2629
 1718W        W15132  15.922  12.282   5.057  0.2056 -0.1982  0.0296
 1719W        W15133   8.072   2.792   3.967 -0.0991  0.0507  0.0548
 1720W        W15134  12.628  11.007  16.358  0.2637  0.1279 -0.2568
 1721W        W15135  13.232   3.555  11.567 -0.0640  0.0425  0.1266
 1722W        W15136  14.430   0.228  13.131 -0.4344  0.0524 -0.3184
 1723W        W15137   0.822   5.764   4.496 -0.3359 -0.0038 -0.0484
 1724W        W15138   4.496  13.827  15.222 -0.1175 -0.2878 -0.1423
 1725W        W15139  13.549   9.116   2.066  0.3548  0.0469  0.1538
 1726W        W15140   0.446  12.776  11.722 -0.0617  0.3343  0.1780
 1727W        W15141  15.053  14.790  13.866 -0.0082  0.1884  0.2628
 1728W        W15142   1.029   3.020  10.177  0.1163 -0.2677  0.0343
 1729W        W15143  18.098  10.950   0.471  0.4186  0.2851 -0.0292
 1730W        W15144  16.462  12.256   4.043 -0.5030 -0.3469 -0.2449
 1731W        W15145   3.871  16.392   5.040  0.1657 -0.0855  0.0095
 1732W        W15146   7.166  13.683  14.846  0.1092  0.0499 -0.0159
 1733W        W15147  16.844   4.954  15.494  0.2440 -0.2847  0.3185
 1734W        W15148   2.513   3.655  11.698  0.0904  0.3084  0.0877
 1735W        W15149   6.232   9.864   5.790 -0.2140  0.0909  0.0964
 1736W        W15150  10.699   8.120  15.358  0.1335  0.0057 -0.0474
 1737W        W15151  17.462   2.524  16.100 -0.0265 -0.2573  0.3121
 1738W        W15152  12.978  10.231  12.939 -0.0175  0.1140  0.0492
 1739W        W15153  14.318  17.713   4.021  0.1481 -0.0409  0.2178
 1740W        W15154  11.980  11.834  11.939 -0.2012 -0.1375  0.2802
 1741W        W15155  13.061   7.711   0.887 -0.0344  0.1752  0.0505
 1742W        W15156   5.373  17.515   5.111  0.0315 -0.0094  0.2425
 1743W        W15157   9.503   6.611  15.861 -0.0456 -0.0348  0.1848
 1744W        W15158  17.571   0.804   4.366 -0.1193  0.0574 -0.0534
 1745W        W15159   0.847  12.241   6.490  0.1959 -0.1053  0.0821
 1746W        W15160   0.186  15.590  14.264 -0.1920 -0.1499 -0.1360
 1747W        W15161  10.625   0.558  13.702  0.0574  0.2934  0.0739
 1748W        W15162   2.651  10.762   1.222 -0.3993 -0.2309  0.2300
 1749W        W15163   2.629   7.518  13.279  0.2667  0.2964  0.1530
 1750W        W15164   7.899   9.723   1.639  0.2082  0.0719 -0.1676
 1751W        W15165   8.255   2.108  10.754  0.2726 -0.0508  0.1979
 1752W        W15166   8.366  15.537  13.210  0.1879 -0.0010 -0.2035
 1753W        W15167  13.548   5.814   9.891 -0.2589 -0.1478 -0.0634
 1754W        W15168  16.546   0.254   0.296  0.0563 -0.1107 -0.1935
 1755W        W15169   3.807   4.390   2.084  0.1496 -0.1544  0.2789
 1756W        W15170  13.944   0.665   3.890  0.0637 -0.0480 -0.0610
 1757W        W15171   2.573   2.987   5.359  0.0432  0.0910 -0.1438
 1758W        W15172  14.551  13.491  12.900 -0.1356  0.0245  0.1942
 1759W        W15173  17.271  13.010   3.080 -0.0244  0.3769 -0.1087
 1760W        W15174   9.911   4.095   2.292  0.1825 -0.0123  0.2940
 1761W        W15175   2.268   4.601  11.879  0.1697 -0.1459  0.1065
 1762W        W15176   7.054   6.292   3.167 -0.2803  0.0556 -0.2208
 1763W        W15177   2.008  15.042   5.198  0.2314  0.3291 -0.4601
 1764W        W15178   7.809  10.663   6.811 -0.0760  0.1054  0.2108
 1765W        W15179  13.245  14.943  12.784  0.1980  0.1730 -0.1662
 1766W        W15180  16.665   5.549  13.709  0.2828  0.1484  0.2610
 1767W        W15181  16.021  14.576   3.732 -0.3292  0.1076 -0.3390
 1768W        W15182   7.697   3.804  10.640 -0.3084 -0.3138  0.1716
 1769W        W15183   2.721  13.644   1.178 -0.0239  0.0695  0.1200
 1770W        W15184  13.652  12.799  15.259  0.2536  0.1560  0.0401
 1771W        W15185   8.188  16.138  11.564  0.1499  0.0710  0.2103
 1772W        W15186   1.713   9.231  14.284 -0.2087 -0.0424  0.2341
 1773W        W15187  10.141  10.344  10.302  0.0228  0.2455  0.0156
 1774W        W15188  10.976  15.406   4.199 -0.2642  0.1879  0.3885
 1775W        W15189   5.414   9.128   2.173  0.0238  0.0454 -0.1175
 1776W        W15190   8.325  15.450   1.195 -0.0012  0.2067  0.0087
 1777W        W15191   1.176   5.147   0.384  0.2899 -0.2624  0.3062
 1778W        W15192   2.668  17.397  16.052  0.1149 -0.0571  0.0952
 1779W        W15193   2.942   2.606  15.828 -0.0086 -0.0322  0.0643
 1780W        W15194   4.306  14.054  11.735  0.2246 -0.2345 -0.2067
 1781W        W15195  15.761  15.804   6.354  0.1450  0.3100 -0.2109
 1782W        W15196  14.203   4.928   0.948 -0.3073 -0.0462  0.0922
 1783W        W15197   8.960   9.140  14.782 -0.0778 -0.0069  0.1663
 1784W        W15198   5.167  12.947   2.389 -0.0880 -0.0481 -0.0934
 1785W        W15199  17.672   5.962  10.429  0.1228  0.1679  0.2977
 1786W        W15200   7.454  10.722  12.858 -0.1830  0.0690  0.1023
 1787W        W15201   8.892   7.523  14.559  0.0434  0.0092  0.1098
 1788W        W15202   8.861   3.031  12.423 -0.0507  0.1560  0.0540
 1789W        W15203  18.223  15.917  11.999  0.1640 -0.0033 -0.2620
 1790W        W15204   9.383   3.164   0.512  0.2164  0.1752 -0.0230
 1791W        W15205   9.066   5.236  13.838 -0.0484  0.3824 -0.2330
 1792W        W15206  17.732   8.408   4.523  0.0701  0.0069  0.0492
 1793W        W15207  16.668   5.824  16.206  0.1921  0.1946 -0.1850
 1794W        W15208  14.290   7.998  14.906  0.1097  0.2654 -0.0850
 1795W        W15209  11.280  11.516   4.866  0.3255  0.1457 -0.0822
 1796W        W15210   1.903  12.949  15.684 -0.1767 -0.0076 -0.1240
 1797W        W15211   0.340   4.336   2.546 -0.1948  0.0022 -0.2859
 1798W        W15212   5.682  11.661  15.767  0.0835  0.2784 -0.2401
 1799W        W15213  16.462  10.578  13.583  0.1851  0.3083  0.2012
 1800W        W15214  15.791   3.435   3.301  0.1523  0.2120  0.0399
 1801W        W15215   3.363   3.069   4.202  0.3202 -0.2960  0.1705
 1802W        W15216   6.052  11.933   1.470 -0.2932 -0.0850 -0.3378
 1803W        W15217   2.363   3.714  12.226  0.0512 -0.0915 -0.0507
 1804W        W15218   8.913   1.565  13.386  0.0316 -0.2645 -0.2978
 1805W        W15219   0.365   0.019   2.572  0.1806 -0.0227  0.0353
 1806W        W15220   4.870  14.146  10.280  0.0136 -0.2582  0.0646
 1807W        W15221   2.680   4.358   4.268 -0.2452  0.3382 -0.2170
 1808W        W15222  17.657  10.947  14.249  0.1602 -0.1925  0.1118
 1809W        W15223   6.272   5.741  12.401  0.0873  0.1408 -0.0967
 1810W        W15224   9.240   7.434  15.934  0.1844  0.0021 -0.1426
 1811W        W15225  15.698   6.034  16.208  0.1756 -0.1802 -0.1713
 1812W        W15226  16.927  11.432   0.822 -0.0719 -0.1974 -0.1356
 1813W        W15227   5.196  11.281  15.061 -0.0767 -0.0982 -0.2561
 1814W        W15228  17.317  10.183  13.061  0.3166 -0.1133  0.0285
 1815W        W15229  18.092   8.942   1.405 -0.1560  0.2907  0.3657
 1816W        W15230  14.015  16.331  16.482  0.0974  0.1789 -0.3515
 1817W        W15231  10.144   5.838   5.037 -0.1470 -0.1688  0.0445
 1818W        W15232   9.279   0.764   0.845 -0.0819 -0.0625 -0.2112
 1819W        W15233  15.404   5.856  11.517 -0.1065  0.0967 -0.1967
 1820W        W15234   4.368  14.370   2.471  0.4123  0.0679 -0.0264
 1821W        W15235  14.802   9.964  15.936  0.0704 -0.0812 -0.3360
 1822W        W15236   5.839  10.183   0.007  0.1492  0.2892  0.1602
 1823W        W15237  12.988  10.849  14.032  0.1057  0.3468  0.1303
 1824W        W15238   0.283   5.879  16.308 -0.3193  0.1304 -0.1101
 1825W        W15239   7.027  10.467  12.431 -0.0597  0.1489 -0.0766
 1826W        W15240   2.407   1.543   0.501  0.2743 -0.0591 -0.0226
 1827W        W15241  10.165  14.232  12.294  0.1120 -0.0564 -0.2825
 1828W        W15242   7.432   5.541   4.373 -0.1960  0.1183  0.2242
 1829W        W15243   6.715  16.270   0.681  0.2686 -0.3165  0.1208
 1830W        W15244  15.448  12.655  15.100 -0.2361  0.0770 -0.0429
 1831W        W15245  10.963  15.737  13.077  0.1203  0.1303 -0.0243
 1832W        W15246   2.474   2.424  14.801 -0.3194 -0.0173 -0.2176
 1833W        W15247  10.736   8.745   1.739  0.0758  0.0302  0.0002
 1834W        W15248   5.634   5.359  11.075 -0.0966 -0.0902 -0.0562
 1835W        W15249   1.350   5.334  12.178  0.1012 -0.4987 -0.2048
 1836W        W15250   1.445  11.922   3.998  0.0857 -0.0017  0.0719
 1837W        W15251   0.910   2.710   0.034 -0.3114 -0.2000 -0.1813
 1838W        W15252  17.501   8.968   5.757  0.2722 -0.1238 -0.1299
 1839W        W15253  13.573   7.263   2.267  0.0901  0.1877 -0.0233
 1840W        W15254  10.295   1.289  15.749 -0.1763 -0.1054  0.2027
 1841W        W15255   5.962  11.491   1.373  0.1620 -0.1084  0.1393
 1842W        W15256   9.790   0.244  16.425 -0.0130  0.1686 -0.0476
 1843W        W15257  12.700   0.180   1.457  0.0473 -0.3486  0.1332
 1844W        W15258  18.113  13.265   0.205 -0.0806 -0.2061 -0.0018
 1845W        W15259  17.666  10.554  13.202 -0.1516  0.0224 -0.0568
 1846W        W15260   9.651   3.880  11.057  0.0084 -0.1240  0.1406
 1847W        W15261  10.504   8.136   2.407  0.0478 -0.0555  0.0201
 1848W        W15262   2.230   5.150   4.380  0.1519  0.0477  0.1781
 1849W        W15263  12.618   9.737  12.063 -0.0208  0.1238 -0.0181
 1850W        W15264  11.945   0.335   0.504 -0.2494  0.0271 -0.1163
 1851W        W15265   2.719   8.779   5.529 -0.2582  0.5084 -0.2091
 1852W        W15266   2.669   9.486   6.646 -0.1216  0.2539 -0.1117
 1853W        W15267   8.288   3.504   2.496 -0.2539 -0.0612  0.0863
 1854W        W15268   5.684  13.025   2.851 -0.0690  0.0785  0.0370
 1855W        W15269  14.306   4.856  10.776  0.1738 -0.1995  0.2792
 1856W        W15270  13.230  13.405   5.658  0.0942  0.1071  0.0493
 1857W        W15271  15.121  11.248   0.427 -0.0649  0.1116 -0.0601
 1858W        W15272   6.405  12.670  14.465  0.0317 -0.0507 -0.3018
 1859W        W15273   8.491  10.327   2.060 -0.0492 -0.1367 -0.0331
 1860W        W15274   5.987   4.509   1.820  0.2893 -0.1033  0.2426
 1861W        W15275   0.919   0.849  15.105  0.0802 -0.0698 -0.2968
 1862W        W15276  15.181  13.039  12.570  0.1467 -0.0283  0.2183
 1863W        W15277  12.657   7.466  12.799  0.2029  0.0902  0.1467
 1864W        W15278   5.365   6.697   2.646 -0.4165 -0.1889 -0.1713
 1865W        W15279   6.389   8.522   6.166 -0.1879  0.1785 -0.0559
 1866W        W15280  12.260  17.192   1.902 -0.0188 -0.2359  0.3222
 1867W        W15281   1.810  13.309  11.390 -0.0738 -0.1315  0.1773
 1868W        W15282   4.532   9.015  14.169  0.2196  0.1481  0.3886
 1869W        W15283  11.594  17.462   5.884  0.0951 -0.1284 -0.0515
 1870W        W15284  16.752   2.684   4.206  0.1948  0.2010  0.0290
 1871W        W15285   6.002  17.636  15.597 -0.0595 -0.4055  0.0815
 1872W        W15286   1.347  17.501   4.817  0.0031  0.1379 -0.2417
 1873W        W15287   7.297  11.404  16.269  0.0160  0.3176  0.0426
 1874W        W15288   4.467   0.561  13.385 -0.0256  0.0936 -0.2350
 1875W        W15289   2.678  12.611  10.140  0.1407 -0.2062 -0.1796
 1876W        W15290   4.500  13.207  13.530  0.1977 -0.0322  0.0759
 1877W        W15291   2.853   3.837   0.624 -0.1087  0.2334  0.0728
 1878W        W15292  13.428  14.128  14.397 -0.2299 -0.1053 -0.0283
 1879W        W15293   2.339  13.090   3.244 -0.0498  0.0421 -0.0900
 1880W        W15294   6.955   5.485  14.318 -0.0828  0.0262  0.1552
 1881W        W15295   8.738  10.034   4.218  0.2855  0.3278 -0.2090
 1882W        W15296  12.039   4.359  10.842 -0.1169 -0.0395  0.0677
 1883W        W15297  17.378   1.878   1.409  0.1096 -0.1314 -0.3430
 1884W        W15298  16.918   0.351  16.087 -0.3796  0.1118 -0.1680
 1885W        W15299  16.929  13.302   1.248  0.0149 -0.0055 -0.1913
 1886W        W15300   8.350  18.006   0.465  0.0383  0.1079  0.2706
 1887W        W15301   4.610   2.278   4.878 -0.1448  0.0366 -0.4013
 1888W        W15302  10.053  14.311  14.907  0.1470  0.0352 -0.2426
 1889W        W15303   3.403   2.323  14.655  0.0522 -0.0879 -0.0733
 1890W        W15304   6.560   1.890  12.318 -0.1218 -0.0648 -0.1811
 1891W        W15305   9.401  16.536   3.029 -0.1786  0.0613  0.0741
 1892W        W15306  14.989  17.792  13.138 -0.0659  0.1784 -0.0402
 1893W        W15307   6.371   5.391  13.346  0.1111  0.0935  0.3725
 1894W        W15308   7.540  11.819  14.004  0.0776  0.1659 -0.0024
 1895W        W15309  17.341  12.609   4.978 -0.0246  0.0096 -0.0248
 1896W        W15310   5.352   0.116  12.967 -0.3639 -0.1718  0.0459
 1897W        W15311   6.496  10.240   4.766 -0.0738  0.2489  0.1519
 1898W        W15312  15.199   0.192  15.912  0.0065 -0.4435  0.0201
 1899W        W15313  16.575  10.547  11.267  0.0457 -0.2347 -0.0321
 1900W        W15314   6.944   1.982  16.493 -0.1759  0.1654  0.2098
 1901W        W15315   7.294   6.306   6.381  0.3115  0.2487 -0.2414
 1902W        W15316  10.433   4.645   4.188 -0.0731  0.4465 -0.0309
 1903W        W15317   1.876  13.338   0.050 -0.0532  0.0899 -0.0162
 1904W        W15318  11.786  11.513  15.561  0.0289 -0.2431 -0.0449
 1905W        W15319  14.019   4.949  16.018  0.2928 -0.0257  0.1577
 1906W        W15320  14.452  11.457  15.393 -0.2285 -0.3560 -0.0815
 1907W        W15321   9.012   3.654   3.457  0.1678  0.1788 -0.2722
 1908W        W15322  12.338  12.470  14.918  0.1309  0.0283  0.0903
 1909W        W15323  11.100   9.361  11.783 -0.1098  0.1442 -0.2804
 1910W        W15324   6.822   3.521   4.811  0.3894 -0.1352  0.3398
 1911W        W15325   6.699   8.658  14.141 -0.4939 -0.0975 -0.1691
 1912W        W15326   3.074   7.056  12.204  0.0361 -0.0170  0.1886
 1913W        W15327   7.517   0.253   2.130 -0.2156 -0.0291 -0.1307
 1914W        W15328   3.110   7.614   2.160  0.3994  0.1421  0.0635
 1915W        W15329   8.885  12.730  14.115 -0.0933  0.0176  0.2255
 1916W        W15330   6.246  14.291   3.781  0.0727 -0.1368 -0.0555
 1917W        W15331   9.106   4.662   3.761  0.0627 -0.0863  0.2477
 1918W        W15332   3.215   2.946   0.361 -0.0557 -0.1665  0.1561
 1919W        W15333  12.617   4.916   0.745  0.0463 -0.2960 -0.5069
 1920W        W15334  11.201  14.018  14.313  0.0648  0.1253 -0.0957
 1921W        W15335   2.868   8.603   0.340 -0.1537  0.2431 -0.1401
 1922W        W15336   6.090  11.766   6.177  0.0929  0.1447 -0.0606
 1923W        W15337  17.737   5.396  12.174  0.0389  0.0222  0.1002
 1924W        W15338  17.496   4.529   1.772  0.3886  0.2687  0.0854
 1925W        W15339  14.741  17.757  10.755  0.1789 -0.0223 -0.3221
 1926W        W15340  10.142  11.546  15.395 -0.2602 -0.0410  0.0456
 1927W        W15341   1.854   4.544  15.905 -0.0119 -0.0788  0.2844
 1928W        W15342  18.117   7.130   2.504 -0.0614 -0.0215  0.1316
 1929W        W15343   6.591   9.815   0.188 -0.1077  0.0673 -0.0328
 1930W        W15344   6.625   2.133   5.218 -0.0712 -0.3437  0.0355
 1931W        W15345   2.079  11.814   0.993 -0.0585  0.2093  0.1141
 1932W        W15346  13.654   6.308   1.715 -0.1401  0.3532  0.1157
 1933W        W15347  11.718   1.261   3.159  0.1664  0.0281 -0.0246
 1934W        W15348  13.607   6.519  16.137 -0.1036  0.2743  0.3808
 1935W        W15349   9.156  17.128  10.505 -0.2113 -0.3121  0.0883
 1936W        W15350   6.028  14.113   0.656  0.0486  0.1732  0.2035
 1937W        W15351   4.749   3.984  14.308 -0.0082 -0.2387  0.1770
 1938W        W15352  12.596   8.759  15.916  0.1889 -0.4155  0.1622
 1939W        W15353  14.113   1.081   3.706  0.0549  0.0376  0.0862
 1940W        W15354  16.895   2.299  11.767 -0.3248 -0.1456 -0.4192
 1941W        W15355   1.856   5.044  11.126  0.0477 -0.1791 -0.1072
 1942W        W15356   8.087  17.793   5.322 -0.1458  0.2237  0.0852
 1943W        W15357   8.861   4.163  13.366 -0.0068  0.2281  0.0433
 1944W        W15358  12.035   7.925  15.574 -0.3043  0.1337 -0.1044
 1945W        W15359   1.888   5.567  12.192 -0.0972 -0.1091 -0.1733
 1946W        W15360   3.792   2.709   4.178  0.3448 -0.2201 -0.0295
 1947W        W15361   1.320   7.718  15.939  0.3021  0.0957  0.3964
 1948W        W15362  16.774   3.141  14.079  0.0031  0.2908  0.0338
 1949W        W15363   0.632   0.396  12.358  0.0633  0.1255 -0.1894
 1950W        W15364   9.517   0.834   3.248 -0.1709 -0.1219 -0.2667
 1951W        W15365  12.967  15.893   3.677  0.0439 -0.1404  0.1422
 1952W        W15366  17.044  16.454   1.338  0.2111  0.1698 -0.3889
 1953W        W15367   0.589   3.931   2.747  0.1031  0.0299 -0.2916
 1954W        W15368   9.417   5.670  14.806  0.0878 -0.1196 -0.0227
 1955W        W15369   0.689   8.837   1.176 -0.0519 -0.0256  0.2853
 1956W        W15370  10.659   1.244   1.499 -0.0959  0.0417 -0.0346
 1957W        W15371   1.627  15.335  15.776  0.1271 -0.1412 -0.0380
 1958W        W15372  12.623  15.879  10.344 -0.2707  0.2121  0.0595
 1959W        W15373   7.066  13.318   4.822  0.0403 -0.1117 -0.2892
 1960W        W15374  14.310  17.560  12.093  0.0976 -0.1699 -0.0599
 1961W        W15375  10.564  15.692   3.474 -0.0403  0.2732  0.1921
 1962W        W15376   2.262   7.813   2.464 -0.1927  0.3393 -0.2328
 1963W        W15377  17.508  12.567  11.313 -0.1979  0.0316  0.2450
 1964W        W15378   2.867  16.358  14.822 -0.0096  0.1896  0.4976
 1965W        W15379   6.846  14.126   3.383  0.1534 -0.0227 -0.2243
 1966W        W15380  15.058   1.086  12.642  0.2785  0.3706  0.0717
 1967W        W15381   6.050  14.875  16.086 -0.2567 -0.0364 -0.4798
 1968W        W15382   6.959  17.774   4.228  0.1452 -0.2492  0.0545
 1969W        W15383   2.251  13.412  15.440 -0.0721  0.1504 -0.3658
 1970W        W15384   9.127  17.323  13.955 -0.1573  0.0762 -0.1466
 1971W        W15385  11.577  11.611  16.440  0.2583 -0.1406  0.1150
 1972W        W15386  13.019   1.246  11.910  0.1774  0.0260  0.0606
 1973W        W15387  11.386   6.342  13.690 -0.0333  0.0620  0.0294
 1974W        W15388   5.957  13.518   4.476 -0.2808 -0.0519 -0.1849
 1975W        W15389   8.340   4.077  10.318 -0.0101 -0.1711  0.4584
 1976W        W15390   7.128   5.559  12.772  0.1657 -0.2132  0.3512
 1977W        W15391   6.065  10.586   0.368 -0.2934 -0.0756 -0.1776
 1978W        W15392  11.955  16.988  14.807 -0.1059  0.0347  0.1636
 1979W        W15393  18.028  17.579  15.839  0.2839  0.2890 -0.1930
 1980W        W15394  12.782  15.118   1.132 -0.1540  0.1897  0.0984
 1981W        W15395   5.627   3.498   0.901  0.2316 -0.1464  0.0247
 1982W        W15396   4.575   5.776  12.518 -0.0455 -0.2416  0.0088
 1983W        W15397   3.541   7.211  15.835  0.0609 -0.1004 -0.0692
 1984W        W15398  10.072  16.111   1.566  0.3457  0.0013 -0.1262
 1985W        W15399   1.582   4.197   4.869  0.3839  0.1843 -0.1496
 1986W        W15400  10.514  15.591  13.099  0.1363  0.1712 -0.0625
 1987W        W15401   2.627  11.679  11.818 -0.0209 -0.4759 -0.0393
 1988W        W15402   3.680  14.973   0.868 -0.0274 -0.0873 -0.1238
 1989W        W15403  13.664  16.075  10.434  0.3953 -0.0457 -0.3227
 1990W        W15404   6.310   6.982  14.977 -0.2780  0.1039  0.3147
 1991W        W15405  18.164   0.892  13.810  0.0842 -0.1937  0.1019
 1992W        W15406   5.158   9.640  13.200  0.1868  0.4230  0.1617
 1993W        W15407   1.991   8.677  15.506  0.0847 -0.0876  0.3224
 1994W        W15408   2.585  15.785   5.021 -0.1732 -0.2878 -0.5018
 1995W        W15409   3.761   4.181  15.349 -0.0527 -0.2349 -0.1448
 1996W        W15410  16.947  15.157  12.259 -0.0599 -0.2228 -0.1132
 1997W        W15411  17.032   0.662   0.093 -0.0123 -0.3089  0.1250
 1998W        W15412  12.373   2.947   3.318  0.2632 -0.0887  0.0219
 1999W        W15413  12.579   4.623  15.004  0.0852 -0.1495 -0.3152
 2000W        W15414   9.318   2.950   4.733  0.0883  0.4531  0.1756
 2001W        W15415   6.643   0.133  15.172 -0.1773  0.2566  0.3641
 2002W        W15416   0.333  13.890  12.490  0.1198 -0.0419 -0.0685
 2003W        W15417  16.054   0.932  10.449  0.1168  0.2139 -0.1599
 2004W        W15418  18.082   9.403   1.616 -0.0357 -0.2334 -0.0979
 2005W        W15419  11.382   1.906   4.978  0.3559 -0.1741  0.1282
 2006W        W15420   5.329   8.640   0.473 -0.4414 -0.0267  0.0939
 2007W        W15421   8.084  11.062   3.572 -0.0143  0.0475 -0.0279
 2008W        W15422  16.979  10.491   4.648  0.1589  0.3935 -0.0957
 2009W        W15423  16.474  13.990   4.940  0.1517 -0.0257  0.1018
 2010W        W15424   4.233  14.191   1.316  0.2196  0.0940  0.1955
 2011W        W15425   3.868   3.878  13.156 -0.2733 -0.0944  0.0361
 2012W        W15426  16.664  12.707   5.137 -0.0832  0.0862 -0.1571
 2013W        W15427   8.336   2.496   3.662 -0.0040  0.0087 -0.1104
 2014W        W15428   4.013   9.467  12.200  0.3096 -0.0486  0.3467
 2015W        W15429  12.260  10.482   0.439  0.2336  0.0151 -0.1542
 2016W        W15430   4.405  11.088  14.551  0.2132 -0.2175 -0.1099
 2017W        W15431   4.019  16.798  14.143  0.1886  0.0379  0.2376
 2018W        W15432  18.103   5.039   1.362 -0.2626  0.2933 -0.1108
 2019W        W15433  12.238   6.508   1.863  0.2547  0.1142 -0.2088
 2020W        W15434  10.931   4.476   2.366 -0.0045  0.3061 -0.0943
 2021W        W15435   7.319   7.706   3.455 -0.0207 -0.1084 -0.3812
 2022W        W15436   7.637   6.434  14.968 -0.0961  0.0572 -0.0883
 2023W        W15437   9.744  16.456   1.731  0.3556 -0.0882 -0.0167
 2024W        W15438   1.150   5.809  13.268  0.4202  0.0582  0.0893
 2025W        W15439  13.059  10.175  11.549  0.2163 -0.3136 -0.1162
 2026W        W15440  14.271  12.864  13.542 -0.1992  0.0999 -0.0058
 2027W        W15441   0.681   1.221   4.302  0.3809  0.2034  0.3721
 2028W        W15442  12.464  13.031  14.029 -0.0243  0.1252 -0.0923
 2029W        W15443  17.345  11.211  15.725 -0.1610  0.0177  0.0936
 2030W        W15444  17.461   8.599   3.924  0.1315  0.1611  0.0221
 2031W        W15445  12.990  15.924   1.457  0.1348 -0.1139  0.1877
 2032W        W15446   1.156   7.984  11.871  0.0461  0.0375  0.1163
 2033W        W15447   1.737   3.114  13.972 -0.2076  0.1435  0.3230
 2034W        W15448   2.888  16.916  16.049 -0.0537  0.2997  0.3444
 2035W        W15449   6.190   6.060  16.175  0.1699 -0.2024 -0.0664
 2036W        W15450  14.457   5.254   2.123  0.1690 -0.0537 -0.1022
 2037W        W15451   5.763   2.650  10.697  0.1451 -0.3571  0.1475
 2038W        W15452   9.916   1.594   0.282 -0.1077  0.0620 -0.2471
 2039W        W15453   5.061   2.039  12.023 -0.2136  0.0973  0.3001
 2040W        W15454  15.534   9.513   5.302  0.0224 -0.0910 -0.1583
 2041W        W15455  18.102   6.781   4.444  0.2396  0.0981  0.1815
 2042W        W15456  12.938   7.477   2.919  0.0651  0.1658 -0.0830
 2043W        W15457  16.652   0.824   6.070  0.1242 -0.1692  0.1108
 2044W        W15458   6.538   3.106  11.412 -0.1803  0.1786 -0.0020
 2045W        W15459   1.511   4.020  10.315 -0.0548  0.2214  0.1991
 2046W        W15460   9.046   7.210   3.008 -0.2397  0.0359 -0.2170
 2047W        W15461   0.256  11.384   3.596  0.0183 -0.1951  0.3009
 2048W        W15462   0.496   1.225  15.895 -0.2364  0.0186  0.2663
 2049W        W15463  14.658   7.804   3.094 -0.1950 -0.2896 -0.0843
 2050W        W15464  10.238  17.603   2.187  0.2749 -0.0138 -0.0654
 2051W        W15465   4.042  11.699   2.323 -0.1927 -0.0051  0.1353
 2052W        W15466   5.799   7.367   3.019 -0.3879 -0.0579  0.1311
 2053W        W15467  14.122  13.971  16.083 -0.0952  0.0978  0.0192
 2054W        W15468  14.360   3.922  10.967 -0.2949  0.1966 -0.1688
 2055W        W15469   4.881   5.633   4.967 -0.1816  0.2557 -0.4353
 2056W        W15470  10.378  13.885  13.120 -0.0325 -0.2274 -0.0817
 2057W        W15471   3.141  11.051  11.500 -0.3670  0.0714  0.0708
 2058W        W15472   3.361  13.855   4.953 -0.2530 -0.0851  0.1643
 2059W        W15473   5.584   2.830  14.236  0.0431 -0.0711  0.2124
 2060W        W15474   8.801   1.106  15.528 -0.3990 -0.2749 -0.3513
 2061W        W15475   6.254   9.626   5.345 -0.2606  0.1862 -0.2082
 2062W        W15476   8.880   7.366  11.924 -0.1341 -0.0271  0.1285
 2063W        W15477   2.574   2.427  13.519  0.0411  0.0163  0.2533
 2064W        W15478   8.881   1.866   5.816  0.2674  0.1356 -0.4518
 2065W        W15479   4.828   2.971   4.367 -0.2887  0.0471  0.2463
 2066W        W15480  16.134   2.381  13.504 -0.1034 -0.1596  0.0096
 2067W        W15481   4.515   9.947  11.586  0.1088 -0.2852  0.3493
 2068W        W15482   7.857  15.323   4.604  0.1791  0.1274  0.3935
 2069W        W15483   3.265  17.289  11.210 -0.0010  0.2675 -0.0561
 2070W        W15484   4.829  14.215   2.580  0.0959 -0.1259  0.0144
 2071W        W15485  13.767   4.150  11.030 -0.1649 -0.4630  0.0245
 2072W        W15486   7.598   1.654   3.499 -0.1225  0.3223 -0.0598
 2073W        W15487   4.245   9.086  15.223  0.1562 -0.1205 -0.0175
 2074W        W15488   4.607  10.634   4.736 -0.0161  0.1101 -0.0726
 2075W        W15489  11.213   7.878  12.952 -0.0307 -0.3248 -0.0092
 2076W        W15490   1.984   6.617  14.378 -0.1639  0.3104 -0.0130
 2077W        W15491   5.849   4.321   3.724 -0.2202  0.0325  0.0422
 2078W        W15492   1.129  14.797  13.896 -0.1197 -0.1452  0.1704
 2079W        W15493   6.995  11.584   3.886 -0.1051 -0.0999  0.0630
 2080W        W15494   3.212   7.692   1.174 -0.0275 -0.3385  0.2359
 2081W        W15495  12.488   3.408   4.847 -0.4414 -0.1228  0.0041
 2082W        W15496   9.468   9.791   3.653 -0.0555 -0.3738 -0.1268
 2083W        W15497   2.960   8.729  16.295  0.2827  0.2270 -0.1502
 2084W        W15498   5.516  17.023   5.162  0.2444 -0.0771  0.1591
 2085W        W15499  15.396  18.033  12.714 -0.0934  0.1327 -0.0501
 2086W        W15500   5.327   5.130  12.675 -0.3536 -0.2741  0.1639
 2087W        W15501   2.377   2.572  14.021 -0.1618 -0.1841 -0.4454
 2088W        W15502   4.272  11.103   1.399  0.3002 -0.1679 -0.0951
 2089W        W15503  17.492  14.320  14.342  0.0687 -0.1329 -0.1225
 2090W        W15504   7.639   7.450   5.314  0.0229 -0.0746 -0.3891
 2091W        W15505  13.465  14.612   2.247  0.0198 -0.1001  0.0050
 2092W        W15506   0.372  15.073   1.486  0.1902 -0.0813 -0.0932
 2093W        W15507   5.628   5.379  11.691 -0.1263  0.1919  0.3463
 2094W        W15508   8.481  12.702  15.633 -0.3766 -0.3530 -0.0515
 2095W        W15509  16.963  11.668  15.147  0.0194  0.1669 -0.3084
 2096W        W15510  13.853  18.082   3.044  0.0495  0.0589  0.1711
 2097W        W15511   4.444   5.273   3.428 -0.2616  0.1896 -0.2958
 2098W        W15512   6.123  12.142   3.788 -0.3203 -0.0022 -0.0624
 2099W        W15513  15.002   7.690  11.149  0.1305 -0.2244  0.1479
 2100W        W15514  10.790   1.728  15.276  0.2250  0.1337  0.1021
 2101W        W15515  15.562  14.501  11.177  0.0068 -0.2265  0.0104
 2102W        W15516  18.132   8.830  15.877  0.1778 -0.0073 -0.0264
 2103W        W15517  17.969  11.605  11.241  0.1614  0.0001  0.1430
 2104W        W15518   5.813   0.779   0.248  0.0229 -0.0603 -0.1664
 2105W        W15519   8.162   3.741  12.177 -0.0592 -0.1573  0.1741
 2106W        W15520  14.810  16.657  12.435 -0.0148  0.2764  0.1831
 2107W        W15521   0.696  18.161  11.159 -0.2544  0.0097  0.3344
 2108W        W15522   1.049   6.175   5.692  0.0507  0.1083  0.2299
 2109W        W15523  16.592   7.330  14.752  0.2520 -0.3350  0.0028
 2110W        W15524   2.367   5.996  10.256 -0.0414  0.1878 -0.0179
 2111W        W15525   9.479   4.397  12.744  0.2671 -0.3196 -0.1197
 2112W        W15526   8.980   8.527  15.549  0.0854  0.1473  0.1136
 2113W        W15527   0.537   5.386  12.067  0.3143 -0.1110 -0.1764
 2114W        W15528  14.362  11.530   2.136  0.0040 -0.0546 -0.0682
 2115W        W15529   8.039  17.495   4.550  0.1376 -0.0074 -0.1182
 2116W        W15530   8.315   6.014   4.250  0.3750  0.0570  0.2160
 2117W        W15531  16.328   9.569   5.462  0.0822 -0.0515 -0.3524
 2118W        W15532   9.536   7.366   3.098  0.0432 -0.0597  0.0896
 2119W        W15533   1.294  17.516   5.710 -0.0657 -0.1966  0.0215
 2120W        W15534   4.860   6.521  12.985 -0.0506 -0.0666  0.2316
 2121W        W15535   9.932   5.028   4.309 -0.0100 -0.0867 -0.1584
 2122W        W15536   0.402   4.314  12.046  0.3377 -0.2562  0.0998
 2123W        W15537   7.509  12.705  15.300  0.0828  0.1543 -0.2718
 2124W        W15538  12.215   7.844   2.340  0.0748  0.0897  0.3311
 2125W        W15539  14.324  11.482  11.076 -0.0689 -0.0886 -0.1752
 2126W        W15540  17.369  12.223  14.239  0.0459  0.1518 -0.0579
 2127W        W15541   7.202   1.990  10.768 -0.0552  0.0538 -0.0851
 2128W        W15542  16.341   8.615   1.479  0.0370  0.1370 -0.1981
 2129W        W15543   7.844   4.160   5.223  0.0160 -0.4279  0.1207
 2130W        W15544   8.965  16.984  15.363 -0.0749 -0.1233 -0.0769
 2131W        W15545  11.308  17.547   4.096 -0.1173 -0.0782  0.2244
 2132W        W15546   5.494  14.759   2.172 -0.0723  0.0938  0.0820
 2133W        W15547   5.560  16.433  15.201 -0.1824 -0.0342 -0.1127
 2134W        W15548  13.462   1.566   1.540 -0.0340  0.0176 -0.5754
 2135W        W15549   5.783  15.161  10.136 -0.0081 -0.0963 -0.1919
 2136W        W15550   2.096  16.924  12.344 -0.0915  0.1198  0.0974
 2137W        W15551   5.661   4.929  14.506 -0.1280 -0.0370 -0.1219
 2138W        W15552   1.969   9.597  16.022 -0.3161 -0.0410  0.1497
 2139W        W15553   6.876  13.506  11.397 -0.2221  0.0381 -0.1731
 2140W        W15554  12.467   9.100   4.005 -0.1487  0.0856 -0.0253
 2141W        W15555   6.853   3.320   1.928  0.2252  0.3220 -0.3120
 2142W        W15556  10.325  14.504  15.328 -0.0501  0.4363  0.0542
 2143W        W15557  12.602   1.157  15.335 -0.0043 -0.0599  0.1683
 2144W        W15558   4.535   0.736   0.346  0.1666 -0.1519 -0.2849
 2145W        W15559  16.543  17.349   5.854 -0.0061 -0.1046  0.1887
 2146W        W15560   1.334   1.076  14.640  0.2445  0.0407  0.1712
 2147W        W15561   3.182   2.729  13.083  0.2264 -0.0907  0.3868
 2148W        W15562   8.435   7.854   0.699 -0.0554  0.0716  0.2818
 2149W        W15563  16.803  10.136   1.731  0.0111  0.1543  0.1197
 2150W        W15564  11.654   9.000  14.240 -0.1453 -0.3028 -0.0061
 2151W        W15565   1.739  10.021  15.744  0.1045 -0.0806  0.2458
 2152W        W15566  11.151  13.115  13.068 -0.0750  0.2149 -0.0225
 2153W        W15567  16.734   9.268  13.293  0.2983  0.0823 -0.2335
 2154W        W15568   0.237   1.572  12.415  0.1781  0.0031 -0.1445
 2155W        W15569   2.164   7.622   5.295  0.0870 -0.2027  0.3778
 2156W        W15570  16.491   8.844   0.980  0.1007  0.1074 -0.1318
 2157W        W15571   9.120   6.089   4.651  0.0356 -0.0034 -0.4676
 2158W        W15572  14.364   2.822   2.629 -0.1696  0.1301 -0.1189
 2159W        W15573  16.409  16.077   0.145  0.1000  0.1260  0.1548
 2160W        W15574   5.835   8.466  12.834  0.0008  0.2341 -0.1545
 2161W        W15575   7.130   9.431  13.438 -0.3938 -0.0114  0.0044
 2162W        W15576   5.061  15.148  15.324 -0.1922  0.0510 -0.1687
 2163W        W15577   6.604   0.552  13.694  0.1023  0.1952  0.0955
 2164W        W15578  15.632   1.350  15.728  0.2374 -0.0920  0.2354
 2165W        W15579  14.617   0.482   1.982  0.0335 -0.1350  0.0242
 2166W        W15580  17.714   5.736   1.954  0.0231 -0.3118  0.2598
 2167W        W15581  10.769  13.401  11.801 -0.1038  0.0133  0.0517
 2168W        W15582  16.791   6.231   1.885 -0.2014 -0.1767 -0.0663
 2169W        W15583  10.402   4.536  14.068 -0.0408 -0.0304  0.0775
 2170W        W15584   8.261  15.820   2.615 -0.0587 -0.1176 -0.0565
 2171W        W15585  16.247   9.648  13.744 -0.3290 -0.1792 -0.0734
 2172W        W15586  15.791   1.279   1.200 -0.2318 -0.2508 -0.4763
 2173W        W15587  18.137  10.145   4.802  0.2535  0.3535  0.2443
 2174W        W15588  17.778  11.928  11.895  0.0602  0.1734  0.0982
 2175W        W15589  10.370   2.704   1.356 -0.1266  0.0119  0.2434
 2176W        W15590   7.438   3.626  16.131 -0.1822 -0.1442  0.0422
 2177W        W15591   6.202   9.887  13.905 -0.1770 -0.1239 -0.0529
 2178W        W15592   2.898   6.596  12.228 -0.2447 -0.0006  0.0199
 2179W        W15593  16.463  16.485  10.757 -0.0686 -0.3258 -0.0496
 2180W        W15594   6.205   3.015  12.065  0.2045  0.3108  0.1102
 2181W        W15595  11.678  14.429   2.102  0.1691  0.0244  0.1435
 2182W        W15596   5.033   1.996   4.813  0.0546 -0.0618 -0.1529
 2183W        W15597  17.479   6.393   0.687 -0.1362 -0.1126  0.1458
 2184W        W15598  16.154   3.213   9.911 -0.3581  0.0230 -0.0993
 2185W        W15599  12.988   5.545  10.559 -0.1909  0.0715 -0.1882
 2186W        W15600  15.459  15.030   4.735  0.1490 -0.3342 -0.2421
 2187W        W15601   4.110   0.191   3.147 -0.2985  0.2851 -0.0045
 2188W        W15602   7.405  10.356   0.167  0.0376 -0.0495 -0.1324
 2189W        W15603  12.198  15.888  15.993 -0.1725  0.1688  0.0710
 2190W        W15604   2.714  11.151   4.080 -0.1716 -0.0617 -0.1191
 2191W        W15605   1.933  12.711   5.120 -0.0397  0.1494  0.0625
 2192W        W15606   9.544   7.285   4.446 -0.3181  0.0718  0.1892
 2193W        W15607   8.944   0.205  12.843 -0.1007  0.0025  0.0645
 2194W        W15608   7.654   0.426  12.147  0.1084 -0.1526 -0.1464
 2195W        W15609  13.570   7.486  14.573 -0.1978  0.1051 -0.3668
 2196W        W15610  11.394   1.358  14.547 -0.0350  0.0576 -0.0372
 2197W        W15611  16.819   2.628   6.302 -0.2304 -0.0342 -0.1904
 2198W        W15612   1.953   9.655  12.161  0.0866  0.1639 -0.0527
 2199W        W15613   3.050   7.579   3.986 -0.1259 -0.0294  0.2017
 2200W        W15614   6.329  14.238  12.489  0.0744  0.1011  0.0078
 2201W        W15615   4.078  12.571  14.473  0.0715  0.1665  0.1788
 2202W        W15616   4.953   5.671   2.067  0.0820  0.3009 -0.1509
 2203W        W15617   7.876  12.863  15.705 -0.0780  0.2510 -0.1070
 2204W        W15618  15.512   9.683  12.396 -0.0100 -0.2181  0.0651
 2205W        W15619   0.254  18.154  13.308 -0.0805  0.2692  0.0664
 2206W        W15620  10.740  17.650   4.540  0.0366 -0.0969 -0.1663
 2207W        W15621   4.783  17.371   2.408 -0.0855  0.1485 -0.0905
 2208W        W15622   0.302   6.614  14.471  0.1445  0.0597 -0.1036
 2209W        W15623   2.347   7.516   2.966  0.2641 -0.4383 -0.0845
 2210W        W15624  14.468   7.118   3.294  0.1833 -0.1685 -0.0638
 2211W        W15625  17.878   6.687  11.575  0.1168 -0.0324  0.0460
 2212W        W15626   7.741  14.496  15.193 -0.0839 -0.0181  0.3649
 2213W        W15627  14.892  10.196  12.964  0.3114 -0.1872  0.1756
 2214W        W15628  13.831   7.144  12.281  0.1090 -0.0172 -0.0277
 2215W        W15629   3.455  10.445  15.901 -0.0261 -0.0324 -0.2302
 2216W        W15630  11.075   6.304  11.063 -0.2015  0.4436  0.0994
 2217W        W15631   3.967  17.854   4.545  0.4126  0.1919 -0.0975
 2218W        W15632   3.911   6.535  14.745  0.0676 -0.0372 -0.1708
 2219W        W15633  14.311  11.056   2.244  0.0058  0.0424 -0.0435
 2220W        W15634  13.878   9.773   3.148 -0.3471  0.0386  0.2394
 2221W        W15635   4.403  17.854  13.413 -0.1084  0.2970 -0.1007
 2222W        W15636   4.705  16.647  14.591 -0.0867 -0.1352  0.3400
 2223W        W15637   3.785   3.672   1.800 -0.1184 -0.1635 -0.0738
 2224W        W15638   2.725   0.661  11.139 -0.3115 -0.0442 -0.1264
 2225W        W15639  15.267  10.875  14.532  0.0623  0.0645  0.0050
 2226W        W15640  13.086   8.065  10.707 -0.1766 -0.0255 -0.0068
 2227W        W15641  10.488  11.929   0.883  0.0467  0.1371 -0.0262
 2228W        W15642   1.331   3.992   4.454 -0.4276  0.2181 -0.2272
 2229W        W15643  15.025   4.931  16.090 -0.3421 -0.0666  0.0712
 2230W        W15644   6.422   8.927   4.325 -0.1558 -0.0840 -0.0097
 2231W        W15645   1.847   1.063  11.210 -0.1873  0.0207  0.0118
 2232W        W15646   5.844   4.857   6.007 -0.1179 -0.2231  0.1222
 2233W        W15647   9.292   6.857   0.177  0.3095 -0.0888 -0.1305
 2234W        W15648   8.852   6.840   0.522  0.2134  0.0110  0.0129
 2235W        W15649   9.184  11.816   2.727  0.1153  0.2356 -0.1399
 2236W        W15650   0.332   4.055   9.701 -0.0214 -0.1707 -0.0952
 2237W        W15651  14.114   2.672  15.935  0.0975  0.0710 -0.2100
 2238W        W15652   3.754   5.102  14.953  0.2106 -0.0989 -0.0800
 2239W        W15653   3.622  17.198  10.231 -0.0226  0.1442  0.3269
 2240W        W15654   6.697   2.318  11.567 -0.0636  0.1645  0.0481
 2241W        W15655  17.943  10.265  14.931  0.0762 -0.1051 -0.0900
 2242W        W15656   8.163   4.225   4.458 -0.0755  0.0424 -0.2823
 2243W        W15657   4.237   6.934  12.659  0.1118  0.0181  0.1831
 2244W        W15658   1.823  13.422   4.063 -0.0739  0.1261  0.3524
 2245W        W15659   7.773   6.913  15.121 -0.1046  0.3369 -0.1123
 2246W        W15660   3.498  10.245   1.146 -0.0626 -0.2339 -0.1314
 2247W        W15661   4.079   7.314  14.378 -0.0574 -0.1679  0.1291
 2248W        W15662  14.202   2.745   2.136 -0.0234  0.0282  0.0791
 2249W        W15663   1.753   7.243   0.246  0.2699 -0.1783  0.0849
 2250W        W15664   2.169  15.508   5.281 -0.0313 -0.1156 -0.1090
 2251W        W15665   9.555   1.684   1.734  0.1291  0.1955  0.1885
 2252W        W15666   5.699   9.298  13.920 -0.0429  0.0229  0.1327
 2253W        W15667   7.598   2.144  11.679 -0.2871 -0.0138 -0.0241
 2254W        W15668   7.877   5.510  15.796 -0.3502  0.0301 -0.2440
 2255W        W15669   0.884  11.533  15.291  0.2922  0.0860  0.0203
 2256W        W15670   2.185  14.962  12.844  0.2752 -0.0640  0.0842
 2257W        W15671  16.484   1.683  11.940 -0.2168 -0.1068  0.0644
 2258W        W15672  12.258  18.077  11.173  0.1031  0.0112 -0.0807
 2259W        W15673  12.451   1.403   1.109  0.1434 -0.3609 -0.0552
 2260W        W15674   7.853  15.441  16.323 -0.4347 -0.3534 -0.0266
 2261W        W15675   0.113  10.752   6.479  0.4140  0.1775 -0.4853
 2262W        W15676   0.751  15.924  13.748 -0.0883 -0.2529 -0.1030
 2263W        W15677   5.755  16.649  15.595  0.2117 -0.0167  0.2006
 2264W        W15678  13.177   7.234  12.029  0.0964  0.0165  0.1465
 2265W        W15679   5.569  13.983  15.851 -0.0153 -0.0440 -0.0606
 2266W        W15680  16.737   4.122  15.623  0.1900 -0.0855  0.0744
 2267W        W15681   2.196  12.042  15.507  0.2068  0.1909  0.1151
 2268W        W15682   5.919   5.945   1.713  0.1840 -0.1101  0.0177
 2269W        W15683  18.230  16.523   4.281 -0.1257 -0.0950 -0.0560
 2270W        W15684   9.362  11.379  13.068  0.2750 -0.0762  0.1193
 2271W        W15685  17.945  16.440  13.374 -0.0930  0.1520 -0.0162
 2272W        W15686   3.879  14.536  10.599 -0.0700  0.2121  0.4738
 2273W        W15687   2.977  16.311  15.465 -0.2839 -0.0083 -0.2941
 2274W        W15688  12.976  15.790  12.709 -0.3527  0.1977 -0.2195
 2275W        W15689   1.001   9.754   5.443  0.0908 -0.2784 -0.1905
 2276W        W15690  10.990   9.679  13.936  0.0837  0.0253  0.0049
 2277W        W15691   1.841   2.407   1.063  0.3411  0.1804  0.2788
 2278W        W15692  17.715  17.040  12.648 -0.1541 -0.2431  0.1439
 2279W        W15693  17.472   9.833   2.405  0.1331 -0.1567  0.0500
 2280W        W15694  11.034  10.972   1.722 -0.0309 -0.0010  0.4592
 2281W        W15695  17.409  14.219  12.314 -0.0740 -0.2822  0.0260
 2282W        W15696   9.208  11.825  13.923  0.1711  0.2444  0.3281
 2283W        W15697   6.847  11.732   5.575 -0.0714  0.1468  0.2608
 2284W        W15698  16.552  15.393   0.405  0.3836  0.2175 -0.0417
 2285W        W15699   1.713  17.842   1.494 -0.3042  0.0350 -0.0926
 2286W        W15700  10.593   6.897  11.749 -0.1602  0.2245 -0.0291
 2287W        W15701   3.573  10.358  13.008  0.1304 -0.1713  0.2160
 2288W        W15702   3.359  11.456  15.889 -0.0640 -0.0509  0.0210
 2289W        W15703   3.901   9.421  12.685  0.2409 -0.0247 -0.0434
 2290W        W15704  15.036   7.933   5.330  0.3304  0.1642 -0.1971
 2291W        W15705   2.298   2.178  10.859  0.1188  0.1198  0.1621
 2292W        W15706   1.346  16.672  15.731  0.1780 -0.1479  0.1531
 2293W        W15707  11.288  12.492  15.440 -0.1527  0.2152  0.0512
 2294W        W15708  13.407   6.093   5.968  0.1258  0.0493 -0.3284
 2295W        W15709   8.766   7.419  13.374  0.1895  0.2224  0.0209
 2296W        W15710   3.621  17.736  15.649 -0.3075 -0.1751 -0.2098
 2297W        W15711   7.781   0.655  10.919 -0.1993  0.2277  0.2973
 2298W        W15712  11.522   1.937   5.467  0.1049 -0.0548  0.3449
 2299W        W15713   1.192   3.989  13.246  0.0800 -0.1534 -0.1386
 2300W        W15714   4.073   8.637   5.860  0.0407  0.0384 -0.1370
 2301W        W15715   5.578   3.823   2.583 -0.0600  0.0852  0.0444
 2302W        W15716   5.653  17.776   3.374 -0.0240 -0.1735 -0.2681
 2303W        W15717   4.369   3.188   5.084 -0.5359  0.0878  0.3102
 2304W        W15718  14.180  10.666  14.787 -0.4439 -0.0166  0.1980
 2305W        W15719   4.765  11.361   4.659  0.0864 -0.3130 -0.0545
 2306W        W15720  10.614  15.486  15.350  0.1264 -0.0774  0.1175
 2307W        W15721   6.830   9.669   5.495 -0.1389  0.0453  0.2573
 2308W        W15722  13.697  17.037  14.990 -0.1389  0.2169  0.0061
 2309W        W15723  15.739   1.538  15.237  0.2234  0.1665 -0.2959
 2310W        W15724  17.198  12.522   4.276 -0.3226 -0.0757 -0.0404
 2311W        W15725   6.629  16.944  10.845 -0.0291  0.0239 -0.2781
 2312W        W15726  13.957  11.495  15.680 -0.0995 -0.2555 -0.0040
 2313W        W15727  14.241  16.318  13.860  0.1098  0.1203  0.1211
 2314W        W15728   5.038   2.141  15.111  0.4170  0.1608  0.1264
 2315W        W15729  10.058   9.426  12.996  0.2679 -0.3442 -0.1843
 2316W        W15730  17.312   8.897  16.390  0.0597  0.0726 -0.3436
 2317W        W15731  10.359   5.925  12.813 -0.0743 -0.0577  0.0229
 2318W        W15732  12.214  17.645  10.432 -0.0805  0.0757  0.3044
 2319W        W15733   2.716   7.426   4.893  0.0074 -0.0909 -0.0346
 2320W        W15734   1.274   3.066  11.844  0.2789 -0.2450  0.0260
 2321W        W15735  17.993   7.472  15.842  0.2253  0.3742  0.0980
 2322W        W15736   5.075   3.708  14.013  0.1211  0.1976  0.0520
 2323W        W15737   1.676  17.245  11.713  0.3715 -0.1086 -0.0541
 2324W        W15738   4.377  18.188  11.984 -0.0305 -0.1574 -0.3637
 2325W        W15739   0.617   2.265  15.769  0.0418 -0.0603 -0.1063
 2326W        W15740   7.621   6.075   3.229 -0.0692 -0.1845  0.0474
 2327W        W15741  16.900  14.721   5.012  0.1958 -0.0756 -0.0374
 2328W        W15742  12.935   6.059   6.248  0.1158 -0.4225 -0.1439
 2329W        W15743   4.109   2.132  12.165 -0.1415  0.1120 -0.0396
 2330W        W15744  13.367  11.047   3.580 -0.4390 -0.3460  0.3553
 2331W        W15745   7.962   4.310   0.338  0.0202 -0.0153 -0.0254
 2332W        W15746  13.233  15.764  13.250  0.2919 -0.0893 -0.1511
 2333W        W15747   1.181   6.774   1.413  0.1107 -0.0040  0.2194
 2334W        W15748   9.890  16.461  15.288  0.4655  0.2954 -0.0147
 2335W        W15749   9.298   1.153  14.206 -0.1118  0.1551 -0.1820
 2336W        W15750   9.784   2.232  12.324 -0.1780 -0.0422  0.0435
 2337W        W15751  12.902   1.750  12.288  0.2353 -0.2378  0.0103
 2338W        W15752  15.904  13.939  16.343  0.1155  0.1003  0.0139
 2339W        W15753   3.140   0.690   5.064  0.0605  0.1939  0.1188
 2340W        W15754  17.399  14.226   1.294 -0.0489  0.0662 -0.1367
 2341W        W15755   7.561  12.990   6.001 -0.2129  0.1275 -0.0786
 2342W        W15756   2.429  13.149  16.434 -0.1045  0.0746  0.0113
 2343W        W15757  17.765   6.951  14.242 -0.2048  0.0146 -0.1708
 2344W        W15758   7.143   1.281   2.873  0.0581  0.0138  0.2568
 2345W        W15759  10.004   3.333  14.756  0.1337 -0.0512  0.1692
 2346W        W15760  13.683  13.438   5.470  0.3444 -0.2727  0.1107
 2347W        W15761  15.320   0.160  13.806  0.1056 -0.2559 -0.0232
 2348W        W15762  17.722  11.845   0.803  0.1518 -0.3315 -0.0668
 2349W        W15763  10.029  10.905  11.131 -0.2048 -0.2836  0.2250
 2350W        W15764   0.382  10.276   1.939 -0.2373  0.1823  0.4495
 2351W        W15765  11.393  12.531  12.020 -0.2298 -0.2176 -0.2003
 2352W        W15766   5.019  12.790   3.802  0.1003  0.2275 -0.1345
 2353W        W15767  15.221   9.852   2.994 -0.2835 -0.0446 -0.2918
 2354W        W15768   7.183  14.948  11.030  0.0020  0.0228  0.0455
 2355W        W15769   8.039   6.091  15.106  0.0462  0.1086  0.1621
 2356W        W15770  13.527  18.172  10.560  0.0918 -0.0182 -0.0524
 2357W        W15771   2.537  17.790   1.120 -0.0718 -0.2629  0.1301
 2358W        W15772   3.200   7.158   1.358 -0.0117 -0.0927 -0.0696
 2359W        W15773  11.970   3.018  13.469 -0.1539 -0.2287  0.1847
 2360W        W15774  18.128  10.108   3.821  0.0309  0.1493 -0.1198
 2361W        W15775  12.457   4.581  11.966  0.2371  0.0512 -0.0060
 2362W        W15776  11.433   6.544   3.283  0.2044 -0.0437 -0.1064
 2363W        W15777  13.291  17.892  11.045 -0.0523  0.0274  0.3355
 2364W        W15778   1.837   1.629   5.117 -0.1942 -0.0368  0.0017
 2365W        W15779  16.368   9.097   1.412 -0.4571 -0.0423  0.2649
 2366W        W15780  10.208  12.335   2.572  0.0212  0.2281 -0.0541
 2367W        W15781   8.859   9.501  10.640  0.0147  0.0290 -0.0305
 2368W        W15782  15.799  16.509   4.250  0.1538  0.1103  0.1614
 2369W        W15783   9.558   0.212  13.638  0.1403 -0.0572 -0.3497
 2370W        W15784   5.086  17.178   5.868 -0.3180 -0.5350 -0.1776
 2371W        W15785   4.786  13.313  14.772  0.2331 -0.0252 -0.0738
 2372W        W15786   8.523  17.511   3.123  0.0747  0.1293 -0.0077
 2373W        W15787  16.977  15.755   2.432 -0.4146 -0.0177 -0.1396
 2374W        W15788   5.611  14.410   1.726 -0.4292  0.2446 -0.1957
 2375W        W15789  11.469  18.148   1.765  0.0723  0.1637 -0.2074
 2376W        W15790   3.581  13.468   0.373  0.2708  0.0915  0.0967
 2377W        W15791  18.026   7.315   0.447  0.0577  0.0410  0.0530
 2378W        W15792   8.517  10.970  11.921  0.1139 -0.1968 -0.1692
 2379W        W15793   3.222  10.046  14.525 -0.3009  0.0207 -0.0247
 2380W        W15794   4.633   9.272   5.108  0.1047  0.3300  0.1685
 2381W        W15795  10.832   4.290  11.606  0.1476 -0.0736 -0.0819
 2382W        W15796  15.679  10.257  12.200  0.1727  0.0467 -0.2038
 2383W        W15797   6.495   5.313   2.407 -0.1050  0.2410  0.2632
 2384W        W15798  15.910   6.199   3.432  0.0148 -0.1047 -0.1357
 2385W        W15799   7.874   6.254   1.693  0.0622  0.0782 -0.1602
 2386W        W15800  16.414  12.754  13.945 -0.1262 -0.1760  0.1285
 2387W        W15801   7.907   2.913   2.950 -0.2953 -0.4176 -0.1432
 2388W        W15802   1.920   8.187   2.523  0.0720  0.3003 -0.0651
 2389W        W15803   0.272   1.378   0.280 -0.1552 -0.1190  0.1269
 2390W        W15804  15.796  17.211  13.235  0.0610  0.3149 -0.1231
 2391W        W15805   7.512  18.213  12.297 -0.0093 -0.0847 -0.3266
 2392W        W15806  13.944  15.955   5.478  0.1233 -0.1491 -0.1494
 2393W        W15807   0.460   4.386  13.381  0.1054  0.1564 -0.0320
 2394W        W15808   9.635   5.384  13.017 -0.1456  0.0705 -0.0569
 2395W        W15809   3.055  13.408   5.636 -0.0371  0.1412 -0.0844
 2396W        W15810  12.578  11.680  13.675 -0.1332  0.1889  0.2369
 2397W        W15811  14.208   1.570  13.878  0.1877  0.2459  0.1105
 2398W        W15812   6.337  13.442  15.268 -0.1049  0.2913 -0.0752
 2399W        W15813   4.125   7.403  10.763  0.3105  0.1380 -0.1123
 2400W        W15814  16.862   0.976   3.975 -0.1069 -0.2906 -0.1984
 2401W        W15815  17.599   1.150  15.935  0.1483  0.0811 -0.0294
 2402W        W15816   6.792   8.555  15.704 -0.0869 -0.0225 -0.0347
 2403W        W15817   4.462   5.432  14.495 -0.4040  0.0139 -0.0479
 2404W        W15818  13.368   8.265   1.800 -0.2962  0.1157  0.0479
 2405W        W15819   2.770   9.825   5.030  0.2775 -0.2461 -0.0639
 2406W        W15820   8.734   5.966   2.514 -0.0819 -0.1052  0.3423
 2407W        W15821   0.683   5.050  14.659 -0.1967  0.1249  0.0911
 2408W        W15822  11.496   4.847   3.048 -0.0378 -0.1982  0.1741
 2409W        W15823   6.179  16.895   1.361  0.0354  0.2855  0.0093
 2410W        W15824   7.066   8.126   2.445  0.0145  0.2600  0.0509
 2411W        W15825  15.853   0.045   4.315  0.0473 -0.0302  0.1624
 2412W        W15826   6.015   8.540  14.920 -0.1677  0.0680  0.0540
 2413W        W15827  17.985  14.711   0.135  0.0554  0.1477  0.2950
 2414W        W15828  12.427  12.013  11.811 -0.1256 -0.0369 -0.0224
 2415W        W15829  10.996  13.172   1.037 -0.4775 -0.0227 -0.5118
 2416W        W15830  11.637   6.463  11.703 -0.3824  0.1101  0.1137
 2417W        W15831   4.144   0.899  13.556 -0.1945  0.0792  0.0674
 2418W        W15832  13.651   3.543   3.540 -0.1609  0.0201 -0.1417
 2419W        W15833   3.454  18.078   4.292 -0.1091 -0.2953  0.1526
 2420W        W15834  14.674  15.050   4.874  0.1608  0.5673 -0.4052
 2421W        W15835   3.431  11.711   4.958  0.0636  0.0910  0.0631
 2422W        W15836   5.453   7.277   0.485  0.1424  0.3280 -0.0052
 2423W        W15837   8.257  10.314  15.338 -0.0541  0.2413  0.2546
 2424W        W15838  14.768   6.812  15.167  0.1651  0.0272 -0.1262
 2425W        W15839   1.115   1.915   1.289 -0.2830 -0.0461  0.2235
 2426W        W15840   4.202   8.500   3.161 -0.1036  0.0765  0.2024
 2427W        W15841  17.088   9.146  15.977  0.0469 -0.1808 -0.0278
 2428W        W15842   7.481   9.294  16.472  0.2333  0.2253 -0.1493
 2429W        W15843   5.374   5.835   0.446 -0.0086  0.0173 -0.1304
 2430W        W15844   6.461   8.704  13.671  0.0581  0.1657 -0.1137
 2431W        W15845   4.743  12.473  12.374  0.0482  0.3490  0.2972
 2432W        W15846  13.597  11.924   0.680 -0.1408  0.0017 -0.0819
 2433W        W15847   6.895  10.854  15.146  0.0484  0.1678  0.2406
 2434W        W15848  12.546   3.342  15.394 -0.1695  0.3975  0.1068
 2435W        W15849  11.807  16.279   0.207 -0.2111 -0.2044 -0.3789
 2436W        W15850   2.591  17.231  13.125 -0.1741  0.4172 -0.0134
 2437W        W15851  16.545   7.110   0.752 -0.0315  0.0614 -0.1732
 2438W        W15852  16.710  14.578  10.597 -0.0606  0.2885 -0.1657
 2439W        W15853   1.018   3.353  13.957  0.1009 -0.1371 -0.1871
 2440W        W15854  14.156   2.686  11.530  0.2487 -0.3780 -0.0046
 2441W        W15855  16.901  16.534   6.443 -0.4023  0.1546  0.1748
 2442W        W15856   6.583   5.561   3.968  0.2535 -0.0402  0.3648
 2443W        W15857  16.477   5.974   4.624 -0.2067 -0.2007  0.3129
 2444W        W15858   5.128   1.602   1.898  0.2368 -0.0509 -0.0059
 2445W        W15859   9.483   8.325   4.981 -0.3382  0.2069  0.1992
 2446W        W15860   5.798  15.208  13.434 -0.1571  0.0958 -0.0353
 2447W        W15861   3.111   3.975   6.496 -0.0439  0.2122  0.0072
 2448W        W15862   4.376  13.682   0.956  0.3832 -0.0117  0.0657
 2449W        W15863   3.710   7.458  10.187 -0.1405  0.0612 -0.0204
 2450W        W15864  14.374  13.113   4.904 -0.1304 -0.4425 -0.0830
 2451W        W15865  11.493  10.288  12.915 -0.0100 -0.1064 -0.1124
 2452W        W15866  10.606  11.843   1.919 -0.2174 -0.3257 -0.1813
 2453W        W15867  11.204  14.601  10.978  0.1024 -0.0153 -0.0398
 2454W        W15868   3.179   1.367  14.342  0.0921 -0.0415  0.0165
 2455W        W15869   9.542   8.286  16.009 -0.3839 -0.1403 -0.0951
 2456W        W15870  15.641  10.643   0.264 -0.0541 -0.0344  0.0074
 2457W        W15871  10.138   8.599   4.944 -0.0863  0.0345  0.1500
 2458W        W15872  17.739   0.168  15.221  0.1304  0.2675  0.0153
 2459W        W15873   5.944   2.170  12.309 -0.1792 -0.1449 -0.0218
 2460W        W15874  12.881  12.935  15.764  0.0660 -0.1978  0.1971
 2461W        W15875   5.406  16.524   6.355 -0.1437 -0.0512 -0.2627
 2462W        W15876   3.362  14.581   0.961 -0.0506  0.0973  0.0031
 2463W        W15877  18.056   2.004   1.371  0.1102  0.3167 -0.4827
 2464W        W15878  11.667  12.997  14.562  0.2460 -0.0346  0.0041
 2465W        W15879  15.611   0.455  15.619 -0.0179 -0.0262  0.3324
 2466W        W15880   4.318   8.113  11.470 -0.2081  0.1992 -0.2731
 2467W        W15881  12.976   3.711   4.565 -0.1125  0.1238 -0.1038
 2468W        W15882  10.861   4.954  12.103  0.1814 -0.1722  0.1559
 2469W        W15883   3.655  16.208  11.878  0.1209 -0.0589  0.0627
 2470W        W15884   5.070  15.220  12.054  0.0061  0.0507 -0.3380
 2471W        W15885  10.699  13.378  10.874 -0.1254  0.0283 -0.0107
 2472W        W15886   9.846   6.894  14.913  0.0989 -0.2242 -0.0817
 2473W        W15887  13.353  16.350   4.791 -0.1025 -0.2171  0.1265
 2474W        W15888   9.793   9.217   5.507  0.1459  0.0929  0.0424
 2475W        W15889  12.689   3.946  15.548 -0.2787  0.5210 -0.1022
 2476W        W15890  11.861  15.936   2.209  0.3553  0.0888 -0.3255
 2477W        W15891  17.408   0.252   2.061 -0.0304  0.0564 -0.3098
 2478W        W15892   2.230   5.163   3.817  0.4403 -0.0774  0.0190
 2479W        W15893   6.050  16.031   4.819 -0.1829  0.2825  0.0453
 2480W        W15894  16.131  10.218   5.416 -0.1743  0.2498 -0.1046
 2481W        W15895  10.592   6.064  11.008 -0.0559 -0.0145  0.2042
 2482W        W15896  16.358  12.333   4.820 -0.0324  0.4309  0.1709
 2483W        W15897  11.137  12.021   4.735 -0.1335 -0.0804  0.2734
 2484W        W15898   7.232   2.271  13.908 -0.0092 -0.1803  0.1092
 2485W        W15899   2.252  10.172  16.314 -0.1480  0.1852 -0.1134
 2486W        W15900  14.176   3.313   2.789  0.1936  0.4879  0.1108
 2487W        W15901   8.416  14.538  13.916 -0.3035 -0.3276  0.1095
 2488W        W15902  11.364  15.597  13.350 -0.4811  0.2768 -0.3549
 2489W        W15903   7.253  14.302   3.679  0.1062  0.2126 -0.3216
 2490W        W15904   0.817   8.090   3.795 -0.0786  0.0660 -0.2407
 2491W        W15905   0.808   8.781   5.262 -0.3383  0.0558  0.2795
 2492W        W15906   7.246  11.200  11.377  0.1626 -0.0323 -0.1504
 2493W        W15907   4.214  13.148  12.919 -0.0513  0.0710 -0.2351
 2494W        W15908   4.266  15.696   5.142 -0.0474 -0.1301  0.2610
 2495W        W15909   3.848   6.871  15.517 -0.0937 -0.0558 -0.1482
 2496W        W15910   0.868   3.129  16.323 -0.1595  0.1606 -0.1318
 2497W        W15911  17.042   1.872   1.805  0.1264  0.2386  0.0413
 2498W        W15912   6.444  12.737   4.549  0.2040 -0.1971 -0.0639
 2499W        W15913  16.137   5.123   0.527 -0.2199  0.0900 -0.1218
 2500W        W15914   0.481  15.810   1.275 -0.0134 -0.0262  0.2083
 2501W        W15915   3.209   5.430  14.267  0.4122 -0.0129  0.1344
 2502W        W15916  12.595   4.493  16.358 -0.1949 -0.0767 -0.3086
 2503W        W15917   6.655   9.094  15.975 -0.0584  0.0152  0.0202
 2504W        W15918   8.428  10.877  13.173  0.2189 -0.1653 -0.0353
 2505W        W15919   9.320   6.309   6.037  0.1673  0.1560  0.0751
 2506W        W15920   1.539  14.978  14.174 -0.3415  0.3636  0.1161
 2507W        W15921  12.946   8.172   2.126  0.0303 -0.1212 -0.0162
 2508W        W15922   6.955  10.974   6.201  0.3536  0.1797  0.0814
 2509W        W15923   4.631   6.354   1.399 -0.0372  0.1283 -0.0937
 2510W        W15924  14.239   5.837   3.874 -0.0332  0.0025  0.2127
 2511W        W15925  15.494   6.771   2.245 -0.0475  0.0046 -0.0518
 2512W        W15926  15.092   9.802   5.341  0.2612  0.1115 -0.2642
 2513W        W15927  11.507  14.580   1.405  0.0672 -0.0477  0.1727
 2514W        W15928  16.358   7.177   0.323  0.1740 -0.0233 -0.3133
 2515W        W15929   8.971   8.011   3.956 -0.0203 -0.0339  0.1732
 2516W        W15930   8.830  13.004   3.012  0.2567 -0.0507 -0.0305
 2517W        W15931  13.092  11.767   4.011 -0.1016  0.1021 -0.0483
 2518W        W15932   2.987   4.130   5.137 -0.0197 -0.0298  0.0931
 2519W        W15933  13.585   5.353   3.256 -0.2778  0.0684  0.0085
 2520W        W15934   6.692   3.092  11.932  0.0317 -0.0995  0.0574
 2521W        W15935  13.136  11.603   2.665  0.2330 -0.0600 -0.0544
 2522W        W15936   5.911   3.671   0.055 -0.0185 -0.2165 -0.1679
 2523W        W15937   2.799  15.210   4.413 -0.1152 -0.2866  0.0613
 2524W        W15938  12.344   8.803  10.736  0.1158 -0.2269  0.0205
 2525W        W15939   0.433  12.799   2.317 -0.0991  0.2131  0.1085
 2526W        W15940   5.535   0.642  14.046  0.3395  0.0145  0.3003
 2527W        W15941   0.430   3.368  14.927  0.4577 -0.3588 -0.2891
 2528W        W15942  11.315   0.226   2.184  0.0277  0.2533 -0.0021
 2529W        W15943  14.937  14.260   1.119 -0.2093 -0.3728 -0.1061
 2530W        W15944   8.984   6.054  12.728 -0.1420 -0.1245  0.0578
 2531W        W15945  16.621  16.353   0.886  0.1566 -0.2671 -0.0585
 2532W        W15946   3.699  17.247  15.564 -0.1144 -0.1164  0.0876
 2533W        W15947  10.306   4.743   0.803  0.2566  0.0943 -0.0548
 2534W        W15948  15.694  13.359   4.000  0.0048 -0.2030  0.2997
 2535W        W15949   1.059   2.831   3.131  0.0254 -0.0485  0.0659
 2536W        W15950  10.033   7.268  13.459 -0.0157 -0.1094 -0.2726
 2537W        W15951   1.819  13.296   4.528  0.3560  0.2339 -0.1953
 2538W        W15952   6.491  10.151  10.991  0.0500  0.0067 -0.1322
 2539W        W15953   6.788   0.312  10.069 -0.1791  0.1104 -0.0653
 2540W        W15954   6.093  10.908  14.250 -0.0448 -0.0234  0.1178
 2541W        W15955  17.738  11.778   5.037  0.0396  0.0010 -0.1156
 2542W        W15956   5.737   5.902  12.190 -0.2097  0.3797  0.1054
 2543W        W15957  14.342   6.223   1.740  0.0409  0.1030 -0.0229
 2544W        W15958  16.331   2.123   0.832  0.0300 -0.1341 -0.2317
 2545W        W15959  13.540   8.864   5.225 -0.0266 -0.0059 -0.1465
 2546W        W15960  12.879  10.540  16.214  0.0811  0.0813  0.1147
 2547W        W15961   3.932   0.723   3.404  0.0377 -0.0794  0.2134
 2548W        W15962   8.707  11.655   2.478 -0.1337  0.1592 -0.0833
 2549W        W15963  17.982  13.503  13.883  0.2715 -0.3152  0.1573
 2550W        W15964  17.269   1.016  11.929 -0.0559  0.1893  0.2045
 2551W        W15965   8.879  10.805  14.582 -0.2422  0.0230 -0.0297
 2552W        W15966  17.492   1.482   0.330  0.1044 -0.4183  0.2620
 2553W        W15967  15.183  10.354   2.748  0.1204  0.0307  0.0449
 2554W        W15968   1.930  16.129  15.133 -0.3015 -0.0858  0.1034
 2555W        W15969   0.282   9.082   3.137  0.2000  0.1326 -0.1107
 2556W        W15970   0.029   8.135   1.656 -0.0205 -0.0001 -0.1103
 2557W        W15971  12.719   3.366  14.526  0.2793  0.3194 -0.0209
 2558W        W15972   5.493  15.426   1.348  0.0719 -0.0638  0.1382
 2559W        W15973   2.013  15.733   6.057  0.0934  0.1455  0.0682
 2560W        W15974   2.887   0.987  14.302  0.0944  0.0242  0.0306
 2561W        W15975   1.410   9.560  14.110 -0.1137 -0.0239  0.1957
 2562W        W15976  13.601   5.336  11.996 -0.0102 -0.1049  0.1835
 2563W        W15977   0.253   9.721  15.037  0.0728  0.0508 -0.2787
 2564W        W15978   6.467  12.605  13.053  0.0328  0.4815  0.1385
 2565W        W15979  13.269   3.174  15.869  0.0659 -0.1877  0.0841
 2566W        W15980   1.545   0.789  13.937  0.0326  0.2348 -0.0224
 2567W        W15981   9.332  17.224   4.133  0.0486 -0.0151 -0.3333
 2568W        W15982   7.903  12.571   2.160 -0.0621 -0.1594  0.0374
 2569W        W15983   3.257   5.696   3.552 -0.0340 -0.2620 -0.0458
 2570W        W15984  12.454   7.909  12.495 -0.1873 -0.0031  0.3132
 2571W        W15985   1.580  13.841   5.257  0.1024 -0.1456 -0.1911
 2572W        W15986  16.738   9.506  13.709 -0.1429  0.1197 -0.2081
 2573W        W15987   3.670   1.858  10.973 -0.0763 -0.1770  0.1613
 2574W        W15988  13.349   5.682  12.192 -0.0296 -0.2910  0.0941
 2575W        W15989  11.426  11.582  12.121 -0.1389  0.0547  0.2020
 2576W        W15990   5.677   9.815  14.835 -0.0675 -0.0106  0.0963
 2577W        W15991   2.644   8.818   0.754 -0.2418 -0.1394  0.0715
 2578W        W15992   5.516  12.956  13.296  0.1892  0.2493 -0.0682
 2579W        W15993  13.824  16.579   3.278 -0.0535  0.1663  0.0842
 2580W        W15994  13.545   0.676  15.359  0.0100 -0.3224  0.3495
 2581W        W15995   5.375   6.564  14.155  0.0088  0.0851  0.1881
 2582W        W15996   4.762  17.973   2.396  0.1599  0.0488 -0.1357
 2583W        W15997  16.065  15.389   3.316  0.3049  0.2267  0.3381
 2584W        W15998   0.379   2.111  12.454 -0.1187 -0.2632  0.0342
 2585W        W15999   5.534  16.711   3.875  0.2519 -0.0023 -0.1086
 2586W        W16000  15.613  16.610  16.111 -0.0813  0.2241 -0.0355
 2587W        W16001  13.193   2.694  10.144 -0.1706 -0.0309 -0.1995
 2588W        W16002  12.622  15.488   6.536  0.0337  0.0118 -0.0526
 2589W        W16003   8.496   3.848  15.663 -0.2339 -0.0643 -0.1137
 2590W        W16004   2.505  16.577  11.902  0.0581  0.0589  0.0609
 2591W        W16005   1.571   3.401  12.539  0.1748  0.2084 -0.0080
 2592W        W16006   7.320  10.037  14.316  0.0290  0.1673  0.2353
 2593W        W16007  17.642   8.966  13.092  0.2607  0.1306 -0.0332
 2594W        W16008   3.380   1.563   6.026  0.1170 -0.0409  0.0881
 2595W        W16009  16.750   1.009  14.975  0.0567 -0.1128  0.2062
 2596W        W16010  12.157  17.622  13.528  0.2057 -0.2314  0.0135
 2597W        W16011   8.901   8.892  15.179 -0.1657 -0.0311 -0.0262
 2598W        W16012  14.986  11.228  11.322 -0.1545 -0.0810 -0.1813
 2599W        W16013  15.001   9.833   3.439  0.0275  0.1408  0.2534
 2600W        W16014   2.719   8.300  14.514  0.1705  0.0708 -0.2812
 2601W        W16015  12.159  16.941  11.071 -0.0597 -0.2233  0.1041
 2602W        W16016   2.576  13.350  15.082  0.0388  0.0471  0.0593
 2603W        W16017  18.184   4.683   5.912 -0.0401 -0.1047 -0.0966
 2604W        W16018  16.362  17.163   0.634 -0.1723 -0.0582 -0.1752
 2605W        W16019   0.046   5.795   6.419  0.2606  0.1266  0.2845
 2606W        W16020   6.370  11.116   1.125 -0.0308  0.2908  0.0165
 2607W        W16021  15.611   1.061   3.072  0.0532 -0.0899  0.0347
 2608W        W16022   8.221   6.918   4.364  0.0535 -0.0836  0.0553
 2609W        W16023   0.461   6.932   3.593 -0.0425 -0.0062  0.4698
 2610W        W16024   3.961  12.549  11.674 -0.3630  0.2169  0.1463
 2611W        W16025   8.462   0.320   5.153 -0.0321 -0.3168 -0.0375
 2612W        W16026   3.854  15.052  15.197 -0.0210  0.0182 -0.1046
 2613W        W16027  13.626   3.439  13.287 -0.2290 -0.1290  0.0082
 2614W        W16028  13.082  16.761  13.137  0.1350  0.1866  0.0853
 2615W        W16029  15.488  14.990   3.288  0.1990  0.0888  0.1917
 2616W        W16030   5.929   2.077  13.884  0.2319  0.1974 -0.0008
 2617W        W16031  13.011   5.959   4.121 -0.1394 -0.1653  0.0484
 2618W        W16032   2.343  14.448  15.429  0.1171 -0.2444 -0.5059
 2619W        W16033   6.394   2.819  15.305  0.0264 -0.2122  0.0145
 2620W        W16034  16.809   1.073  14.388 -0.2681 -0.0013  0.2910
 2621W        W16035  17.281   1.315   3.606  0.1130 -0.1569  0.0658
 2622W        W16036   9.032   3.980   1.708  0.1569  0.0062 -0.0145
 2623W        W16037   0.207   5.921   1.276 -0.1775 -0.1082  0.2683
 2624W        W16038   5.853   7.539  15.032  0.1926 -0.1166 -0.2218
 2625W        W16039   8.480   1.544  16.069 -0.1483 -0.0654  0.0644
 2626W        W16040  10.606   9.858  12.273 -0.0748 -0.0441  0.1680
 2627W        W16041   4.816   5.341  13.969  0.1165  0.0463  0.2873
 2628W        W16042   9.192   1.999   4.583  0.1929 -0.2710  0.0214
 2629W        W16043   5.256  15.486  14.925 -0.1223  0.1383  0.1121
 2630W        W16044  10.018   0.324   1.387 -0.1368 -0.1812  0.2119
 2631W        W16045   2.539   5.444  14.550 -0.0549 -0.4146  0.1934
 2632W        W16046   4.683   6.310   3.149 -0.3941 -0.0753  0.1036
 2633W        W16047   3.265   9.937   4.335 -0.0209 -0.2749 -0.1290
 2634W        W16048   0.185  18.068   1.586 -0.0501  0.0163  0.1179
 2635W        W16049   2.339   0.820   3.839 -0.0750  0.1261  0.2987
 2636W        W16050  10.963  18.076   4.324  0.0317 -0.0482  0.0466
 2637W        W16051  14.278  12.106  13.995  0.0328  0.2109  0.0938
 2638W        W16052   7.656  11.996  11.754 -0.3952  0.0665 -0.1637
 2639W        W16053  12.050   1.096  10.169 -0.1459  0.0859  0.1016
 2640W        W16054   9.787  14.180   6.352  0.0964  0.2692 -0.1372
 2641W        W16055   3.739   8.172  11.521  0.1879 -0.1338 -0.2510
 2642W        W16056   7.628   9.275  11.421  0.1068 -0.3976  0.2588
 2643W        W16057  12.144   4.808  14.913  0.1146  0.1892 -0.1378
 2644W        W16058  13.991  13.745  15.624  0.1377  0.0725  0.1515
 2645W        W16059  12.738   8.916   3.523  0.0788 -0.2964 -0.1262
 2646W        W16060   3.352  15.588   2.117  0.0413  0.0904  0.1115
 2647W        W16061  10.042   4.491  15.702  0.2288 -0.3187 -0.1076
 2648W        W16062  10.429   1.980  15.492 -0.1823 -0.0624 -0.3798
 2649W        W16063   5.086  10.150   5.360  0.0464  0.0267  0.0473
 2650W        W16064   3.159  14.973  14.292  0.3186 -0.0183 -0.3045
 2651W        W16065  11.236   3.381   1.044  0.2598 -0.1623  0.1650
 2652W        W16066   7.825  17.930   9.771 -0.1892 -0.2609 -0.3138
 2653W        W16067   0.858  10.786  15.684 -0.0073  0.5889 -0.0274
 2654W        W16068  10.517  15.147   1.016  0.3638  0.0848 -0.2009
 2655W        W16069   8.434  15.259   5.302  0.2194  0.3354  0.4004
 2656W        W16070  17.629   3.734  15.909 -0.2244 -0.2040 -0.1608
 2657W        W16071   2.295   7.997  10.927  0.0718  0.0980 -0.1987
 2658W        W16072   7.353  16.115  13.100  0.1886 -0.0726  0.1892
 2659W        W16073  14.715  12.430   1.192  0.0140 -0.2383  0.3362
 2660W        W16074   6.433  18.042  12.608 -0.0196 -0.1950 -0.3443
 2661W        W16075  17.916   8.662  16.329 -0.1336 -0.0536  0.1125
 2662W        W16076  16.400   0.787  12.491 -0.0232 -0.1523  0.2295
 2663W        W16077   3.054  12.586  13.096 -0.0174  0.1538 -0.3586
 2664W        W16078   1.109   5.015   6.264  0.2782 -0.4247 -0.0753
 2665W        W16079  11.087   9.392   4.309 -0.1302 -0.0333 -0.1678
 2666W        W16080   7.546   8.144   3.268  0.2336  0.1052  0.0242
 2667W        W16081  10.452  13.645  15.377 -0.0971 -0.0894  0.1119
 2668W        W16082   4.815   7.357   0.052  0.0929 -0.1506  0.2254
 2669W        W16083   5.103   4.611   3.446  0.0325 -0.2215 -0.1286
 2670W        W16084   0.273  10.309  12.717  0.1437 -0.0054 -0.0721
 2671W        W16085   3.046  16.942   1.311  0.3187  0.3872  0.1827
 2672W        W16086   8.397  15.850   0.322  0.0645  0.1408 -0.3032
 2673W        W16087  15.141  17.966   6.359 -0.1888 -0.1124 -0.1791
 2674W        W16088   9.594  13.888   0.787 -0.2374  0.2506 -0.0036
 2675W        W16089   4.913   6.081  12.616  0.1312 -0.1158 -0.1397
 2676W        W16090   2.103   8.199  15.370 -0.0680  0.0754  0.2245
 2677W        W16091   6.517  16.840   3.131 -0.1559  0.0071 -0.0959
 2678W        W16092  13.816  10.525  15.158  0.1479 -0.2577 -0.5133
 2679W        W16093   1.266   0.590  10.546 -0.0456  0.0913  0.0134
 2680W        W16094  16.711  15.570  12.127  0.1178  0.2720  0.0191
 2681W        W16095   4.396   5.705  13.367 -0.2018 -0.0337 -0.1484
 2682W        W16096   3.297   6.118  14.644 -0.1490  0.0198  0.1015
 2683W        W16097  15.997  13.162   4.957 -0.1466  0.2194 -0.2174
 2684W        W16098   2.470   2.957  10.491  0.0533  0.0410 -0.1417
 2685W        W16099  10.985   3.031   0.810  0.0344  0.2396 -0.0139
 2686W        W16100   7.085   5.701  11.772 -0.1692  0.1611  0.1687
 2687W        W16101   8.458   7.985   3.780 -0.1325  0.2163  0.4563
 2688W        W16102   9.165   6.732   2.099 -0.3334  0.1149 -0.0449
 2689W        W16103   0.748   0.511   1.943 -0.2076  0.2677 -0.4931
 2690W        W16104  16.751  15.025   4.584  0.2002 -0.0515  0.0010
 2691W        W16105  18.153  14.918   2.327 -0.0716  0.1465 -0.0609
 2692W        W16106   0.722  17.311  14.031 -0.1085 -0.2595 -0.2942
 2693W        W16107   6.032  11.299   2.997  0.1229  0.3011  0.0888
 2694W        W16108   2.971  16.381   4.578 -0.0121  0.3072  0.1319
 2695W        W16109   0.409   0.679  16.270 -0.2750 -0.1335 -0.0551
 2696W        W16110  17.530   6.273  12.235 -0.2511  0.0050  0.1651
 2697W        W16111  13.578  16.775  11.113  0.1127  0.3467 -0.1119
 2698W        W16112   6.592  16.165   1.161  0.0287 -0.0037  0.1165
 2699W        W16113   7.413   5.479   2.709 -0.2112  0.2859  0.3190
 2700W        W16114  18.171   4.221   3.472 -0.0032  0.1024  0.1944
 2701W        W16115  15.737   0.273   3.699 -0.0452  0.0374 -0.1313
 2702W        W16116  16.864  16.518   5.579  0.2984  0.0481 -0.1245
 2703W        W16117   8.178   5.268  14.003 -0.0440 -0.0818 -0.3342
 2704W        W16118  18.212   5.228  15.312  0.0302 -0.0923 -0.0673
 2705W        W16119   2.980   3.619  12.548 -0.1124 -0.0899 -0.1317
 2706W        W16120  17.763   6.875   2.811 -0.0931  0.0299  0.1520
 2707W        W16121  17.383  15.385  15.217 -0.3139  0.0780 -0.0470
 2708W        W16122  15.311  15.013   5.354 -0.1006  0.0936  0.1062
 2709W        W16123   9.738   8.914  15.269 -0.0641  0.0799 -0.1042
 2710W        W16124  10.283  10.289  14.381  0.2106  0.0496 -0.1962
 2711W        W16125  17.010  13.535   1.821 -0.1212  0.1070  0.2144
 2712W        W16126  15.982   4.039  11.374 -0.4849  0.0139  0.0812
 2713W        W16127   0.123  17.563  16.141  0.1164  0.1163  0.2339
 2714W        W16128   3.551   8.148  12.826  0.1744  0.0033 -0.2126
 2715W        W16129   5.830   7.048  15.202  0.1101  0.2464 -0.1721
 2716W        W16130   2.413   0.270  14.513  0.0855  0.0909 -0.1689
 2717W        W16131  17.907  14.848   6.190 -0.1825  0.1625  0.0923
 2718W        W16132  13.421   0.880  11.959 -0.1672 -0.2750  0.2110
 2719W        W16133   5.867   5.985  13.046  0.0173  0.2825  0.2572
 2720W        W16134   9.012   1.659   1.772 -0.3092  0.1377  0.0235
 2721W        W16135  16.463  17.446  15.154  0.1706 -0.0438 -0.4581
 2722W        W16136   9.543  14.895  10.392 -0.1633  0.1985  0.0507
 2723W        W16137   0.897  11.124   3.151 -0.0084  0.1638  0.2632
 2724W        W16138  13.420  18.200   3.298 -0.4671 -0.3907  0.4901
 2725W        W16139   8.771  18.133  14.533 -0.2822  0.3175  0.2916
 2726W        W16140  10.539  12.862   4.278  0.0181  0.2236  0.1896
 2727W        W16141   7.476  12.201  11.369  0.0210  0.0633  0.0238
 2728W        W16142  11.089   0.809  16.180  0.2585  0.1571  0.0543
 2729W        W16143  14.953   6.265  13.627  0.0193  0.1471  0.1095
 2730W        W16144   4.213   0.033  14.147 -0.1954  0.0843  0.0750
 2731W        W16145  16.374   6.546  13.399 -0.1086 -0.2021 -0.1830
 2732W        W16146   9.802   6.489  12.313 -0.3250 -0.2969 -0.1290
 2733W        W16147   2.537   3.435  16.380 -0.3490 -0.0334  0.3293
 2734W        W16148  13.864   7.637   2.566  0.3611  0.0138 -0.0196
 2735W        W16149   0.763  14.446   0.816 -0.3241 -0.0176 -0.1884
 2736W        W16150  13.147   9.092   3.848 -0.0234 -0.2719 -0.0242
 2737W        W16151   1.323   4.657   1.576 -0.0793 -0.2675 -0.2328
 2738W        W16152   3.409   7.459   4.740  0.2445  0.0488  0.1046
 2739W        W16153  11.434   9.429  12.256  0.3029  0.1116 -0.1078
 2740W        W16154   7.193  15.956  14.180 -0.2047  0.3857  0.0010
 2741W        W16155  18.117  13.563   5.661 -0.0184 -0.0920  0.1586
 2742W        W16156  15.212   1.353  15.308 -0.0005  0.0558  0.2787
 2743W        W16157  17.056   0.310   3.354  0.0781  0.4271  0.0898
 2744W        W16158   0.364   7.641  16.360 -0.3015  0.1409 -0.0044
 2745W        W16159   7.622  10.352  14.679  0.0723  0.1162  0.0596
 2746W        W16160   3.256  11.879  10.265  0.1867 -0.1843  0.2329
 2747W        W16161  14.854   4.516  12.675  0.1017 -0.2414  0.1869
 2748W        W16162  15.267   9.101  15.896 -0.0628  0.1212 -0.0881
 2749W        W16163  18.157  12.210  14.430 -0.3598 -0.1288  0.0031
 2750W        W16164  13.598  15.213   0.453 -0.0899  0.0958 -0.1522
 2751W        W16165   2.544  14.513  10.371  0.2925  0.2619  0.1007
 2752W        W16166  14.733  12.418  14.911 -0.1135  0.1975  0.0636
 2753W        W16167   5.403  12.755   1.964 -0.0043  0.1086  0.0717
 2754W        W16168  15.895  17.663  13.351  0.2203  0.1200  0.1480
 2755W        W16169   1.000   8.538  14.672 -0.1246  0.0359 -0.3142
 2756W        W16170   7.827  17.723  14.945  0.1505  0.1548  0.0741
 2757W        W16171   9.334   8.810  14.747 -0.1815 -0.0659 -0.0970
 2758W        W16172   8.151   6.462  15.873  0.0651 -0.1317  0.2232
 2759W        W16173  17.942   7.541  14.888 -0.1952 -0.0337  0.2718
 2760W        W16174   7.898   1.084  15.789  0.0854 -0.1004 -0.0717
 2761W        W16175  11.649  13.537  14.527  0.2748 -0.1435 -0.0222
 2762W        W16176   1.353  14.060   5.669  0.0814 -0.0217  0.0149
 2763W        W16177  11.819   8.561   3.755  0.2651 -0.3321  0.2804
 2764W        W16178  16.784  12.616   3.829  0.0227  0.1127  0.0083
 2765W        W16179  15.398  10.315  14.426  0.2561 -0.1789 -0.2996
 2766W        W16180   2.573   2.973   3.860  0.4034 -0.1367 -0.0535
 2767W        W16181  13.116   6.215  15.526 -0.1135  0.2604 -0.0299
 2768W        W16182   0.047  15.509  13.423  0.5160 -0.0989  0.0562
 2769W        W16183   5.362  12.438   5.017  0.1806  0.0323  0.3053
 2770W        W16184   1.565   9.527   0.127  0.1907 -0.0001  0.0117
 2771W        W16185  16.552  15.877   0.703 -0.2052  0.0827  0.1902
 2772W        W16186  16.520   1.948   0.040 -0.0912  0.0939  0.1159
 2773W        W16187   3.797   0.057   1.013  0.1613  0.0285 -0.2239
 2774W        W16188   6.416  17.141   3.585 -0.1213 -0.0267  0.1655
 2775W        W16189  17.751  10.469  16.306 -0.2809  0.1934  0.3423
 2776W        W16190  15.593   6.653   4.188  0.2488 -0.1342  0.0173
 2777W        W16191  12.506  17.108   1.013 -0.0275 -0.2697 -0.1580
 2778W        W16192   5.383  10.092  12.951  0.0327  0.1394 -0.1090
 2779W        W16193  12.067   9.903  13.091 -0.2948  0.4944  0.4454
 2780W        W16194   5.922  13.998   1.897 -0.0594  0.1309  0.0055
 2781W        W16195   6.396   0.114   0.489  0.2056  0.1155  0.2396
 2782W        W16196  13.611   3.364   1.601 -0.0105 -0.0905 -0.3428
 2783W        W16197  13.654   9.715  15.621 -0.2282 -0.2682  0.3147
 2784W        W16198   6.803  14.089  12.670  0.0837  0.1528 -0.0361
 2785W        W16199  11.861   8.264  15.262 -0.1027 -0.1879  0.0388
 2786W        W16200  14.717   8.473  14.602 -0.0637  0.0084 -0.2152
 2787W        W16201  13.878   1.981  16.389 -0.2069  0.0892 -0.3063
 2788W        W16202  17.595  17.923  15.081  0.3591  0.1747 -0.1248
 2789W        W16203   9.764   1.288   4.523  0.3881  0.0316 -0.0136
 2790W        W16204  13.913   5.071   1.313  0.0694 -0.0024  0.0919
 2791W        W16205  17.154  17.619   5.061  0.1156  0.2339  0.0041
 2792W        W16206   5.020   3.259  16.377 -0.3141 -0.3020  0.1158
 2793W        W16207  10.985   1.773  12.919 -0.1401 -0.2210 -0.0757
 2794W        W16208   3.381   4.337   4.778  0.0993 -0.0060  0.2818
 2795W        W16209   2.502  13.036  12.476 -0.0182  0.1877 -0.1831
 2796W        W16210  10.829  14.333  16.292  0.2455 -0.2728 -0.3846
 2797W        W16211   3.622  11.976   2.360 -0.0934  0.1047 -0.0905
 2798W        W16212   2.562   1.742   5.663  0.1069 -0.0621 -0.0923
 2799W        W16213   5.085   8.600  12.006  0.4080 -0.1844 -0.0572
 2800W        W16214  11.453  12.991  12.272  0.5035  0.2036 -0.0384
 2801W        W16215   3.889   7.952   5.260  0.2408  0.1708  0.0947
 2802W        W16216   2.449   0.100  15.602 -0.3055 -0.1130  0.3055
 2803W        W16217   6.911   6.709  13.607  0.0872  0.0738  0.2437
 2804W        W16218   9.909   0.835  16.361 -0.2295  0.1011 -0.3359
 2805W        W16219   8.724   3.575   1.640  0.1325  0.0367  0.1067
 2806W        W16220   2.195  16.892   3.995 -0.3102  0.0861  0.0371
 2807W        W16221   7.981   2.753  15.062  0.1652  0.2431  0.0773
 2808W        W16222   1.845  16.434   1.023  0.1276 -0.0533  0.2240
 2809W        W16223   8.918   2.880   4.990  0.1837  0.0289  0.0063
 2810W        W16224  17.957   8.195   0.376 -0.2164  0.4073 -0.2000
 2811W        W16225   2.820  12.243  10.985 -0.0444  0.0810  0.1121
 2812W        W16226  10.826  13.482   0.344 -0.0762 -0.0891 -0.2426
 2813W        W16227  14.761   8.229   3.386  0.0788  0.2496  0.2840
 2814W        W16228   4.076  17.439   4.300 -0.5722 -0.1000  0.2107
 2815W        W16229   9.559  17.757  13.559 -0.3845  0.2516 -0.3390
 2816W        W16230   0.907   3.619  13.422  0.1019  0.1585  0.0249
 2817W        W16231   8.895   6.743  11.998 -0.1025  0.2009 -0.0712
 2818W        W16232  17.954   4.266   1.860 -0.0623 -0.1109 -0.1861
 2819W        W16233  17.196  15.915   3.823  0.1817  0.2113  0.4682
 2820W        W16234   0.161  12.590  13.518 -0.1956  0.0891  0.2113
 2821W        W16235  18.101  12.331  11.583 -0.2148 -0.1585  0.2507
 2822W        W16236  17.919   5.704  11.414 -0.1124  0.1365 -0.4171
 2823W        W16237   3.578  10.825  13.999 -0.1085 -0.0267  0.0294
 2824W        W16238  15.609  10.660   1.482  0.1179 -0.4125 -0.2464
 2825W        W16239   1.551  17.428   1.023 -0.0042  0.3100 -0.1483
 2826W        W16240  13.871  13.235   2.109  0.1552  0.3733  0.0743
 2827W        W16241   7.275   2.169  16.034 -0.2530 -0.2339  0.2448
 2828W        W16242   9.082   6.081   2.120 -0.2017  0.1851  0.0326
 2829W        W16243   3.083   8.217  16.379  0.1593 -0.0318 -0.1046
 2830W        W16244   9.365   1.332  10.946  0.1074  0.1938 -0.0162
 2831W        W16245  14.131   7.966  15.546  0.2247 -0.2537 -0.1045
 2832W        W16246  10.124   4.748  11.132  0.1850  0.1401  0.0212
 2833W        W16247  15.411   3.755   1.858  0.3151  0.1050 -0.0802
 2834W        W16248   4.236   9.207  12.987  0.2099 -0.0594  0.1193
 2835W        W16249   6.070   1.562  14.754 -0.1095 -0.0153  0.0545
 2836W        W16250   6.772  12.541  13.535 -0.1307 -0.3341  0.2851
 2837W        W16251  11.201   8.736   2.055  0.4518 -0.0147  0.1931
 2838W        W16252  15.184   3.818   0.994 -0.0992  0.1684  0.0588
 2839W        W16253   3.206   8.375   3.509 -0.1019 -0.0015 -0.0520
 2840W        W16254   4.324   4.612   1.740 -0.1564  0.2246 -0.0278
 2841W        W16255  15.584  16.686   2.617 -0.1220  0.0104  0.0280
 2842W        W16256   6.102  18.026  12.131  0.4789 -0.1468  0.1272
 2843W        W16257   7.202  16.089   9.776  0.3070 -0.0094  0.2862
 2844W        W16258   0.291   9.369  12.364  0.1259 -0.3627 -0.1382
 2845W        W16259   2.159   7.568  15.547  0.1113 -0.3155  0.1298
 2846W        W16260   9.426   7.231  12.642 -0.0450 -0.0709 -0.0490
 2847W        W16261   2.229  17.807  15.338 -0.1708 -0.1697 -0.0144
 2848W        W16262   8.001   3.611  15.473  0.0078 -0.1437 -0.0406
 2849W        W16263  17.731   2.226  12.031  0.1218  0.3622  0.0794
 2850W        W16264  15.571   0.226  13.376  0.0631  0.3524 -0.2040
 2851W        W16265  11.632   1.822  11.418  0.3525  0.1009  0.3575
 2852W        W16266   1.377   3.955   1.975  0.1868 -0.1347 -0.0762
 2853W        W16267   8.198   8.060  15.984  0.2422 -0.1763  0.0809
 2854W        W16268  11.738  16.736   0.028  0.0757  0.2372 -0.0625
 2855W        W16269  16.114   7.593   0.175 -0.0973  0.0402  0.0207
 2856W        W16270   2.897  15.583   1.240  0.1635 -0.1623 -0.1093
 2857W        W16271  13.591  12.008   4.701  0.3813  0.2025 -0.5206
 2858W        W16272  12.520   8.568   4.801  0.0741 -0.1739  0.1067
 2859W        W16273  15.524  10.711   3.547  0.0543 -0.3465  0.0440
 2860W        W16274   5.341  15.647   4.686  0.0309  0.1617  0.0716
 2861W        W16275   9.140   9.233   1.899 -0.3407  0.1895  0.1133
 2862W        W16276   8.663   2.133   1.394  0.0973  0.0496 -0.0591
 2863W        W16277   9.500   9.542  11.369 -0.3999 -0.1359  0.2466
 2864W        W16278  10.606   6.819  13.321  0.1539 -0.0013  0.0055
 2865W        W16279   9.548   9.496  13.402  0.2073  0.1151 -0.0697
 2866W        W16280   1.832   7.481  11.606 -0.2502  0.0864  0.0503
 2867W        W16281   8.454  15.153  11.867  0.4163  0.1157 -0.0948
 2868W        W16282  14.534   1.458  13.279  0.0651 -0.3374  0.1428
 2869W        W16283  13.038  15.021   5.024  0.4369 -0.1450  0.0538
 2870W        W16284   5.714  11.755   4.409 -0.2450 -0.0824  0.0215
 2871W        W16285   7.172  11.410   3.344  0.2272  0.0992 -0.4824
 2872W        W16286  17.643  16.116  12.683 -0.1272  0.2872  0.3868
 2873W        W16287   2.103   1.287   5.626 -0.0975  0.0808  0.0092
 2874W        W16288  17.903   5.720  15.600 -0.0073  0.2032 -0.1676
 2875W        W16289   9.441   7.805   5.030  0.1401 -0.2899 -0.0558
 2876W        W16290   9.426   0.966  11.710 -0.2313 -0.1857  0.2286
 2877W        W16291   2.647  17.976  12.231 -0.2404  0.1322  0.0852
 2878W        W16292   3.149  17.214  15.655 -0.1955  0.1589  0.1298
 2879W        W16293   6.788   3.291   0.436 -0.0192  0.3064  0.0705
 2880W        W16294   4.535   1.420  15.959 -0.0913  0.1291 -0.1015
 2881W        W16295  17.568  14.332   2.244 -0.0596 -0.3109  0.0427
 2882W        W16296  12.833  17.829   0.667 -0.3504  0.0263  0.3096
 2883W        W16297  12.856   3.678   3.165  0.2068 -0.0079  0.0713
 2884W        W16298  15.420  10.826   0.711 -0.2436 -0.1071  0.0842
 2885W        W16299  12.859  11.494   4.439  0.3042  0.0315 -0.0798
 2886W        W16300   9.976   8.391   2.118  0.2643  0.0246  0.3676
 2887W        W16301  10.491   0.980  15.013 -0.0396 -0.1016 -0.1773
 2888W        W16302   6.254   3.464   2.427 -0.1914 -0.3136  0.2433
 2889W        W16303   6.570   6.226  13.681  0.0230  0.0451  0.0883
 2890W        W16304  18.159   3.835   4.850 -0.0963  0.2280  0.3971
 2891W        W16305  12.579  12.073  15.720 -0.0865  0.1135  0.1733
 2892W        W16306   4.416   7.134   1.887  0.2921  0.0154 -0.3600
 2893W        W16307   4.374  16.460   4.885  0.1390  0.0014 -0.2592
 2894W        W16308   4.623  16.258   4.031 -0.0546 -0.0563  0.0452
 2895W        W16309  12.206  10.459   2.909 -0.0384 -0.1120  0.2244
 2896W        W16310   6.680  15.033   2.336 -0.3180 -0.0445  0.2904
 2897W        W16311  10.917   4.015   4.771 -0.2552  0.0844  0.0463
 2898W        W16312   2.399   0.144  11.207 -0.0406  0.1165 -0.0072
 2899W        W16313   9.398   3.923  12.622  0.0423  0.1098 -0.1162
 2900W        W16314   6.461  10.615  12.880  0.0776 -0.1415  0.2164
 2901W        W16315   9.566   7.798  15.862 -0.0348 -0.1303  0.2949
 2902W        W16316   6.678   6.830  15.474 -0.2626  0.2193  0.2315
 2903W        W16317   9.792   4.697   4.655 -0.0899 -0.2774  0.3738
 2904W        W16318  12.377   0.201   4.389  0.1232  0.0027  0.0590
 2905W        W16319  14.568  17.202   1.745 -0.1105 -0.1292  0.2090
 2906W        W16320  17.967   6.498   3.068  0.0731 -0.0069 -0.2238
 2907W        W16321   5.667   2.715   4.998  0.2557 -0.2995  0.0071
 2908W        W16322  17.419  12.875   4.502  0.1112 -0.0533  0.1419
 2909W        W16323   8.963  16.920  13.664  0.0308  0.1251  0.0225
 2910W        W16324  12.079   1.343   1.430 -0.2181 -0.1850 -0.0946
 2911W        W16325  13.032  10.888  13.042 -0.2204  0.0397 -0.1037
 2912W        W16326  10.755   7.586   5.138  0.0299  0.2438 -0.0344
 2913W        W16327   2.413  11.781   1.493 -0.1699  0.1092 -0.1021
 2914W        W16328   5.837   5.476   5.910  0.0475  0.1834  0.1618
 2915W        W16329  16.032   0.954  12.131  0.0223 -0.1787 -0.0757
 2916W        W16330   6.641  13.225  15.849 -0.0254 -0.1160 -0.2535
 2917W        W16331   6.397  13.745   2.034  0.1750  0.3967 -0.1764
 2918W        W16332  14.102  12.423  12.237  0.3133  0.0369 -0.0349
 2919W        W16333   3.874   6.852   5.451 -0.2772 -0.1771  0.1861
 2920W        W16334  16.653  17.734  15.507 -0.3036  0.0533 -0.4252
 2921W        W16335   9.871   1.599   2.624 -0.0422 -0.1323 -0.1072
 2922W        W16336   1.452   3.550  14.081 -0.2313 -0.0923  0.1514
 2923W        W16337  10.712   6.304   2.646 -0.1551  0.0906 -0.1097
 2924W        W16338  14.762  13.084   2.975 -0.2503  0.0096  0.0299
 2925W        W16339   6.842   9.007   4.655  0.1876  0.0316  0.2460
 2926W        W16340   5.336   0.167  16.011  0.0598  0.2737  0.3334
 2927W        W16341   2.477  17.405   6.347 -0.1993 -0.0583  0.1039
 2928W        W16342  14.722  13.556   4.246  0.1795  0.0843 -0.1329
 2929W        W16343  14.184  10.976  10.718  0.2733  0.4181  0.0996
 2930W        W16344   0.396   7.357   4.747  0.0684 -0.3220  0.1456
 2931W        W16345  13.402   9.354   5.603 -0.0467  0.0674 -0.3013
 2932W        W16346  12.520   1.529  10.381 -0.4544 -0.4367  0.1844
 2933W        W16347   8.901  14.397   1.957  0.0724 -0.2035 -0.0981
 2934W        W16348   3.900   2.915  14.747  0.1916  0.1243  0.2109
 2935W        W16349  13.839   8.778   1.259  0.1106 -0.3099 -0.0894
 2936W        W16350   7.020   4.011   2.416 -0.2906  0.0072 -0.1365
 2937W        W16351   2.056   2.455  15.196  0.4699 -0.0937 -0.3733
 2938W        W16352   4.820   1.169  14.382 -0.2248  0.3237 -0.1119
 2939W        W16353  11.065  11.238  12.279 -0.0066  0.1520 -0.0192
 2940W        W16354  10.792   0.893  12.731  0.3869 -0.1705 -0.1782
 2941W        W16355   6.447   6.199   5.272  0.3194 -0.0055  0.2396
 2942W        W16356  14.743   8.395   4.414  0.2000 -0.0596  0.0301
 2943W        W16357  14.072  17.298  10.219 -0.0534 -0.1301  0.0983
 2944W        W16358  17.618  12.375  13.092 -0.2357  0.0601  0.1700
 2945W        W16359  14.754  11.050  14.626 -0.0400 -0.0850  0.0111
 2946W        W16360  16.673   3.239   3.141 -0.3528  0.0741  0.2777
 2947W        W16361  14.052   2.504  14.535  0.0135  0.1924  0.2524
 2948W        W16362   3.890  14.950  10.944  0.4288  0.0713 -0.2255
 2949W        W16363  12.063   3.134  10.234  0.0080 -0.0226 -0.0039
 2950W        W16364  13.086  11.726  11.034  0.1188 -0.4546  0.3500
 2951W        W16365   6.052   7.961   2.522 -0.3691  0.0626  0.1122
 2952W        W16366  11.547  17.422  10.170 -0.1300 -0.0790  0.6509
 2953W        W16367  17.819   3.869   6.142  0.0151 -0.3150  0.4333
 2954W        W16368  16.459  13.904  15.257  0.0642  0.2604  0.3770
 2955W        W16369   9.803   0.637  11.874  0.3576 -0.0926 -0.2734
 2956W        W16370   4.718   4.328  16.397  0.2247  0.0135  0.0481
 2957W        W16371   0.878   4.291  14.979 -0.0567 -0.1349  0.1919
 2958W        W16372  10.144   9.544   1.945  0.3072 -0.2106  0.0405
 2959W        W16373  14.203  18.097  16.315 -0.0705 -0.0888 -0.3302
 2960W        W16374  17.836   2.664  16.381  0.0803 -0.0101  0.2100
 2961W        W16375   2.400   9.133   4.371  0.0808 -0.0512 -0.1369
 2962W        W16376  13.332   4.873  14.071 -0.0154 -0.1930  0.1184
 2963W        W16377   0.900   5.739   5.400  0.1679 -0.1834 -0.3254
 2964W        W16378   4.342  12.245  11.336  0.1197 -0.0089  0.0259
 2965W        W16379   9.940  11.059   2.874 -0.4493 -0.0206 -0.0283
 2966W        W16380  17.321   3.079  11.498  0.0655 -0.1074  0.4205
 2967W        W16381   2.041  15.619   4.800  0.1326 -0.1245  0.1273
 2968W        W16382  18.220   7.948  10.678 -0.0824 -0.0859 -0.1777
 2969W        W16383   8.905   5.040   2.523  0.0242  0.1655 -0.0381
 2970W        W16384   2.687  15.324   3.346  0.0559 -0.1935  0.0077
 2971W        W16385   1.321   2.977   0.122 -0.0719 -0.4968  0.2470
 2972W        W16386  11.004  13.614   4.210 -0.0528  0.1639  0.2046
 2973W        W16387   7.781   3.737   4.510  0.1828 -0.2140 -0.2787
 2974W        W16388   2.957   1.797  12.433 -0.0197 -0.1450  0.0738
 2975W        W16389  17.891  13.942   0.712  0.0176  0.1555 -0.1353
 2976W        W16390  13.871  16.892   4.015  0.0303  0.1093  0.1679
 2977W        W16391   1.399   6.802   3.519  0.0390  0.0504 -0.2812
 2978W        W16392   6.937   0.603  12.888 -0.0524 -0.2324  0.0793
 2979W        W16393   7.975  13.735  10.177  0.2698 -0.0763 -0.1279
 2980W        W16394   8.783   1.294   5.072  0.1955  0.0792  0.1770
 2981W        W16395   3.121  17.945   1.370 -0.0133  0.0343  0.0477
 2982W        W16396   8.394  13.669   1.484 -0.1968  0.0643  0.0501
 2983W        W16397  16.256   1.269  15.157  0.1147 -0.0821 -0.2839
 2984W        W16398   2.306   0.056   2.919 -0.0877  0.0996 -0.0994
 2985W        W16399   7.689   2.608  15.541 -0.0638  0.0276  0.0711
 2986W        W16400  10.006   1.751   5.256  0.1562 -0.1746  0.0058
 2987W        W16401   5.565  14.650   0.935  0.1860  0.2299 -0.1515
 2988W        W16402   6.769  12.749  15.810  0.4604  0.0516  0.2110
 2989W        W16403   1.293  17.251  12.765 -0.0364 -0.3727  0.3156
 2990W        W16404  17.228   6.472  13.619 -0.2758 -0.1453 -0.0821
 2991W        W16405   1.415  13.591  11.674 -0.1480 -0.0339  0.1119
 2992W        W16406   3.086   4.157   3.306 -0.4023  0.0016  0.2864
 2993W        W16407   3.026   2.458   1.679  0.2106 -0.1133 -0.0906
 2994W        W16408   6.966   1.346  16.389 -0.1270  0.3511  0.0532
 2995W        W16409   5.248   6.241   4.410 -0.4417  0.0231 -0.1601
 2996W        W16410   2.855  12.973  12.809 -0.1565  0.0428  0.0541
 2997W        W16411  17.747  15.323  14.847 -0.1470 -0.0463 -0.0560
 2998W        W16412  12.261   0.090  11.679  0.5103  0.0000  0.0054
 2999W        W16413  13.252  14.271   4.219  0.2254  0.0458 -0.0951
 3000W        W16414  12.683  11.157  13.806  0.0348  0.3615 -0.0036
 3001W        W16415  17.648  17.894  13.729  0.0802 -0.2660  0.2044
 3002W        W16416  12.149   4.351  14.671  0.1324 -0.1417  0.0333
 3003W        W16417   8.209  11.510   1.356 -0.3426  0.3254 -0.0315
 3004W        W16418  17.877   3.964  11.760 -0.1808  0.0616 -0.0645
 3005W        W16419   1.286   3.090  12.339  0.1163  0.0108  0.0430
 3006W        W16420  16.662   1.482  16.491 -0.2513  0.1349 -0.1204
 3007W        W16421  14.390   6.284  11.316  0.0531  0.1513  0.0631
 3008W        W16422   1.406   6.341  16.365  0.2945 -0.0634 -0.2078
 3009W        W16423   3.413   5.353   1.758 -0.0189 -0.0640 -0.0249
 3010W        W16424   5.237  12.361   2.315  0.3700 -0.2267 -0.0083
 3011W        W16425   4.772   1.008   9.933 -0.1248 -0.0765  0.0839
 3012W        W16426   4.392  15.647   4.599 -0.0494  0.0859 -0.2454
 3013W        W16427   0.036  11.876  11.597  0.1047  0.3297  0.1383
 3014W        W16428  10.286   6.474  13.653 -0.1477  0.3524  0.0829
 3015W        W16429   6.605   5.319   4.452  0.2098 -0.0583 -0.1627
 3016W        W16430   9.378   8.283   4.453  0.0456 -0.0285 -0.1927
 3017W        W16431   4.509  12.033   5.470 -0.0496 -0.1007  0.1441
 3018W        W16432  13.698  10.629   1.736 -0.0992 -0.1032 -0.3498
 3019W        W16433   8.227   8.369  11.897  0.2262  0.0093  0.1702
 3020W        W16434   8.679   5.018   5.278 -0.1802  0.0149 -0.1105
 3021W        W16435  15.296   9.869  15.140 -0.1254 -0.2006  0.1576
 3022W        W16436  10.536   9.708   4.785  0.0068 -0.1159 -0.0182
 3023W        W16437   2.243  15.329   2.369  0.1868 -0.0923 -0.0509
 3024W        W16438  14.844   8.200   0.431 -0.1428  0.2858 -0.2269
 3025W        W16439   6.919   5.739   2.741 -0.0737 -0.0407 -0.0115
 3026W        W16440  15.341   1.717   4.876  0.1475  0.0960 -0.1136
 3027W        W16441   1.266   2.451   5.274 -0.1889  0.1395 -0.2070
 3028W        W16442  15.688  17.180   3.501 -0.2978  0.0836 -0.0375
 3029W        W16443   7.459  10.878  11.012 -0.0872 -0.1556  0.3220
 3030W        W16444   1.979   8.212   3.426 -0.2930  0.1376  0.2333
 3031W        W16445   3.580  17.289  10.849 -0.3389 -0.0190  0.0972
 3032W        W16446  17.729   1.516  13.442 -0.0091  0.3044  0.0953
 3033W        W16447  10.026   7.503   3.225  0.1287 -0.1271 -0.2009
 3034W        W16448   6.025   5.896   5.567  0.1312  0.1362 -0.0396
 3035W        W16449   0.543  10.591   1.535  0.1600  0.1437 -0.1956
 3036W        W16450  13.481   2.982   6.403 -0.0696 -0.1975 -0.1091
 3037W        W16451  10.187   7.526   2.671  0.0858 -0.0239  0.1891
 3038W        W16452  15.132  12.705  15.955  0.1256 -0.0195  0.0746
 3039W        W16453  13.819   7.589   4.234 -0.2715  0.1485  0.0660
 3040W        W16454  12.136  14.234  16.143 -0.1096  0.0080 -0.3891
 3041W        W16455   1.997  16.484  12.011 -0.2028 -0.3695 -0.0831
 3042W        W16456   9.804   7.716   5.480  0.0683 -0.2188  0.0189
 3043W        W16457   2.539  17.035   2.633  0.0566 -0.2524  0.2333
 3044W        W16458  12.352  13.795   2.435  0.2033  0.1389  0.1841
 3045W        W16459   7.947  15.955   5.682  0.0849 -0.2271 -0.0570
 3046W        W16460   7.895   4.650   1.264  0.2607  0.4188  0.1483
 3047W        W16461  16.608   5.343  11.858  0.0564 -0.1041 -0.1857
 3048W        W16462  15.818   4.094   1.609  0.1062 -0.1135  0.0089
 3049W        W16463  16.610   1.069   4.910 -0.2083  0.2597 -0.1837
 3050W        W16464   8.592   2.798   0.217  0.2684 -0.1522  0.0006
 3051W        W16465   7.906  11.369   5.452 -0.0402  0.2387  0.1570
 3052W        W16466   5.627  11.965   0.505  0.1244  0.2192  0.0315
 3053W        W16467  15.596   9.271  12.187 -0.1034  0.2616 -0.2481
 3054W        W16468   1.420   8.384   2.606  0.0395 -0.1305  0.3746
 3055W        W16469  13.860   3.757  10.255 -0.1442  0.1321 -0.0670
 3056W        W16470  17.987   0.436   0.873  0.1779  0.1381 -0.1771
 3057W        W16471   3.840  16.712  13.645  0.0253 -0.1545  0.0479
 3058W        W16472   9.608   9.682  14.247  0.1819  0.0430  0.2599
 3059W        W16473  15.375   7.140   0.465  0.1143 -0.1279 -0.0818
 3060W        W16474   8.708  11.189  16.042  0.1624  0.1450  0.1550
 3061W        W16475  18.210  13.003  13.781  0.0609  0.1133 -0.2002
 3062W        W16476   5.779  13.826  13.564 -0.2663 -0.2061  0.1089
 3063W        W16477   3.800  14.277   1.547 -0.0590 -0.2650  0.0702
 3064W        W16478   6.215   8.429   2.448  0.1146  0.0673  0.0892
 3065W        W16479  16.882  12.913  16.265 -0.1132 -0.4121 -0.1716
 3066W        W16480   6.066   8.484   1.703  0.3914 -0.1773  0.1970
 3067W        W16481  14.149   0.583  12.535 -0.1830 -0.0646 -0.1551
 3068W        W16482  14.972   8.106  11.408 -0.0761  0.0971 -0.0456
 3069W        W16483   4.734   6.875   3.509 -0.2153  0.1186 -0.0228
 3070W        W16484   1.036   5.485   6.435 -0.1823 -0.2192 -0.1101
 3071W        W16485   2.593   7.863  12.064  0.1724  0.0557  0.0015
 3072W        W16486   7.263   3.662  12.667  0.0617  0.3274  0.0283
 3073W        W16487  10.607  11.969  13.160 -0.2015  0.2906  0.0502
 3074W        W16488   2.326   4.281  10.948 -0.3110 -0.1090 -0.2920
 3075W        W16489  10.718  17.491   3.147  0.0025  0.3650 -0.3737
 3076W        W16490  14.697   7.169  15.615  0.0858 -0.0921 -0.2684
 3077W        W16491  13.001   1.878   4.101 -0.0788 -0.0452 -0.0847
 3078W        W16492  13.653   9.182  16.020  0.0405  0.1747 -0.1518
 3079W        W16493  12.749   5.888   5.008  0.0215  0.1965 -0.0515
 3080W        W16494   8.308  16.141   1.431  0.0071 -0.0151  0.0656
 3081W        W16495  16.044  15.747  13.464  0.0287  0.0928 -0.3127
 3082W        W16496   1.203   8.343  11.180 -0.0904 -0.1203  0.1722
 3083W        W16497   2.878  14.264  15.296 -0.0550  0.1519  0.2037
 3084W        W16498   6.112   8.452  16.467  0.1005 -0.0156 -0.0661
 3085W        W16499   8.810   0.605  15.331  0.0084  0.3183 -0.1474
 3086W        W16500   9.066  15.716  14.887 -0.2373  0.1287  0.1233
 3087W        W16501   6.610   3.775   0.742  0.1867 -0.2258  0.1794
 3088W        W16502   8.871  11.710  11.341 -0.1373  0.0362 -0.1880
 3089W        W16503  12.968   6.150  14.751  0.1155  0.1184 -0.0815
 3090W        W16504  10.057   0.133  16.001 -0.1989  0.1366  0.2359
 3091W        W16505   8.549   7.688  15.739  0.0074 -0.0946  0.0250
 3092W        W16506   2.053  16.011   0.748  0.2414  0.3038 -0.0219
 3093W        W16507   7.551  11.188   5.841  0.1846 -0.3268  0.0480
 3094W        W16508   4.194   4.292   5.461 -0.0958 -0.1696  0.1334
 3095W        W16509  18.093   8.318  11.409 -0.0587 -0.2488  0.2521
 3096W        W16510   8.251   7.924  14.060  0.2932  0.1347 -0.3099
 3097W        W16511  17.749   6.419  10.891  0.0616  0.1163 -0.1099
 3098W        W16512   7.272   1.141  12.119  0.1003 -0.1298 -0.0277
 3099W        W16513  17.188   0.016   4.942 -0.0302  0.3912 -0.1218
 3100W        W16514   1.582   3.134  10.973  0.0428 -0.1714  0.0212
 3101W        W16515   2.245   5.041   5.589 -0.2588  0.1849 -0.0546
 3102W        W16516   3.532  13.162   1.315 -0.1634  0.2888 -0.2003
 3103W        W16517   9.747   8.696   4.697  0.0868  0.0842 -0.0336
 3104W        W16518   6.011  17.432   2.215 -0.0673  0.1919 -0.0797
 3105W        W16519  18.188  11.221  14.867  0.2555  0.1038 -0.1681
 3106W        W16520   5.381  12.885   6.632  0.0055 -0.1395 -0.0440
 3107W        W16521  13.620  13.923  16.062 -0.2380 -0.0527  0.0455
 3108W        W16522   3.691   6.953   1.345  0.1862 -0.2864  0.2453
 3109W        W16523   2.414  15.333   1.365  0.4438 -0.3685  0.0492
 3110W        W16524   3.379  14.792  16.109  0.0404 -0.0113 -0.0346
 3111W        W16525   6.485   7.674   2.642 -0.2532 -0.0871  0.1448
 3112W        W16526  12.778   0.327   0.137  0.4726  0.1353  0.0439
 3113W        W16527  11.567   0.631   4.215 -0.1292 -0.4971 -0.2342
 3114W        W16528   7.044  14.154  15.123  0.0727 -0.1198  0.1298
 3115W        W16529  13.025   4.975   1.638  0.3835  0.0285  0.1702
 3116W        W16530   2.704   9.484   0.322 -0.1028 -0.0726  0.0697
 3117W        W16531   3.047   6.235   4.710 -0.4238  0.3469 -0.2417
 3118W        W16532  13.218   2.030  11.184  0.2598  0.0621 -0.0697
 3119W        W16533   3.344   1.666   2.382 -0.3357  0.1679  0.0139
 3120W        W16534   2.200   5.570  13.028  0.3192  0.0635 -0.1258
 3121W        W16535   2.765   9.050  15.140  0.1877 -0.0183 -0.3159
 3122W        W16536  11.805   6.388   4.036 -0.2249  0.2194  0.1676
 3123W        W16537  18.124  10.440  10.903  0.1366 -0.1532 -0.0659
 3124W        W16538  17.617  17.973  12.432  0.2191 -0.2695  0.2882
 3125W        W16539   2.614  14.686   2.236  0.0876 -0.2584  0.2016
 3126W        W16540  18.235   8.420  14.269 -0.1625 -0.1502  0.3549
 3127W        W16541   8.251   9.557  16.021 -0.0416 -0.2113  0.2853
 3128W        W16542   4.366   3.038  12.342  0.0187 -0.1245 -0.0733
 3129W        W16543   4.471   0.044   3.926 -0.4493  0.2898 -0.2364
 3130W        W16544   5.986  10.691   3.681 -0.0237 -0.0547  0.0132
 3131W        W16545  17.055  12.345   6.563 -0.0032  0.2328  0.0453
 3132W        W16546  15.724   6.209   4.428 -0.0993  0.0047  0.2943
 3133W        W16547   0.736   2.707  15.553 -0.0982  0.1908  0.2309
 3134W        W16548  10.525   1.709   4.581  0.0530 -0.2203 -0.0507
 3135W        W16549  11.713  12.025  14.616  0.0715  0.0245  0.1308
 3136W        W16550  10.997  12.505  14.272 -0.2233  0.3324 -0.0146
 3137W        W16551  17.526  12.139   3.004 -0.1152  0.0887  0.0835
 3138W        W16552   0.954   9.461   1.939  0.0759 -0.2976  0.0329
 3139W        W16553  10.873  13.039  12.672 -0.1121  0.4648 -0.0864
 3140W        W16554   9.559   9.205  14.508 -0.1105  0.2595 -0.0295
 3141W        W16555   8.458  14.698  13.418  0.2262  0.3656 -0.0854
 3142W        W16556  13.123   5.370   0.599  0.1269  0.1031  0.1407
 3143W        W16557   2.886   0.501   3.951  0.1202  0.0900  0.0307
 3144W        W16558  17.100   1.862   4.446  0.0344  0.1991  0.3151
 3145W        W16559   4.888  14.670   4.971  0.0874  0.0336 -0.1188
 3146W        W16560   4.591  15.550  13.368 -0.0382  0.0365  0.0425
 3147W        W16561  12.626   4.421  12.390 -0.0509 -0.0953 -0.0129
 3148W        W16562   7.002  17.778  16.323 -0.0767  0.4550 -0.0621
 3149W        W16563  13.802   1.188   1.728  0.1223  0.2324  0.0931
 3150W        W16564   7.721   5.102  13.856  0.1929  0.2124  0.0550
 3151W        W16565  17.370  14.543  10.377 -0.0731 -0.2372  0.1898
 3152W        W16566  13.672  16.357   0.859 -0.0261  0.1654  0.1784
 3153W        W16567   8.526   1.750   0.029 -0.0247  0.1312 -0.0640
 3154W        W16568   8.528   1.588  12.476 -0.1600  0.2105 -0.1115
 3155W        W16569  16.715  13.049   5.990 -0.1501 -0.0490 -0.0624
 3156W        W16570   7.768   9.040  14.463  0.0895  0.1886 -0.1001
 3157W        W16571   8.312   6.119   0.786 -0.2692  0.0290 -0.0064
 3158W        W16572  14.745   4.091   0.777  0.2469  0.1610  0.1957
 3159W        W16573  10.213  18.002   5.832  0.2243  0.3119 -0.0834
 3160W        W16574  16.558  13.808   6.533  0.1960 -0.1469 -0.1110
 3161W        W16575   0.016   6.837   0.406  0.2288  0.1403 -0.0953
 3162W        W16576  14.853   6.764   5.518 -0.2631  0.0906 -0.0882
 3163W        W16577   2.489  12.208   5.091 -0.9043  0.1146 -0.0671
 3164W        W16578  16.336   3.537   3.491  0.1702 -0.0158 -0.2184
 3165W        W16579   9.011  16.257  12.464  0.1676 -0.0520 -0.2585
 3166W        W16580   7.524   1.527   2.478  0.1613 -0.1169 -0.2024
 3167W        W16581   1.373  10.787  12.432  0.0457 -0.0557 -0.1227
 3168W        W16582  16.504   2.818   5.957 -0.0051 -0.0049 -0.0473
 3169W        W16583   3.858   2.365   1.922  0.0583  0.1224  0.1854
 3170W        W16584   7.151  16.997  13.490 -0.2614  0.3490 -0.1597
 3171W        W16585  12.122   2.165   1.190 -0.0439 -0.0638  0.2998
 3172W        W16586   8.342  12.118  16.178  0.0123  0.0282  0.1259
 3173W        W16587   6.608  16.920   4.558  0.2618  0.0348 -0.2731
 3174W        W16588   0.085  18.194   4.506 -0.0495 -0.0007  0.0831
 3175W        W16589   6.338   9.842   3.917 -0.1220 -0.0688  0.1154
 3176W        W16590   9.819   4.539   4.005 -0.0487 -0.0495  0.0207
 3177W        W16591  13.485   4.323  14.565  0.0695 -0.3429  0.0112
 3178W        W16592   3.543  13.656   3.841 -0.0142  0.1492  0.1450
 3179W        W16593  17.852   6.003   4.290  0.0644 -0.2781 -0.1441
 3180W        W16594  15.218   9.749  15.952  0.1977 -0.0838 -0.0237
 3181W        W16595   6.564  11.458  15.944  0.0710  0.1004  0.0406
 3182W        W16596  15.987  13.435   5.397  0.3235  0.2698 -0.2808
 3183W        W16597   8.231   7.785   5.198  0.2322 -0.0192 -0.2010
 3184W        W16598  12.325  11.085  10.895  0.0905 -0.3289  0.2666
 3185W        W16599   0.527  17.069   6.031  0.0363  0.2287  0.0100
 3186W        W16600   9.097   7.835   1.476 -0.2255 -0.2116  0.0402
 3187W        W16601   3.085  15.519   0.268 -0.0902  0.0066  0.0604
 3188W        W16602  13.492  12.009   1.672  0.0326  0.0032  0.1900
 3189W        W16603  14.466   2.274  12.403 -0.1264 -0.0648 -0.0693
 3190W        W16604   1.745   5.410   4.709 -0.1101 -0.1677  0.0931
 3191W        W16605  13.286   1.404  14.177  0.2579 -0.1842 -0.2217
 3192W        W16606  17.392  13.804  15.549 -0.1020 -0.1393 -0.0226
 3193W        W16607   7.530   6.262   0.996 -0.2986  0.1066 -0.1188
 3194W        W16608  13.681  11.199   5.961 -0.1679 -0.1253  0.0220
 3195W        W16609   9.789  14.760   2.127 -0.1047  0.1739  0.0880
 3196W        W16610  15.955   5.450   1.678 -0.1746 -0.0793 -0.0766
 3197W        W16611  13.956  15.606   2.714  0.0559 -0.1266  0.0188
 3198W        W16612   5.811   7.347  13.678  0.4029  0.3311  0.1402
 3199W        W16613   4.237  13.407   4.154 -0.0451  0.3254  0.0685
 3200W        W16614  17.269   2.334   1.586  0.0947  0.3450  0.1674
 3201W        W16615   8.431  15.157   1.627 -0.0343 -0.0215 -0.4740
 3202W        W16616   8.729  16.915  11.733  0.2279  0.1891  0.0324
 3203W        W16617   8.968   1.214   4.163 -0.0878  0.4257  0.4077
 3204W        W16618   9.874   1.663   2.124 -0.1064  0.2199  0.3559
 3205W        W16619   0.228   7.300  14.984 -0.3873  0.2161 -0.1145
 3206W        W16620   5.312   3.001   4.641  0.1256  0.2692  0.0800
 3207W        W16621  14.188   8.679   4.484 -0.3254  0.1278 -0.0960
 3208W        W16622  11.558  11.290  15.036 -0.0842 -0.0536 -0.1872
 3209W        W16623  17.563  12.884  13.180  0.1108 -0.0187  0.3247
 3210W        W16624  10.715  13.704   2.104 -0.0736 -0.0644  0.1073
 3211W        W16625   0.364   0.484  10.769  0.0483  0.0393  0.1567
 3212W        W16626   8.932   9.148  11.646 -0.1355 -0.2908  0.2871
 3213W        W16627   2.901   3.530   0.211 -0.2016  0.0406 -0.2667
 3214W        W16628  10.029   1.752  10.508 -0.0810  0.0359 -0.2267
 3215W        W16629  11.620   6.305   0.998 -0.1403 -0.2817 -0.1357
 3216W        W16630   9.402  13.756   1.663  0.3148  0.0028  0.3838
 3217W        W16631   9.355  14.666   2.721  0.2091  0.1429  0.0893
 3218W        W16632   5.557  16.214   2.664 -0.0125 -0.1178 -0.0990
 3219W        W16633   0.606   1.614  11.490 -0.1057  0.2557  0.0672
 3220W        W16634   4.327   6.285   2.208  0.0918  0.1437 -0.0465
 3221W        W16635   2.237   1.455  12.127  0.1657  0.1150 -0.2719
 3222W        W16636   9.242   9.998  14.231  0.2051 -0.2191  0.3949
 3223W        W16637   1.990  11.680  15.048 -0.0844 -0.2575 -0.2111
 3224W        W16638  11.662  15.697   0.045  0.0382 -0.1997 -0.3775
 3225W        W16639   4.938   8.897   0.898 -0.1433  0.2214 -0.1210
 3226W        W16640  18.210  16.267   0.077 -0.0767 -0.1413 -0.2020
 3227W        W16641   4.605   4.532   0.382  0.0501 -0.1284  0.0488
 3228W        W16642   3.381  15.798  11.905  0.2595  0.0610 -0.0766
 3229W        W16643   7.429  12.070  10.885  0.2731 -0.1169 -0.1762
 3230W        W16644   7.993  12.443   2.625 -0.1502 -0.1092  0.0544
 3231W        W16645   0.231   0.843  11.549  0.0395  0.0959  0.1537
 3232W        W16646   3.486  14.645   4.897  0.0911  0.0853  0.3206
 3233W        W16647  12.212  14.982   4.576  0.1355  0.0657 -0.2442
 3234W        W16648   9.228   0.087  16.381 -0.3569 -0.1570 -0.1088
 3235W        W16649   5.608   8.723  11.928  0.2067  0.0058  0.1574
 3236W        W16650  10.642   4.641  12.519 -0.2641  0.0601  0.3620
 3237W        W16651   8.729   5.103  11.408  0.2575  0.2115  0.0044
 3238W        W16652   8.931   7.192  10.380  0.0311 -0.0664 -0.0006
 3239W        W16653  13.777  16.647   2.709  0.2134  0.3037 -0.2779
 3240W        W16654  14.608   1.342   4.675  0.0728 -0.1166  0.1640
 3241W        W16655  10.455   8.917  13.374 -0.1888  0.1520 -0.0938
 3242W        W16656  10.145  10.198   4.738  0.0188 -0.0590  0.0093
 3243W        W16657   0.875   8.729   1.634 -0.1593 -0.0968 -0.2287
 3244W        W16658   5.075   4.736   0.509 -0.2520  0.1479  0.1590
 3245W        W16659  17.479   9.906  15.672  0.0424 -0.0014 -0.1633
 3246W        W16660  13.172   7.844   5.667  0.1863  0.0218 -0.1602
 3247W        W16661   7.554   0.624  12.688  0.2297  0.1279 -0.0624
 3248W        W16662  10.847  17.710  12.515  0.2636 -0.0129  0.2130
 3249W        W16663   3.929  14.934  14.726  0.2405 -0.2585  0.0904
 3250W        W16664  13.372  16.379  15.412 -0.0394 -0.1439  0.1415
 3251W        W16665   4.785  10.344  15.320  0.4334  0.1477 -0.0773
 3252W        W16666   1.837   5.966  12.449 -0.2569  0.1515  0.0191
 3253W        W16667   4.655  15.542  14.705  0.2764 -0.1070  0.2222
 3254W        W16668   9.184  17.985   1.976 -0.2016 -0.2610  0.1563
 3255W        W16669   0.154  12.917   0.521 -0.2192  0.0664  0.1916
 3256W        W16670  16.278  16.747  14.185  0.2954  0.0693  0.1996
 3257W        W16671   8.961  16.768   0.545  0.3510 -0.1591 -0.0288
 3258W        W16672   1.344   5.981   3.676  0.0074  0.2122  0.2010
 3259W        W16673  13.755  16.075   4.937  0.5267  0.1737 -0.0939
 3260W        W16674   8.600  11.405   0.019 -0.1967 -0.1651  0.2588
 3261W        W16675   5.118  11.344  10.770 -0.0081  0.1046  0.0354
 3262W        W16676   9.153   5.290  16.345  0.0207 -0.1165  0.2006
 3263W        W16677   6.963   4.976  11.188 -0.0888 -0.0459  0.2615
 3264W        W16678  17.954   6.615   2.338 -0.1113  0.0577  0.1844
 3265W        W16679  13.362  12.184  10.007  0.0876 -0.0011 -0.0755
 3266W        W16680  10.802   4.446  15.237  0.1541  0.2152 -0.3303
 3267W        W16681   6.076  13.244   3.906 -0.0570  0.2137  0.1354
 3268W        W16682  11.391   6.246   0.466  0.0616 -0.1288 -0.0285
 3269W        W16683   7.818   9.520  15.659 -0.1375  0.0724  0.1396
 3270W        W16684  16.284   8.225   3.151 -0.1218 -0.3489  0.3216
 3271W        W16685   2.068  13.258   2.661  0.2338  0.2497  0.1347
 3272W        W16686   6.780  15.886  12.769  0.1863  0.1823 -0.0724
 3273W        W16687  15.491   3.358   2.899 -0.1065 -0.0607 -0.0312
 3274W        W16688  13.601  13.446  12.624 -0.1329  0.1051 -0.0041
 3275W        W16689  13.552   2.369  14.550  0.1367  0.1752  0.3515
 3276W        W16690   6.218   9.493  11.090  0.0133  0.1223 -0.1221
 3277W        W16691   2.318   1.698  11.714  0.1651 -0.1501  0.2828
 3278W        W16692   7.162   3.648   1.401  0.3819  0.3093  0.1922
 3279W        W16693   5.261   8.926  11.009 -0.1288 -0.0025 -0.0041
 3280W        W16694  14.333   3.189   4.984  0.1477 -0.4536  0.0046
 3281W        W16695  11.294   0.285   0.134 -0.0899 -0.1978  0.2930
 3282W        W16696   8.291  18.247   4.136 -0.3708  0.1995 -0.0877
 3283W        W16697   3.005  11.671   4.174  0.1941  0.0109 -0.2725
 3284W        W16698   7.303   2.885  10.500  0.2719  0.1625 -0.3892
 3285W        W16699   8.893   3.180   4.577 -0.2359  0.1076 -0.0791
 3286W        W16700   5.729  11.285  15.039 -0.1325 -0.3177 -0.0802
 3287W        W16701   3.869  11.094   6.183  0.2282 -0.0362 -0.1811
 3288W        W16702  13.465  16.825   3.616 -0.0044  0.1950  0.1354
 3289W        W16703   0.429   3.853  13.258  0.0633  0.0246 -0.1553
 3290W        W16704   2.478   7.832   6.735 -0.1053  0.2156  0.1126
 3291W        W16705  12.156   9.096   5.718  0.1642  0.4696  0.0123
 3292W        W16706  14.127  14.851   6.345  0.0415  0.0270 -0.0567
 3293W        W16707   8.275  17.532   2.311  0.1646  0.1192 -0.0524
 3294W        W16708  11.564  13.906  14.889  0.0606 -0.3022  0.1383
 3295W        W16709   9.844   8.585  11.752 -0.1382  0.1518  0.0197
 3296W        W16710  10.353  16.506   3.266  0.1401 -0.2401 -0.0804
 3297W        W16711  15.183   2.940  11.523  0.0761 -0.1000 -0.0351
 3298W        W16712  17.922  17.680  13.352  0.1388 -0.0869  0.0161
 3299W        W16713  15.786   7.351   3.011  0.0795  0.0243 -0.2022
 3300W        W16714   5.047  13.252   4.848  0.0221 -0.0802 -0.2152
 3301W        W16715   2.438  14.423   5.751  0.0131  0.1076  0.0687
 3302W        W16716   9.934  14.267  13.657  0.0742 -0.1826 -0.0293
 3303W        W16717  13.937   0.305  13.168  0.2018 -0.1093  0.1720
 3304W        W16718   3.794  10.377   5.604  0.1940 -0.3539 -0.0495
 3305W        W16719  11.918   4.120  11.286  0.3291  0.1733 -0.0775
 3306W        W16720  16.660   7.416  15.345  0.2540 -0.2664  0.0999
 3307W        W16721   7.862  17.006  12.246 -0.1896  0.1310  0.1601
 3308W        W16722  11.538   2.240  10.852  0.3763  0.0701  0.0129
 3309W        W16723   6.665  14.171  15.551 -0.0759 -0.3558 -0.2091
 3310W        W16724   6.113  14.166  15.707 -0.1809 -0.2286  0.0559
 3311W        W16725   1.180  14.042   1.994  0.0294 -0.0793  0.1186
 3312W        W16726  10.032   6.273  12.726  0.0217  0.4290  0.0073
 3313W        W16727   5.939   8.325   0.953  0.1156  0.3768  0.2731
 3314W        W16728  10.182   2.594   2.434 -0.0222  0.0486 -0.1114
 3315W        W16729  12.269  16.545  14.612 -0.1999 -0.1052  0.1116
 3316W        W16730  17.394  11.367   0.629  0.1319 -0.1046  0.0413
 3317W        W16731   3.960   3.835   3.106 -0.0102  0.4266 -0.0786
 3318W        W16732   0.810  11.258  14.868  0.3525 -0.1933  0.0803
 3319W        W16733  14.596   3.334  13.122 -0.0064  0.0313 -0.2134
 3320W        W16734  15.614   8.074  11.679  0.1387  0.1555  0.0893
 3321W        W16735   4.859   6.233   6.343 -0.0956  0.0508 -0.2190
 3322W        W16736   6.894   3.921   5.258 -0.0516 -0.2446 -0.0112
 3323W        W16737   8.355   8.731  13.736 -0.1259  0.2957 -0.2801
 3324W        W16738  17.876   6.553  16.384 -0.0258 -0.1027  0.1927
 3325W        W16739  16.968  12.850  15.334 -0.0889  0.1175  0.0235
 3326W        W16740  14.858   7.782   4.224 -0.0768 -0.1245  0.1156
 3327W        W16741   5.342  16.113   0.863 -0.0694 -0.0058 -0.1741
 3328W        W16742   2.320  15.539   0.065 -0.3047 -0.4812 -0.1692
 3329W        W16743   8.787   6.944   1.870  0.0431 -0.0609 -0.3077
 3330W        W16744   7.052   8.503   0.309 -0.0103 -0.0994 -0.2740
 3331W        W16745   5.182  12.712  12.422  0.0253  0.1978 -0.0441
 3332W        W16746   7.049   6.789  14.498 -0.1430 -0.3823  0.1090
 3333W        W16747  14.909   4.974  11.812 -0.0617 -0.0979  0.0930
 3334W        W16748  15.058  17.896  14.293  0.2101  0.0640  0.1409
 3335W        W16749  17.903   4.770  11.071  0.1508  0.0484 -0.1727
 3336W        W16750   1.313  14.971  14.731  0.2545  0.1759 -0.1945
 3337W        W16751  15.687  10.296  13.511 -0.1797  0.2856 -0.0624
 3338W        W16752   0.759   9.384   0.429  0.0512 -0.4939  0.2603
 3339W        W16753   2.815   8.724  15.835 -0.0769 -0.0694 -0.2038
 3340W        W16754   6.080   6.558  16.253  0.1465 -0.1476 -0.2037
 3341W        W16755  10.100   5.949  12.344  0.0716  0.1521  0.1092
 3342W        W16756   0.243   1.895  11.311 -0.0300  0.4067  0.1929
 3343W        W16757  14.675  14.153  15.739  0.2226  0.0770  0.2770
 3344W        W16758   5.805  12.589  11.728  0.0325 -0.0050 -0.0165
 3345W        W16759   0.762  14.536   0.027 -0.0638 -0.0393 -0.0911
 3346W        W16760  13.526  16.205  16.444  0.0608 -0.0209  0.0919
 3347W        W16761   3.947  17.623   2.606  0.0330  0.1547  0.2517
 3348W        W16762   8.423  11.793   4.680 -0.1820  0.0162 -0.3242
 3349W        W16763  10.885   1.546  10.763  0.0596  0.0801 -0.2542
 3350W        W16764   7.219   1.622  14.292 -0.1863 -0.0759 -0.1394
 3351W        W16765  15.806   9.921   2.555  0.0526 -0.0345 -0.2185
 3352W        W16766   9.568   6.270   3.746 -0.2049  0.0528 -0.1469
 3353W        W16767  12.620   9.249   1.579  0.2051  0.1284 -0.1408
 3354W        W16768   0.266   9.040   3.756 -0.0634 -0.0175  0.0452
 3355W        W16769  14.650   1.037  13.031  0.0935  0.1261 -0.2081
 3356W        W16770  13.488  10.154  13.538  0.1644 -0.1126  0.1381
 3357W        W16771   8.411  13.402   0.044  0.0838 -0.0055 -0.1905
 3358W        W16772   1.396   6.808   4.022 -0.2441 -0.2937  0.0425
 3359W        W16773   2.519   7.904   5.577 -0.3484  0.1179 -0.0704
 3360W        W16774  11.179   4.723  13.593  0.2770  0.0370  0.2061
 3361W        W16775   6.778   8.744  11.272 -0.0602  0.0683  0.0504
 3362W        W16776   9.300   1.143   5.184  0.0255 -0.1405  0.0567
 3363W        W16777  15.197   8.683   2.153 -0.0936 -0.3762  0.0536
 3364W        W16778  17.142  15.605   3.452  0.1596  0.4251  0.1209
 3365W        W16779  14.486   3.451  15.675  0.0963  0.0454 -0.1592
 3366W        W16780   5.365  18.178   0.340 -0.0163 -0.3974  0.1034
 3367W        W16781  11.426   8.887  15.655 -0.3053 -0.3251  0.2738
 3368W        W16782   8.826   5.327   5.713  0.4623  0.2091  0.4647
 3369W        W16783   8.791   3.967  15.204  0.2167  0.0297 -0.1440
 3370W        W16784   6.863  17.654   1.883  0.2433  0.3773  0.1306
 3371W        W16785  10.412   9.524   5.628 -0.1506 -0.2121  0.0957
 3372W        W16786  14.442   0.598   5.598 -0.4083  0.2525 -0.3174
 3373W        W16787   1.418   1.571  16.058 -0.1005  0.0682  0.0343
 3374W        W16788   7.045  14.430  12.253 -0.2222  0.2197  0.0927
 3375W        W16789  14.863   5.477  12.605 -0.2063  0.1724 -0.0206
 3376W        W16790   6.869  10.853  12.753  0.1209  0.0642  0.5068
 3377W        W16791   2.926   7.812  11.652  0.0490  0.1465  0.2264
 3378W        W16792  12.055   1.493  13.888 -0.1913  0.3011  0.0186
 3379W        W16793  17.653   8.852   2.426  0.0600 -0.1773  0.0757
 3380W        W16794  11.680   3.987  12.144 -0.3415  0.0146  0.0977
 3381W        W16795  10.341   7.963  14.255  0.1623 -0.0661 -0.0863
 3382W        W16796  16.393   2.096   3.748 -0.2191  0.4179 -0.0201
 3383W        W16797  14.034   9.862   5.421 -0.2094 -0.0724 -0.0897
 3384W        W16798   2.943  15.662   4.093  0.0936  0.0242 -0.2825
 3385W        W16799   3.524   9.940  12.774  0.1406  0.0095 -0.0332
 3386W        W16800   6.122  10.425  13.213 -0.3357 -0.0991  0.1384
 3387W        W16801   8.777  14.016   2.435  0.1667  0.0629 -0.0648
 3388W        W16802   1.604  15.836   4.521 -0.0369 -0.1716  0.3516
 3389W        W16803  15.634  14.553   3.351  0.0901 -0.0377 -0.0388
 3390W        W16804   6.852   6.385  14.189 -0.0474  0.0619 -0.2643
 3391W        W16805   0.419   8.242   4.051  0.0601  0.0182 -0.2191
 3392W        W16806   3.691   6.820  14.374  0.3414  0.1982 -0.3577
 3393W        W16807   1.871   7.349  12.108 -0.3904 -0.3448 -0.1482
 3394W        W16808  11.308  12.107  14.354 -0.0580 -0.0080 -0.0797
 3395W        W16809   3.950  13.602  11.459 -0.1135  0.0031  0.0181
 3396W        W16810  12.522   1.759   3.561 -0.2351  0.0597  0.0891
 3397W        W16811  11.138  13.163   3.169  0.4066 -0.0926  0.0323
 3398W        W16812  12.207  13.428   5.006 -0.0566  0.1317 -0.0475
 3399W        W16813   5.195   2.636  14.998 -0.2893  0.0151  0.0967
 3400W        W16814   5.823  15.687   5.099  0.0172  0.2547  0.3928
 3401W        W16815   5.349   8.951  13.695 -0.0640  0.1304 -0.0346
 3402W        W16816  13.777   4.860   1.992 -0.2728  0.2176 -0.0594
 3403W        W16817  11.310   6.739   3.929  0.1436  0.4156 -0.0178
 3404W        W16818   0.884   8.346   2.524  0.1759 -0.0524 -0.1087
 3405W        W16819   7.031   9.194   5.678 -0.1449 -0.0248 -0.2080
 3406W        W16820   9.329  13.619  15.645  0.1633  0.2298 -0.3366
 3407W        W16821   7.198   8.900  14.024  0.1041  0.2440  0.0223
 3408W        W16822   7.210   9.121  15.166  0.0321  0.2076  0.2106
 3409W        W16823   2.069   7.085  16.167  0.0195 -0.0627 -0.0362
 3410W        W16824  15.889  10.636  15.314  0.1009  0.3515 -0.1065
 3411W        W16825  10.841   7.307  15.571 -0.0984  0.0584  0.3160
 3412W        W16826  12.785   2.313   4.390  0.1609 -0.1325 -0.0626
 3413W        W16827   4.476   6.962  15.526  0.2852  0.2829 -0.4533
 3414W        W16828   7.990   1.943  13.879  0.3489 -0.1602 -0.0792
 3415W        W16829  14.290  14.236   4.743 -0.3955  0.0873 -0.2040
 3416W        W16830   7.208   1.003   4.286 -0.1224 -0.0624 -0.0059
 3417W        W16831  16.126   4.179   1.982  0.3301 -0.2326 -0.0807
 3418W        W16832  15.358  16.995  14.232 -0.1237 -0.2752  0.1034
 3419W        W16833  11.332   1.342  10.815  0.1093  0.1118 -0.0173
 3420W        W16834   5.357   4.222  13.726 -0.1928  0.1821  0.1491
 3421W        W16835   0.849  16.894  10.416  0.0711  0.0169 -0.1488
 3422W        W16836   5.527  16.491  12.819 -0.1425 -0.0692  0.1750
 3423W        W16837   6.488  10.703   4.457  0.0786 -0.2265  0.1594
 3424W        W16838  16.905   7.363   5.518 -0.0823 -0.0427  0.0848
 3425W        W16839   4.247  12.567   3.460 -0.0120 -0.0130 -0.1143
 3426W        W16840  15.312   7.297  10.939  0.2786 -0.1228 -0.0278
 3427W        W16841  14.969  15.188  14.320  0.1853  0.0079 -0.1703
 3428W        W16842  17.368   9.739   0.164  0.0649 -0.3073 -0.2587
 3429W        W16843   5.615   5.321   3.897  0.0235  0.2993  0.4127
 3430W        W16844  12.938   7.442  16.199  0.1252  0.0202  0.1572
 3431W        W16845   8.230   7.495   4.442 -0.0760 -0.1544  0.0693
 3432W        W16846   8.139  12.783   0.424 -0.5341 -0.1049  0.0079
 3433W        W16847   5.428  10.677  12.728 -0.0606 -0.0135  0.2368
 3434W        W16848  17.018   9.181   5.436 -0.1130 -0.3622  0.0022
 3435W        W16849   3.948  11.781  13.522 -0.2412 -0.0044 -0.0255
 3436W        W16850   1.792   6.613  16.062  0.1702 -0.0795  0.2964
 3437W        W16851   9.007  17.007  12.664 -0.0213  0.0100  0.3708
 3438W        W16852   6.189  10.327  11.790 -0.2127 -0.0930 -0.4418
 3439W        W16853   5.998   2.390  10.318 -0.1208 -0.2344 -0.0588
 3440W        W16854   7.992   2.174   5.940 -0.1840 -0.1128  0.2087
 3441W        W16855   5.938   8.810   2.946 -0.2689 -0.1938  0.2365
 3442W        W16856  18.205   5.078   5.465 -0.2048 -0.1062  0.1954
 3443W        W16857   5.065  15.798   1.590  0.1822  0.4652  0.0678
 3444W        W16858   2.217  14.709   4.881 -0.2214  0.0214  0.2819
 3445W        W16859   3.068   2.975   1.894 -0.0727  0.1019 -0.2111
 3446W        W16860   0.652  12.886  14.335  0.3262  0.2585  0.1689
 3447W        W16861   3.952  10.611  12.611  0.0693 -0.1486  0.4807
 3448W        W16862   4.242  18.021   0.089  0.0362 -0.2176 -0.4970
 3449W        W16863   0.336   7.639  13.835  0.0296  0.0883 -0.1463
 3450W        W16864  13.655   7.747   2.112 -0.0470  0.0861  0.0848
 3451W        W16865  18.120   2.480   4.573  0.0257 -0.3609  0.1273
 3452W        W16866  17.169  15.878   1.993 -0.1060  0.0562 -0.2047
 3453W        W16867   0.357   1.437   2.697 -0.1352 -0.2795 -0.1632
 3454W        W16868  12.350   3.009   2.717 -0.1563  0.3576 -0.2779
 3455W        W16869   2.761   5.639   3.494  0.0631  0.1805  0.2684
 3456W        W16870  14.554   7.449   4.868 -0.1882 -0.4413  0.0049
 3457W        W16871  13.671   0.717  13.333  0.0512 -0.2687  0.0867
 3458W        W16872   9.603   3.329  13.819  0.0843  0.4379 -0.0006
 3459W        W16873  17.489   1.764   4.822 -0.0219 -0.0697 -0.1434
 3460W        W16874   8.188   3.121   5.279 -0.2376 -0.1013 -0.2200
 3461W        W16875   5.114  14.168   0.936  0.0444  0.2232 -0.0825
 3462W        W16876  17.232   8.161   1.017  0.0441 -0.1382 -0.2651
 3463W        W16877   7.026   9.608   0.038 -0.0024 -0.4740 -0.3483
 3464W        W16878   4.345   7.646   5.641  0.0391 -0.1654  0.2163
 3465W        W16879   9.032  15.900   5.055  0.1066  0.0881 -0.0680
 3466W        W16880   0.576   7.086  11.377 -0.0804 -0.1947 -0.1446
 3467W        W16881   0.795   9.501   3.994  0.1151 -0.3149 -0.0014
 3468W        W16882  14.477  17.636  13.379 -0.0608  0.0306  0.3290
 3469W        W16883  16.726   9.679   1.868  0.1752 -0.0213  0.1939
 3470W        W16884  17.059  18.037   0.953 -0.0642  0.0240 -0.0460
 3471W        W16885  10.266  11.806   2.332 -0.0859 -0.0816  0.1729
 3472W        W16886  10.740  13.610  15.005 -0.0428  0.0188 -0.0422
 3473W        W16887   3.307   1.288  15.286  0.1170  0.0859 -0.0958
 3474W        W16888   4.775  13.569  16.046  0.3112  0.0120  0.0879
 3475W        W16889   9.392   6.940  13.029 -0.0671 -0.0305 -0.1433
 3476W        W16890  18.124  16.369  14.909 -0.0369 -0.1260  0.1626
 3477W        W16891  14.406  13.217   3.396  0.0002  0.5013  0.1456
 3478W        W16892   2.713  15.836   0.176 -0.1291 -0.4955  0.1444
 3479W        W16893   3.987   9.132   6.147 -0.0791 -0.2437  0.1757
 3480W        W16894   8.281   2.871   5.698  0.0632  0.0668 -0.0412
 3481W        W16895  14.041   4.940   3.782 -0.0818  0.2742 -0.1498
 3482W        W16896  12.977   7.517   5.266 -0.3042 -0.0235  0.2442
 3483W        W16897   1.562   0.668   5.279 -0.0717 -0.0602 -0.2178
 3484W        W16898  14.664  10.696  13.012  0.1776 -0.0969  0.1554
 3485W        W16899  12.884  17.948  14.476  0.0210 -0.2928 -0.1113
 3486W        W16900  15.829  14.002  11.617 -0.0116  0.2779  0.0732
 3487W        W16901   8.189   1.592   1.849 -0.0202 -0.1674 -0.1853
 3488W        W16902   4.584   6.760   3.044 -0.1378 -0.2545 -0.1333
 3489W        W16903  10.877   6.793  14.866  0.1447  0.1775  0.1123
 3490W        W16904  11.881  11.276   0.959  0.0248  0.1478 -0.1546
 3491W        W16905   2.973   9.535  16.343  0.2147 -0.1369  0.2029
 3492W        W16906   8.428  12.511  12.862 -0.0331 -0.0837  0.1015
 3493W        W16907  14.462  12.146   1.548 -0.1647 -0.0390  0.1817
 3494W        W16908  11.980   9.290   5.321 -0.2221 -0.0213 -0.2307
 3495W        W16909   2.573   5.499   6.298 -0.2678 -0.0562  0.3660
 3496W        W16910   4.576   6.427  16.206 -0.1160  0.0119 -0.2028
 3497W        W16911  16.671   5.132   1.504  0.0112 -0.0674  0.0799
 3498W        W16912  10.601   2.441  12.312 -0.1066 -0.0995  0.1582
 3499W        W16913  16.643   5.588   3.504 -0.0646  0.0567 -0.1659
 3500W        W16914  18.065   8.158  12.679 -0.0642 -0.2944  0.0477
 3501W        W16915   4.174  17.482  14.727 -0.0369 -0.2229 -0.0215
 3502W        W16916  16.931  17.388  15.066  0.0430 -0.2360  0.1088
 3503W        W16917   1.418   8.797  16.252 -0.0177  0.3990 -0.0447
 3504W        W16918   7.456   2.945  12.904 -0.2143 -0.0389 -0.2488
 3505W        W16919  10.410   9.820   5.238 -0.2652  0.3313  0.1141
 3506W        W16920  13.583  11.858   3.736  0.0235  0.0126 -0.0975
 3507W        W16921  15.590  17.266   5.310  0.3152 -0.0052  0.0457
 3508W        W16922   6.732   0.926  14.874  0.2310  0.0097  0.1877
 3509W        W16923   8.839   8.448   4.423 -0.0348  0.1490  0.0398
 3510W        W16924   3.431   2.025   3.741 -0.0713  0.1358 -0.2835
 3511W        W16925  10.781   3.199   3.837  0.1739  0.2028 -0.0115
 3512W        W16926   3.037  11.764   1.615 -0.3029  0.3875 -0.1011
 3513W        W16927   2.557  17.980  11.612  0.0611  0.0976 -0.1343
 3514W        W16928   5.462  13.245  15.108  0.2982 -0.0914  0.0575
 3515W        W16929  10.125   5.395   1.871  0.0942 -0.1011 -0.1171
 3516W        W16930   0.032   5.587   3.452  0.2703 -0.3681 -0.2296
 3517W        W16931   0.980   7.877   2.145  0.0179  0.0571 -0.0321
 3518W        W16932   8.753   3.247   2.022  0.0989 -0.0992  0.0865
 3519W        W16933   7.917   6.039  13.267  0.4791 -0.0522 -0.0174
 3520W        W16934  14.702  11.129   2.577 -0.2652  0.1115  0.0869
 3521W        W16935   7.750  14.007  13.416 -0.0477 -0.1402  0.1333
 3522W        W16936   9.080   2.872   5.892 -0.1184 -0.2195  0.2648
 3523W        W16937   1.822   6.371  15.577 -0.1276  0.0616 -0.0570
 3524W        W16938   4.032   9.667   5.920  0.2132 -0.2152  0.0776
 3525W        W16939  13.166  11.310   2.193  0.1316 -0.0595 -0.3217
 3526W        W16940  16.147   4.397  14.686  0.0799 -0.1542 -0.1744
 3527W        W16941  10.733  16.459   0.149 -0.2236 -0.0498  0.0074
 3528W        W16942  16.475  10.381  10.822  0.0731  0.0861 -0.1285
 3529W        W16943  17.326   7.523   1.713 -0.3246 -0.1938 -0.1556
 3530W        W16944  12.491  12.017   0.093  0.0643 -0.0233 -0.2944
 3531W        W16945   3.304  14.039  16.414 -0.1178  0.0295 -0.4020
 3532W        W16946  11.046   0.488   1.029  0.0313 -0.0236  0.0673
 3533W        W16947   9.309   4.753   1.130  0.3359 -0.2038 -0.0325
 3534W        W16948   6.067  16.756  13.405 -0.5164  0.0637 -0.2417
 3535W        W16949  18.005   9.340  16.169  0.0917  0.0460  0.1800
 3536W        W16950   4.138  14.359   3.328  0.1229  0.1999  0.1547
 3537W        W16951  12.642  11.566   0.074 -0.1880 -0.0473 -0.0452
 3538W        W16952   6.092   4.141  14.801  0.1008  0.1541 -0.1134
 3539W        W16953  18.025  17.912   1.915  0.0648 -0.0169 -0.0771
 3540W        W16954  16.395   8.010  11.602  0.1537 -0.2506 -0.0454
 3541W        W16955   0.860  15.902   0.215 -0.1030 -0.0372  0.1982
 3542W        W16956  17.737   4.217  15.965 -0.0142  0.0200 -0.1128
 3543W        W16957   3.744  15.471   2.468  0.0113  0.1255  0.0451
 3544W        W16958  15.443  11.947  10.803  0.0172 -0.2624 -0.2538
 3545W        W16959   9.744   4.146   0.617  0.1278 -0.1543 -0.0625
 3546W        W16960   5.482  11.640   6.165 -0.0902 -0.0047 -0.1083
 3547W        W16961  11.088   6.167  14.609  0.2486 -0.1877 -0.1541
 3548W        W16962  16.000   4.733  13.300  0.1700  0.0319  0.1145
 3549W        W16963  13.225  17.290   6.323 -0.0494  0.1501 -0.0888
 3550W        W16964   0.878   2.543   5.600 -0.2597 -0.2267 -0.0445
 3551W        W16965  17.157   7.835   0.697  0.2133 -0.1079 -0.0673
 3552W        W16966  13.641   9.499   6.357 -0.0125 -0.2243  0.2363
 3553W        W16967   5.111   9.512   1.030 -0.2328 -0.1941 -0.2521
 3554W        W16968  12.931   4.272  15.901  0.1972 -0.0905  0.3188
 3555W        W16969  17.865   8.926   0.581  0.0884  0.1960 -0.0748
 3556W        W16970  13.880  14.182   0.983 -0.1095  0.0934  0.0548
 3557W        W16971   0.527   6.060   5.579  0.0469  0.2268  0.2894
 3558W        W16972   5.805  10.411  14.558 -0.0252 -0.0324  0.3090
 3559W        W16973   6.406   2.282   1.351  0.1826 -0.3115 -0.0069
 3560W        W16974   3.522  11.393  11.496 -0.0651  0.0292  0.1280
 3561W        W16975  15.867  15.257   2.915  0.0796 -0.2880  0.2117
 3562W        W16976   5.341   1.254   5.301  0.0922  0.1391 -0.2061
 3563W        W16977  11.443   0.668  13.097 -0.2129  0.0011 -0.3730
 3564W        W16978   4.583  17.569  11.314 -0.2193 -0.0491 -0.0014
 3565W        W16979   2.718  15.691  12.998  0.0916 -0.0956  0.0606
 3566W        W16980   6.593   7.276   3.100 -0.1950  0.0181 -0.0224
 3567W        W16981   9.155  10.591  12.909 -0.3207 -0.0977  0.2048
 3568W        W16982   6.783   4.349   4.395  0.0339  0.2347 -0.3021
 3569W        W16983   0.321   6.200  13.212 -0.4385  0.1116  0.5272
 3570W        W16984   7.855   8.379   1.019  0.1166 -0.3439 -0.0032
 3571W        W16985   3.509  12.254  12.388  0.0131 -0.1702  0.2307
 3572W        W16986   6.927  12.693  11.938 -0.1829 -0.0837  0.3415
 3573W        W16987  16.193  16.753   0.831 -0.0027  0.0516 -0.0172
 3574W        W16988   0.770   6.747  13.182  0.2520  0.0131  0.3579
 3575W        W16989   8.582  14.650  16.072 -0.0884  0.3243  0.1500
 3576W        W16990   2.267   9.088   0.486  0.0856  0.0412 -0.0670
 3577W        W16991  11.587  13.152   0.458 -0.0129 -0.1504  0.0588
 3578W        W16992  16.673  13.659   6.058 -0.0544  0.1243  0.2664
 3579W        W16993  16.535   5.506   4.442  0.0781 -0.0950 -0.0533
 3580W        W16994   4.439   8.586  11.374 -0.2997 -0.1253 -0.1097
 3581W        W16995  14.564  15.714  13.807  0.0661 -0.0832 -0.0818
 3582W        W16996  15.293  16.687   0.492  0.2591  0.0382  0.2211
 3583W        W16997  16.433  13.922   0.151  0.1904  0.0810 -0.0973
 3584W        W16998  12.673  12.206   4.844  0.0572  0.0001 -0.0031
 3585W        W16999  17.642  15.931   3.973 -0.0552  0.0719 -0.0604
 3586W        W17000  15.438   1.063   0.116  0.0866 -0.1722 -0.0265
 3587W        W17001  15.625   0.317   0.745 -0.1833  0.2087  0.0286
 3588W        W17002   9.343   5.120   2.954 -0.2097  0.0950 -0.4034
 3589W        W17003  15.432  17.074   3.968 -0.0421  0.0841 -0.3546
 3590W        W17004   9.886  17.915  13.109  0.0853 -0.0680 -0.0232
 3591W        W17005  11.812  14.517  16.467 -0.1852 -0.0605 -0.1600
 3592W        W17006   1.726  15.819  14.773 -0.0049  0.1472 -0.0323
 3593W        W17007  13.213  17.649   3.164  0.4535 -0.1292  0.2890
 3594W        W17008   1.061   7.917   2.688  0.1705 -0.0677  0.2807
 3595W        W17009   0.413  13.393  13.069  0.3141  0.1882  0.0174
 3596W        W17010   7.871   7.992   1.481 -0.2662  0.1099 -0.0602
 3597W        W17011   2.384  12.468   4.550  0.1418  0.1924  0.2889
 3598W        W17012   8.851   6.723  10.893 -0.0919  0.0737 -0.0799
 3599W        W17013   0.338   7.195   0.631 -0.2095 -0.2604  0.3506
 3600W        W17014   5.533   0.783   1.325  0.4429 -0.1406 -0.0094
 3601W        W17015  16.580   9.581   1.351 -0.1744  0.2009  0.2720
 3602W        W17016  12.196   8.113  13.602 -0.1055 -0.2446  0.1080
 3603W        W17017   8.495   5.984  15.114  0.3064  0.2750 -0.0736
 3604W        W17018  13.478   3.523   4.893  0.0655 -0.0119  0.1707
 3605W        W17019   2.567   7.971  13.624 -0.2985 -0.2295 -0.0813
 3606W        W17020   6.060  12.947   0.693 -0.3046  0.0523  0.1815
 3607W        W17021  14.510   2.538  11.135  0.0789 -0.1155  0.3276
 3608W        W17022   4.276  11.366  13.604  0.0975  0.0345 -0.0330
 3609W        W17023  16.776   2.339   1.893  0.0005 -0.2166  0.3245
 3610W        W17024  11.387  10.484   0.818  0.2781  0.2454 -0.0291
 3611W        W17025  15.473   2.811  14.735  0.0386  0.0305  0.0096
 3612W        W17026   3.215  11.895  12.141  0.3839  0.0522  0.1661
 3613W        W17027  17.313  15.352   5.724 -0.0647 -0.1136 -0.0207
 3614W        W17028  11.942  18.256   5.840  0.0324  0.1259 -0.1882
 3615W        W17029  18.113  13.468   1.963 -0.1245  0.1041 -0.1015
 3616W        W17030  10.994   1.072  11.118  0.1775  0.0793 -0.5877
 3617W        W17031   5.774  17.599  11.958 -0.0379 -0.1240  0.0205
 3618W        W17032  13.735  12.101   2.129 -0.0011  0.1584 -0.2394
 3619W        W17033  15.893   1.160  13.412 -0.1903  0.0021  0.0375
 3620W        W17034  13.331   9.283  15.460  0.3304 -0.0444 -0.0048
 3621W        W17035   2.241  14.861   2.579  0.1353 -0.1048 -0.0280
 3622W        W17036   3.475   4.446  11.691 -0.1217 -0.6330  0.1239
 3623W        W17037  11.758  11.398   4.229  0.1538 -0.2843  0.0950
 3624W        W17038  10.340  16.602   1.763 -0.2072 -0.0545  0.0127
 3625W        W17039  17.483   4.612  13.561  0.1041 -0.0342 -0.2077
 3626W        W17040   2.810  18.028   2.011  0.0108  0.3026  0.2480
 3627W        W17041  16.863   6.733  11.968 -0.1258 -0.1126 -0.2618
 3628W        W17042  11.975   6.718  13.055  0.1117 -0.0052 -0.0181
 3629W        W17043  13.842   8.034  15.921  0.0098  0.0552 -0.1676
 3630W        W17044   0.590  10.881   5.793 -0.0242  0.2316  0.1436
 3631W        W17045  10.485  11.015  10.917  0.1509  0.1549  0.0756
 3632W        W17046   5.525   6.518   5.382 -0.0915 -0.0471  0.1418
 3633W        W17047   8.654   8.056  11.837 -0.2041  0.0863 -0.1014
 3634W        W17048  14.607   2.821   9.773 -0.0129 -0.2330  0.1717
 3635W        W17049  10.987  12.550   0.224 -0.1315  0.1706 -0.1374
 3636W        W17050  14.283  10.590  15.910  0.0549  0.0648  0.3539
 3637W        W17051   8.377   6.496  14.960  0.1314 -0.0831  0.2453
 3638W        W17052  15.098  10.984  12.454  0.2176  0.1410 -0.2615
 3639W        W17053  11.459   8.617  15.208 -0.1440 -0.2732 -0.2461
 3640W        W17054   2.477   4.766  10.958  0.0484  0.2187  0.3351
 3641W        W17055   9.891   4.279  16.136  0.0755 -0.1908 -0.2710
 3642W        W17056   0.596  11.962  12.763  0.0329 -0.1889  0.1358
 3643W        W17057   5.043   3.371  15.503 -0.0705  0.2472 -0.0563
 3644W        W17058  13.440  10.914  11.872 -0.0881 -0.0410 -0.0555
 3645W        W17059   7.595   7.106  13.691  0.0476 -0.2129  0.0514
 3646W        W17060   7.371   0.159  12.772 -0.0367 -0.0572 -0.0293
 3647W        W17061  15.751  11.488   3.249  0.1010  0.0092 -0.2922
 3648W        W17062   4.207   2.325  13.044 -0.3059 -0.1074 -0.1646
 3649W        W17063   8.429   4.613   5.325  0.2638 -0.0665  0.0853
 3650W        W17064  17.842   9.454  13.928 -0.0533  0.0700  0.0404
 3651W        W17065   6.972   8.606  13.723  0.0123  0.1937 -0.1733
 3652W        W17066  14.004   2.828   0.476  0.2413 -0.2113 -0.2324
 3653W        W17067   4.923   3.322   3.684 -0.2953  0.0218  0.2079
 3654W        W17068   9.552   4.180  14.929  0.0437 -0.4670 -0.1409
 3655W        W17069   8.936   4.467  10.282 -0.4731  0.1300 -0.0528
 3656W        W17070   3.952   9.621   2.195 -0.1623 -0.0759  0.1611
 3657W        W17071  14.508   3.805   3.381 -0.0967  0.0125 -0.0118
 3658W        W17072  15.194   2.296   1.508 -0.0817  0.1913 -0.1529
 3659W        W17073  16.313  14.252  13.449 -0.3228  0.0130  0.3695
 3660W        W17074  14.863  10.751  13.747  0.1889 -0.0173  0.1730
 3661W        W17075  16.023  12.646  11.401 -0.0066 -0.5176  0.2755
 3662W        W17076  11.505   1.806  10.058  0.0665  0.1566 -0.3757
 3663W        W17077   4.158  16.930   4.033  0.0023 -0.0022  0.0521
 3664W        W17078   4.875  16.052   3.712  0.2264 -0.0766  0.1963
 3665W        W17079   5.547  18.027  12.221 -0.2525 -0.2465 -0.3185
 3666W        W17080  11.117   0.421  14.409  0.2533  0.1042 -0.1385
 3667W        W17081  11.100   9.026   2.498  0.2800  0.0244 -0.0101
 3668W        W17082  12.788  17.930  15.844  0.0161  0.1130 -0.4180
 3669W        W17083   3.235  15.133  16.462  0.1189 -0.0864  0.0771
 3670W        W17084   0.049  13.310   5.246 -0.1318 -0.0977 -0.2684
 3671W        W17085   8.342   7.289   2.501 -0.2701 -0.2070 -0.0062
 3672W        W17086   4.834  12.962   2.741  0.1319  0.0446 -0.0641
 3673W        W17087  14.367  10.817   6.423  0.0423  0.0474  0.5185
 3674W        W17088  14.986  14.866   2.705  0.3375  0.0117  0.0352
 3675W        W17089   1.195   8.235  14.280 -0.0848 -0.0976 -0.0201
 3676W        W17090   9.422  11.021  12.191 -0.1694  0.0942 -0.1614
 3677W        W17091  11.122  11.673   3.333  0.1111 -0.2340  0.1396
 3678W        W17092   4.453  14.097  14.837 -0.3444 -0.1498  0.1148
 3679W        W17093   1.298   5.204   0.854 -0.2995 -0.1208  0.0766
 3680W        W17094  14.448   3.920   0.372 -0.2520 -0.1385 -0.0067
 3681W        W17095   4.675  12.463   3.689 -0.1679  0.0845  0.2408
 3682W        W17096   0.016  16.848  10.452 -0.0071 -0.1515 -0.1701
 3683W        W17097   0.956  10.074  13.122  0.2080  0.0608  0.2213
 3684W        W17098  10.510  15.168   1.972 -0.0327  0.1916 -0.2197
 3685W        W17099   4.975   9.031  15.512 -0.1111  0.3686 -0.1696
 3686W        W17100   0.122  16.876  14.345 -0.2340  0.2671 -0.1639
 3687W        W17101   1.344  17.829  16.059 -0.0040  0.2149 -0.2501
 3688W        W17102  15.173   4.188  13.072 -0.0702 -0.1420  0.0483
 3689W        W17103   5.293  10.568   5.176  0.1671 -0.1313  0.1463
 3690W        W17104   6.540  14.704   1.868  0.1641  0.2957  0.5257
 3691W        W17105  13.308   2.322   4.137  0.0676  0.0986 -0.2785
 3692W        W17106   4.641   3.687   1.109 -0.2379 -0.0337  0.2624
 3693W        W17107   1.469  13.285  11.047 -0.2313  0.2151 -0.3729
 3694W        W17108   1.588   0.418   3.610  0.2155  0.0614 -0.1111
 3695W        W17109   8.273   5.816   1.659 -0.1087  0.1953 -0.0004
 3696W        W17110   9.859  12.366   0.599 -0.1975 -0.1863  0.1565
 3697W        W17111  11.759   1.634   2.310 -0.0570 -0.0805  0.0154
 3698W        W17112   8.067  14.214  15.473  0.2650 -0.1873  0.2286
 3699W        W17113   5.136  16.726   2.904 -0.0563  0.0501  0.0474
 3700W        W17114  12.738  18.097   4.343  0.1274 -0.3197 -0.1529
 3701W        W17115   6.531   6.113  14.473 -0.1242  0.0950 -0.2184
 3702W        W17116   1.389   4.834  11.815 -0.0034  0.0870 -0.2989
 3703W        W17117   6.421   3.877  15.108  0.0302 -0.1973 -0.0057
 3704W        W17118  17.469   7.681   2.815  0.0974  0.0784  0.2056
 3705W        W17119   5.919  16.402  16.059  0.2393  0.1236  0.1447
 3706W        W17120  14.739   5.566  14.959  0.0833  0.0304  0.1612
 3707W        W17121   7.004   0.672  10.487  0.0485 -0.0218  0.0750
 3708W        W17122   2.387  10.362   0.645 -0.3579  0.1860  0.2198
 3709W        W17123   3.171  10.250  13.828  0.1554  0.0765 -0.0672
 3710W        W17124   1.386   2.469   1.840  0.2765  0.0835  0.0140
 3711W        W17125   2.253  17.934  12.690 -0.2239 -0.1306 -0.2055
 3712W        W17126  12.257  14.168  13.563 -0.0153 -0.0796 -0.2499
 3713W        W17127   0.984  15.721  11.799  0.0156  0.1748  0.1397
 3714W        W17128  12.057  11.522  13.849 -0.3138  0.0238  0.0340
 3715W        W17129   9.986   2.256  13.759  0.0670  0.1820  0.0640
 3716W        W17130   2.651   4.226  11.405 -0.1460  0.1539 -0.2172
 3717W        W17131   3.273   6.671  14.704 -0.1265 -0.0587 -0.1562
 3718W        W17132   5.684  11.552  11.864  0.1284 -0.1001  0.1232
 3719W        W17133   6.560   6.367   3.318  0.2647  0.0089 -0.2440
 3720W        W17134   7.123  12.622  13.899 -0.3631 -0.0243 -0.5060
 3721W        W17135   2.696  16.095   6.727 -0.1384 -0.0592 -0.3936
 3722W        W17136   0.987  12.988  13.203  0.1053 -0.1319 -0.0224
 3723W        W17137   4.006   1.149   0.871  0.1449  0.0693  0.0653
 3724W        W17138  18.122   1.905  12.122  0.3268 -0.0303 -0.1668
 3725W        W17139   9.962  11.806   0.649  0.1355  0.0472 -0.0393
 3726W        W17140  11.775  15.532   3.409 -0.1233 -0.1261 -0.2131
 3727W        W17141  10.444   3.132  13.929 -0.0597 -0.0786  0.3290
 3728W        W17142   5.825  18.220   4.978 -0.0321 -0.1658  0.1308
 3729W        W17143   0.049   4.511  10.895  0.0073  0.2213 -0.0953
 3730W        W17144  10.210  13.607   2.177 -0.0670  0.1446 -0.0883
 3731W        W17145   5.402  18.032   5.147  0.1618 -0.0024 -0.1896
 3732W        W17146  15.783  18.174  15.131 -0.0376  0.0354  0.2478
 3733W        W17147   1.364  10.079   4.249 -0.1166 -0.0288 -0.1739
 3734W        W17148   8.718   5.778   0.360 -0.1531  0.0324 -0.0178
 3735W        W17149  14.078  14.132   3.863 -0.0702 -0.0522  0.2342
 3736W        W17150   2.607   3.761  13.227 -0.1716 -0.4158  0.3847
 3737W        W17151   9.227  15.122  13.439 -0.0083  0.0514 -0.0874
 3738W        W17152  15.736  13.253  14.366  0.0524 -0.0223  0.2741
 3739W        W17153  11.647  13.059  10.758 -0.3605 -0.3538  0.0296
 3740W        W17154   7.887   9.405   2.525  0.0096 -0.0570  0.0099
 3741W        W17155  14.656   9.372  13.728 -0.0694 -0.2914 -0.1668
 3742W        W17156  10.747   5.415  12.031  0.1116 -0.1813  0.2217
 3743W        W17157   7.586  17.853   3.386  0.1523  0.1460  0.1308
 3744W        W17158  11.428  15.086  14.237  0.0547 -0.1592 -0.1194
 3745W        W17159  12.266  16.490  14.000  0.1556  0.2838  0.2887
 3746W        W17160   0.412   3.771  12.709 -0.6467  0.0845 -0.0350
 3747W        W17161   0.852  14.340   4.804 -0.0729 -0.1266 -0.0585
 3748W        W17162  14.057   1.444  12.311  0.0106 -0.1126  0.0317
 3749W        W17163  15.999   5.115   5.166  0.1008 -0.0957 -0.0091
 3750W        W17164  13.645  12.072  12.309  0.1992  0.0015 -0.4192
 3751W        W17165  18.145  17.436  11.933  0.4180  0.0113 -0.0547
 3752W        W17166   9.249  14.183  10.920 -0.0336 -0.2171 -0.0090
 3753W        W17167  12.708   5.024  15.486  0.1631 -0.1252 -0.0751
 3754W        W17168  12.469   9.646   1.338  0.2422 -0.0854 -0.1012
 3755W        W17169   5.670  10.687  14.065  0.1843 -0.2335  0.0064
 3756W        W17170   8.224  15.703  15.473  0.2780  0.0486 -0.0819
 3757W        W17171  11.816  14.375  14.877  0.5730  0.2221 -0.2298
 3758W        W17172   0.292   1.871   1.718 -0.0192 -0.0937 -0.1049
 3759W        W17173   9.249   4.994  15.905 -0.0041 -0.1782  0.2271
 3760W        W17174   7.200   2.447   4.290 -0.2865  0.1798  0.1332
 3761W        W17175   2.030  17.192  11.331  0.1510 -0.2558 -0.4103
 3762W        W17176  11.815   1.197  10.936  0.1471  0.1857 -0.2350
 3763W        W17177  12.074   4.690   0.773 -0.2743  0.0229 -0.1227
 3764W        W17178   0.391   2.706   2.531 -0.2282 -0.5798 -0.0031
 3765W        W17179  11.913  14.711  12.484 -0.0356 -0.0632 -0.0239
 3766W        W17180   1.306  15.789  16.369  0.1507  0.2886 -0.1206
 3767W        W17181   6.814  13.230   5.355  0.0327  0.3237  0.0843
 3768W        W17182   9.797   6.454   3.162  0.5211 -0.1789 -0.0171
 3769W        W17183  15.375  11.458   3.663 -0.1350 -0.3209 -0.0238
 3770W        W17184  17.732  12.708   6.051  0.1924 -0.1342 -0.0327
 3771W        W17185   8.309  17.178   1.184 -0.1346  0.0159  0.2095
 3772W        W17186   2.456   9.452   4.786 -0.1831 -0.0549 -0.0974
 3773W        W17187  14.808   3.590   1.232 -0.2454  0.3156 -0.0126
 3774W        W17188   2.927  17.558   2.186  0.0118  0.0503 -0.3294
 3775W        W17189   3.566   2.793   1.973  0.1953 -0.2692 -0.0950
 3776W        W17190   0.683   4.436   2.881  0.0135  0.1512  0.1658
 3777W        W17191   9.401   3.864  13.441  0.0260 -0.1089 -0.1484
 3778W        W17192  16.060   7.057   5.075  0.0914 -0.1457  0.1376
 3779W        W17193   1.893   4.790  14.198 -0.0801 -0.0904 -0.0883
 3780W        W17194   6.677  14.605   5.464 -0.0584 -0.0572 -0.1028
 3781W        W17195  14.940  11.739   3.898  0.1741 -0.1315  0.4841
 3782W        W17196  12.848  13.411  14.822 -0.3769 -0.0677 -0.1960
 3783W        W17197  10.236  17.103   2.312 -0.0753  0.1648 -0.1979
 3784W        W17198   5.401   1.136  13.220  0.0226 -0.2890  0.0164
 3785W        W17199  14.471   8.554  13.958  0.0537  0.0630 -0.0873
 3786W        W17200   3.360  12.330   3.920  0.0722  0.0581 -0.0512
 3787W        W17201   1.591   9.832   1.476 -0.2678  0.0768  0.0346
 3788W        W17202   3.476   8.864   3.003  0.0398 -0.1790  0.3681
 3789W        W17203  17.561   6.373   4.087  0.4204  0.0118  0.0021
 3790W        W17204  17.629  17.054  15.382 -0.1356  0.1143  0.0369
 3791W        W17205  15.879   9.588  15.526  0.0070 -0.0807 -0.1106
 3792W        W17206  10.552  15.633   2.094 -0.1527  0.1722  0.0837
 3793W        W17207   8.328   4.818  16.296  0.1848  0.2056 -0.1440
 3794W        W17208   1.664   2.006  14.963  0.0704 -0.5997  0.1668
 3795W        W17209  14.682  13.371   0.959  0.0531 -0.0482  0.1656
 3796W        W17210  10.540   3.393   3.173  0.0981 -0.0692 -0.2016
 3797W        W17211  10.246  13.287   4.189  0.0462  0.1194  0.2373
 3798W        W17212   7.241   2.826   5.395  0.0375  0.1507 -0.2895
 3799W        W17213   2.054  13.242  14.848 -0.2264  0.0943  0.1981
 3800W        W17214   7.998  13.242  10.267 -0.2375 -0.1466  0.0392
 3801W        W17215  14.270  12.159  14.878  0.3600 -0.1010  0.1781
 3802W        W17216   1.485   9.791  14.638 -0.0641  0.2552  0.0234
 3803W        W17217   0.514   6.845   3.078  0.1535 -0.2480  0.1698
 3804W        W17218   6.025  18.024   0.610 -0.0848 -0.1666  0.4278
 3805W        W17219  16.780   4.795   1.881 -0.1384  0.0787 -0.2081
 3806W        W17220  10.521  10.375   1.784 -0.1014 -0.1789  0.0423
 3807W        W17221   9.609  15.659   2.229 -0.3522 -0.2708 -0.2189
 3808W        W17222  12.200   5.884  12.154  0.1707  0.0760 -0.2284
 3809W        W17223   0.745  17.131  12.284 -0.2944 -0.1269  0.0290
 3810W        W17224   2.144  15.755  14.478 -0.0824 -0.4616  0.2293
 3811W        W17225  12.471  17.055  15.532  0.0168 -0.3852 -0.1380
 3812W        W17226   9.424   1.246  12.128 -0.2044  0.0276  0.0675
 3813W        W17227  12.508  14.877   3.037 -0.1903  0.1666 -0.0769
 3814W        W17228  11.340   8.285   0.575 -0.0648 -0.4234  0.0339
 3815W        W17229  10.431   5.351   0.116  0.2277 -0.0996  0.0194
 3816W        W17230  15.070   7.197  15.331  0.2996 -0.0645 -0.1005
 3817W        W17231  16.164  12.675   5.214 -0.1295  0.0584  0.0899
 3818W        W17232   8.343   9.683   1.325  0.0112 -0.2594  0.0869
 3819W        W17233   1.225   6.268  11.925  0.0343 -0.0764 -0.0403
 3820W        W17234   6.278  15.093  13.369 -0.3997 -0.0656 -0.3094
 3821W        W17235   6.569  16.667   3.679  0.2602 -0.0669  0.1473
 3822W        W17236   6.698   4.310   1.557 -0.3361 -0.0983 -0.0118
 3823W        W17237  16.193  15.500  12.111  0.0261  0.1453 -0.0482
 3824W        W17238  17.235  17.464  13.675 -0.3144  0.0731  0.0150
 3825W        W17239   3.528   6.999  11.432 -0.0819  0.2177 -0.0207
 3826W        W17240   5.282  15.828   0.109  0.2784 -0.3028  0.1747
 3827W        W17241   2.605  12.102   2.317  0.1072 -0.2496 -0.1793
 3828W        W17242   8.622   9.562   0.902 -0.1786 -0.2077 -0.4422
 3829W        W17243   1.303   2.655  14.715 -0.1716  0.1452 -0.1808
 3830W        W17244   8.879   7.336  13.856 -0.0337  0.0027  0.2095
 3831W        W17245   6.553   1.179   1.208 -0.0354  0.0496 -0.2109
 3832W        W17246   2.436  16.104   2.020  0.0268  0.3583  0.1114
 3833W        W17247   6.579  14.136   2.906  0.0453  0.0219  0.0132
 3834W        W17248  12.149   9.289  16.356  0.0921 -0.1011  0.1780
 3835W        W17249  16.799   5.641   0.731 -0.3451 -0.1804 -0.1254
 3836W        W17250   1.469   9.920   5.176 -0.2346  0.2732 -0.0184
 3837W        W17251  11.848  13.776  15.285 -0.1042 -0.0750  0.3020
 3838W        W17252  12.979  14.002  16.132  0.1026  0.0169  0.0762
 3839W        W17253  13.285   5.145  10.384  0.1721  0.1421  0.2867
 3840W        W17254   8.044   4.149   1.349 -0.1573  0.2655 -0.1210
 3841W        W17255  15.488   1.181   2.559  0.1677  0.1580  0.4165
 3842W        W17256  12.788   3.737  11.360 -0.0522 -0.2468  0.1011
 3843W        W17257   5.495   8.321  11.115 -0.1138  0.1566 -0.0012
 3844W        W17258   3.443  13.049  12.348  0.2233 -0.1856 -0.3534
 3845W        W17259  10.863   1.399   4.336 -0.1028  0.0232  0.2366
 3846W        W17260   6.520  10.835   4.979 -0.1273 -0.0803  0.0733
 3847W        W17261   3.150   1.194   4.417 -0.2680 -0.0966 -0.0738
 3848W        W17262   1.976   3.864  14.203  0.2055 -0.3078  0.3333
 3849W        W17263   1.902   9.537  13.961  0.3322 -0.3653 -0.2150
 3850W        W17264   5.139  11.932   1.402  0.0760  0.1088 -0.0338
 3851W        W17265  14.856   2.484   1.917  0.0133 -0.1860 -0.0444
 3852W        W17266  16.148  15.489   5.632  0.0596  0.1488 -0.3042
 3853W        W17267  15.475   6.446   9.623 -0.1147 -0.0331 -0.0904
 3854W        W17268   9.079   5.340  14.821 -0.2613 -0.1490  0.1378
 3855W        W17269  16.290   0.024   3.520 -0.1647 -0.1900 -0.0355
 3856W        W17270  10.756   2.081   0.498  0.1086 -0.0003  0.1176
 3857W        W17271  13.004  16.472   5.167  0.1601  0.2359  0.0471
 3858W        W17272   3.732   7.418  11.536  0.0410  0.2358  0.1473
 3859W        W17273   8.574   0.764   2.974 -0.2732 -0.2871  0.1735
 3860W        W17274   9.735  11.955  13.912 -0.1861 -0.0242  0.1952
 3861W        W17275   6.058   0.662  11.714  0.2399 -0.0883  0.2379
 3862W        W17276  13.439  14.176   0.789 -0.0487  0.1171 -0.1006
 3863W        W17277  13.284  11.985   5.541 -0.0180 -0.3182 -0.1763
 3864W        W17278  11.395   6.898  11.615 -0.3445  0.2096 -0.1256
 3865W        W17279  13.977   9.662  16.079 -0.3248  0.4053  0.1502
 3866W        W17280   4.471  11.774  13.444  0.0216 -0.0996  0.0473
 3867W        W17281  12.401   1.562   0.047 -0.2150  0.1062 -0.0310
 3868W        W17282   1.466  17.137  11.219  0.3294  0.0406  0.2716
 3869W        W17283   3.434   0.531  15.461 -0.0483  0.0083 -0.0272
 3870W        W17284   6.989  14.793   5.028  0.2119 -0.0028 -0.0047
 3871W        W17285   7.257   5.480  15.245 -0.0426  0.1824  0.2263
 3872W        W17286   2.387   8.035  14.277  0.0133  0.0995 -0.2009
 3873W        W17287  13.239  18.122  14.148 -0.2986  0.1803 -0.0568
 3874W        W17288  15.416   3.272   1.843  0.0715 -0.2284  0.0452
 3875W        W17289   1.768  14.165   3.532  0.0603 -0.3161 -0.2632
 3876W        W17290   7.021   8.294   1.921 -0.1108 -0.0530 -0.0699
 3877W        W17291   3.469   2.252  12.964  0.0860 -0.1782  0.2845
 3878W        W17292  12.681   5.098   2.591  0.0406  0.0189  0.2439
 3879W        W17293   2.858  12.630  15.648 -0.1711 -0.2540 -0.1420
 3880W        W17294  15.038   6.341   2.252 -0.3127 -0.0958  0.0164
 3881W        W17295   1.524   4.829  10.790  0.1450  0.3000  0.1506
 3882W        W17296   0.848   7.031   2.750  0.0686 -0.1264  0.0310
 3883W        W17297  10.271   0.653  11.894  0.2598  0.2163  0.0830
 3884W        W17298  12.479   2.653   5.378 -0.2423  0.4433 -0.1935
 3885W        W17299  10.056  11.011  13.460 -0.0175 -0.3986 -0.0025
 3886W        W17300  14.134  17.871  12.488 -0.0935  0.1073 -0.1560
 3887W        W17301  10.385  10.614   1.300  0.2428 -0.1533  0.1356
 3888W        W17302   0.472   5.991   2.090  0.0618  0.1073  0.1628
 3889W        W17303   2.975   0.236  12.066 -0.0419  0.0647  0.0429
 3890W        W17304   3.352  16.538   4.134 -0.1873  0.5289 -0.0054
 3891W        W17305   7.150   8.910   3.724 -0.0583  0.0227 -0.1257
 3892W        W17306   9.426  12.797  15.884 -0.0808  0.1410 -0.0973
 3893W        W17307  15.497  15.394   1.440 -0.2389 -0.0932  0.0219
 3894W        W17308   6.354   9.010   1.423  0.0402 -0.0627  0.2888
 3895W        W17309  11.528   8.752  14.757 -0.4035 -0.2674 -0.1865
 3896W        W17310  16.118   5.989  11.118 -0.3004  0.0989  0.0133
 3897W        W17311   2.214  10.160   3.505 -0.0149 -0.0353 -0.1453
 3898W        W17312  13.156   1.305   4.220 -0.0323  0.0078  0.1661
 3899W        W17313  17.130   5.217  11.944  0.0432 -0.0920  0.1327
 3900W        W17314  10.561  10.914  13.294  0.3429 -0.0150  0.1163
 3901W        W17315   8.272   0.480  15.151  0.0103  0.1826  0.2596
 3902W        W17316   2.946  16.029  14.360  0.3046  0.0979  0.0487
 3903W        W17317   3.076   9.522   0.700 -0.1635 -0.0224  0.1392
 3904W        W17318  15.845   5.041  15.659 -0.1031  0.0245 -0.1356
 3905W        W17319   5.622  13.293  15.639  0.0078 -0.0050  0.1450
 3906W        W17320   1.935   2.490  12.095 -0.1290  0.0939 -0.1215
 3907W        W17321  11.766   7.113  15.943  0.3254  0.1384 -0.0988
 3908W        W17322   8.834   1.720  14.658  0.0931 -0.1284  0.0349
 3909W        W17323  15.445  14.888  12.006  0.4819 -0.2695 -0.2291
 3910W        W17324   3.119   6.189  13.467 -0.0412  0.1125 -0.0183
 3911W        W17325   4.254   8.348   5.261 -0.4290  0.1394 -0.0230
 3912W        W17326  12.014   6.179  11.746  0.2634  0.1978 -0.0217
 3913W        W17327   7.107  10.506   2.875  0.0657 -0.1369  0.1552
 3914W        W17328   1.014   0.288  12.691 -0.1538 -0.1775  0.3148
 3915W        W17329  16.952  13.443  16.114 -0.2059 -0.1035  0.2767
 3916W        W17330   5.354  16.566   5.437 -0.1730  0.1560  0.0169
 3917W        W17331  16.357   5.001  15.766 -0.1246 -0.0651 -0.0257
 3918W        W17332  15.129  12.655   4.057  0.1058  0.0094 -0.0833
 3919W        W17333  10.007   8.170   5.169  0.1143  0.0242 -0.0014
 3920W        W17334  11.911  15.848   1.759 -0.0792 -0.0810  0.3488
 3921W        W17335  12.326  12.120  11.338 -0.0744  0.1501  0.0846
 3922W        W17336  15.854   0.426   5.452  0.0526  0.1502 -0.0422
 3923W        W17337  12.428   7.512  14.755  0.0626  0.0476 -0.5288
 3924W        W17338   3.181   1.931   1.538  0.0428 -0.0237  0.2034
 3925W        W17339   6.833   8.245  11.383 -0.0811  0.0198 -0.0103
 3926W        W17340   8.775  14.782  10.203  0.0252  0.1202  0.3796
 3927W        W17341   8.451  11.330  12.886  0.4852 -0.2660 -0.3184
 3928W        W17342   0.033  16.602  12.327  0.2257  0.0860 -0.0889
 3929W        W17343  15.572  14.715  10.443 -0.2186  0.1847  0.0080
 3930W        W17344   8.273   8.377  15.607  0.1089  0.0558  0.1259
 3931W        W17345  12.337  15.391   1.603  0.2627  0.1317 -0.2562
 3932W        W17346   1.097   8.892  10.385 -0.2135  0.2243  0.1774
 3933W        W17347  17.815  14.931  16.124  0.3117  0.1127  0.1830
 3934W        W17348   4.137   9.527   4.673  0.1987 -0.2549  0.1818
 3935W        W17349  11.049  15.046   3.073  0.1698  0.1011  0.2976
 3936W        W17350   6.870  11.879   2.108 -0.2054 -0.0149 -0.2678
 3937W        W17351   3.417  14.168   1.261  0.0253  0.0981  0.0824
 3938W        W17352  10.628   4.408  12.046 -0.1813  0.0968 -0.1234
 3939W        W17353   5.286   5.896  14.479 -0.0356  0.1942 -0.1109
 3940W        W17354   7.523   2.347   9.864  0.2170 -0.2039  0.0446
 3941W        W17355  13.923  14.237  14.624 -0.0041 -0.0866  0.1323
 3942W        W17356  15.447   3.138  12.559 -0.1216 -0.1032  0.1941
 3943W        W17357   8.885  14.515  14.076  0.0330 -0.0345 -0.0952
 3944W        W17358   4.207   0.387   3.649 -0.0657 -0.0702  0.0402
 3945W        W17359   9.490  14.051   4.759  0.0467 -0.0368 -0.0386
 3946W        W17360   7.173  14.069   5.869  0.2079  0.3551  0.1523
 3947W        W17361  12.974   7.720  13.207 -0.0000  0.0569 -0.0090
 3948W        W17362   1.996   5.671   0.170 -0.0740  0.0147 -0.1963
 3949W        W17363   4.708   1.509  12.712  0.1161 -0.1794 -0.2620
 3950W        W17364   0.956   8.292   1.882 -0.4212 -0.1774  0.1631
 3951W        W17365   5.802  16.922  12.971  0.3856 -0.1608  0.0933
 3952W        W17366   7.866  10.141  11.935  0.1421 -0.0894  0.1243
 3953W        W17367  13.826   1.265   1.049  0.0899 -0.2026  0.0389
 3954W        W17368  14.475   6.718  14.163 -0.1922 -0.2292  0.0452
 3955W        W17369   3.115   9.518   1.532  0.1705  0.0606  0.0850
 3956W        W17370   5.208   6.241   1.920 -0.1016  0.2027  0.0428
 3957W        W17371  10.188   0.669  11.397  0.0385 -0.0626 -0.1637
 3958W        W17372   0.553  16.065  16.345  0.7499 -0.1617 -0.4638
 3959W        W17373  13.286  14.266  15.791  0.0843 -0.1820  0.3157
 3960W        W17374   4.081  11.402   1.792  0.0996  0.0953 -0.0765
 3961W        W17375   9.331   9.960   1.965 -0.0721 -0.2226 -0.2942
 3962W        W17376   7.533   2.745  13.393  0.0066 -0.0608 -0.0865
 3963W        W17377   7.438  14.847   3.017  0.0948 -0.1183  0.0937
 3964W        W17378   4.677   9.877  14.014  0.0276 -0.0262 -0.1806
 3965W        W17379   2.532  11.867  15.243 -0.0744 -0.0785  0.1906
 3966W        W17380  11.621   8.123  16.324  0.2842  0.0487 -0.1627
 3967W        W17381   2.617  14.727   3.380 -0.1240 -0.1799 -0.0418
 3968W        W17382   2.556  14.412   0.616  0.0902  0.1719  0.2739
 3969W        W17383  17.613  10.432  12.591  0.0788  0.0709 -0.1470
 3970W        W17384   5.390  11.217  11.512 -0.0987 -0.0260 -0.0953
 3971W        W17385   2.606   8.033   2.906 -0.2952 -0.1302  0.0989
 3972W        W17386  18.148   6.197   2.725 -0.0881 -0.2541 -0.0179
 3973W        W17387  14.531  14.502  13.138 -0.1175 -0.1295 -0.1635
 3974W        W17388   7.014   9.448  12.801  0.0943  0.2545 -0.0399
 3975W        W17389  11.374  11.700   4.429 -0.0317 -0.0878  0.1450
 3976W        W17390   0.342  10.860  12.199  0.0012  0.1783  0.1707
 3977W        W17391   9.735  11.489   5.051  0.1197  0.1791 -0.2611
 3978W        W17392   5.951   1.358  10.063 -0.2143 -0.1393 -0.1012
 3979W        W17393  16.068   0.129   0.817  0.0296 -0.0719 -0.2672
 3980W        W17394  11.896  13.471  13.061 -0.0160  0.0497  0.0174
 3981W        W17395   0.946  15.704   4.567  0.0204  0.0616  0.1469
 3982W        W17396   3.314   8.433   1.809 -0.2578  0.0542 -0.1783
 3983W        W17397   6.324   3.597  13.133 -0.1614  0.0017 -0.0142
 3984W        W17398  13.200   5.978  10.273  0.2638  0.0798  0.1468
 3985W        W17399   4.394  13.097  15.862  0.1336 -0.2988  0.0782
 3986W        W17400   7.735   8.204   5.925 -0.3192 -0.2323  0.1114
 3987W        W17401  13.790  11.123   5.103  0.1147 -0.0644 -0.2133
 3988W        W17402  11.919   8.731  15.077  0.2098 -0.1408 -0.0674
 3989W        W17403   5.110  15.802   5.723 -0.2140 -0.2163  0.3545
 3990W        W17404   8.937   3.976  12.418 -0.0590 -0.1737  0.0455
 3991W        W17405   8.449  15.371   2.815  0.2015 -0.1178  0.2276
 3992W        W17406   3.669   7.846   0.954  0.0839 -0.1710 -0.2941
 3993W        W17407  12.459   8.936   5.366  0.1498  0.0384  0.2029
 3994W        W17408  12.301  18.156   2.860  0.1192 -0.1803  0.2353
 3995W        W17409   9.865   5.372   3.712  0.1601 -0.2249 -0.1229
 3996W        W17410   0.877  16.517  15.711 -0.1075 -0.2903  0.0047
 3997W        W17411   0.213  17.361  11.577 -0.1428 -0.0213 -0.0003
 3998W        W17412   7.784   6.047   0.570  0.0150 -0.3663  0.2636
 3999W        W17413   5.176   9.972  15.108  0.1203  0.0185  0.2354
 4000W        W17414   2.965   0.094  14.760 -0.0764 -0.0392  0.5683
 4001W        W17415   4.686   4.457  11.374 -0.0251 -0.0564  0.1863
 4002W        W17416   6.547  12.260   4.552 -0.2051 -0.1095 -0.1578
 4003W        W17417  14.029   5.061  11.253 -0.1088  0.0399  0.0957
 4004W        W17418   0.294   0.759  14.700  0.2597 -0.2683  0.1172
 4005W        W17419   2.387   6.459  12.515 -0.0409 -0.1733 -0.4274
 4006W        W17420   1.855  15.408   4.326 -0.1488 -0.3417 -0.0494
 4007W        W17421  16.464  13.516  11.579  0.2214  0.1634  0.2409
 4008W        W17422  14.529   7.284   0.575 -0.0364  0.0413 -0.1114
 4009W        W17423  13.023  14.911   5.498 -0.0977 -0.0164 -0.2379
 4010W        W17424   2.669   1.355  11.588 -0.0308 -0.0420 -0.2435
 4011W        W17425  13.945   2.845  14.219 -0.1621  0.0381 -0.1903
 4012W        W17426   6.928   1.548  11.558  0.3895 -0.3044  0.1788
 4013W        W17427   1.107   6.636  12.300  0.0128 -0.2251  0.0636
 4014W        W17428  14.791   0.079  11.894 -0.0239  0.1830  0.0003
 4015W        W17429  14.538   8.265  15.337  0.1123  0.0242 -0.0005
 4016W        W17430   9.290   7.675   2.768  0.0211 -0.0284 -0.0385
 4017W        W17431  17.831   0.292  12.264  0.1977 -0.0043 -0.0358
 4018W        W17432  15.804  17.630  15.022 -0.3409 -0.1592  0.0051
 4019W        W17433   4.722   2.830   0.067 -0.2482  0.1835  0.1478
 4020W        W17434  17.430  17.997   0.615 -0.1586 -0.0594  0.0177
 4021W        W17435   2.752  10.681  15.134  0.0910 -0.0538 -0.0393
 4022W        W17436   4.747  17.570  12.743 -0.2238  0.0102  0.0415
 4023W        W17437  17.058   5.312   2.330 -0.2556  0.1886  0.2152
 4024W        W17438  15.080  17.488  14.986  0.0481  0.0692  0.0484
 4025W        W17439  14.255  12.894   3.904  0.0589  0.0531  0.1097
 4026W        W17440  14.666   8.471  11.840  0.2173  0.0037  0.2964
 4027W        W17441   4.359   7.579   1.560 -0.0815 -0.1759 -0.1400
 4028W        W17442  12.258   4.898   2.932 -0.2336  0.1042 -0.1207
 4029W        W17443   2.389   7.491  16.057  0.1405 -0.2511  0.1827
 4030W        W17444   6.599  10.683  13.403  0.0671  0.2129 -0.1290
 4031W        W17445  12.571  12.831  10.708  0.3673 -0.0904  0.2474
 4032W        W17446   4.912  12.221   5.238  0.2445 -0.0141 -0.0274
 4033W        W17447  10.974  17.246  14.768  0.1957  0.2643 -0.2502
 4034W        W17448   7.338   3.452  10.825  0.0192  0.2138 -0.1487
 4035W        W17449   8.997   3.060  10.181 -0.0851 -0.0761 -0.0446
 4036W        W17450  10.964  17.428  13.530 -0.3940  0.0476  0.0458
 4037W        W17451  17.456   3.570   0.290  0.0245 -0.0077  0.1148
 4038W        W17452   4.699  16.161   1.744  0.1201 -0.2436  0.0125
 4039W        W17453   6.295  13.215   5.439  0.0881  0.0828 -0.0403
 4040W        W17454  15.156   3.822   3.135  0.1432 -0.0862 -0.3240
 4041W        W17455   1.151   1.890   0.078 -0.0947  0.0028  0.0151
 4042W        W17456  15.896  12.399  12.148 -0.2897 -0.0764 -0.0304
 4043W        W17457  15.844  15.311   4.575  0.1173  0.1056 -0.0906
 4044W        W17458  16.562  14.923   5.508  0.0440  0.1226 -0.1492
 4045W        W17459  13.189  17.107   2.294 -0.0558 -0.1171 -0.3040
 4046W        W17460   4.929   4.861   4.325  0.2146 -0.1297  0.0564
 4047W        W17461  16.944  14.041   1.337 -0.2042 -0.3772  0.0279
 4048W        W17462  14.273  11.478  11.868  0.0365 -0.1292  0.1076
 4049W        W17463   5.562   9.592   1.263  0.1756 -0.4352 -0.2510
 4050W        W17464   2.041   4.699   0.210 -0.2664 -0.1963 -0.2631
 4051W        W17465  17.133   8.145  13.114  0.2483 -0.0539 -0.5292
 4052W        W17466  16.870  10.570   1.367  0.1869  0.2957  0.4170
 4053W        W17467   6.627   6.925  10.737 -0.0180 -0.2397  0.1860
 4054W        W17468  17.903  11.972   1.748  0.0726 -0.4508 -0.1902
 4055W        W17469   0.893  11.701  12.452 -0.0643 -0.2099  0.2484
 4056W        W17470  11.897   5.654  11.800  0.0495 -0.1622 -0.1131
 4057W        W17471  15.739  12.716   1.870 -0.0057  0.2232 -0.1525
 4058W        W17472   6.601   2.818  10.592 -0.0598 -0.2616 -0.2692
 4059W        W17473   1.784   9.061   0.389 -0.1161 -0.0993 -0.3090
 4060W        W17474   0.800   5.832   5.957 -0.0614 -0.0632  0.2303
 4061W        W17475  14.994   0.508   5.894  0.1325 -0.0240 -0.2871
 4062W        W17476  12.076  15.061   1.375 -0.0234  0.1176 -0.1569
 4063W        W17477  15.325   9.505   3.736 -0.2438 -0.6826  0.1051
 4064W        W17478  16.902  13.952   0.555 -0.0464  0.0598  0.3610
 4065W        W17479   3.797  16.345  12.380 -0.0169 -0.1914  0.2808
 4066W        W17480  16.794  15.456   4.776  0.1183  0.2528  0.0869
 4067W        W17481   4.241   5.216  13.637  0.1251 -0.0624  0.1088
 4068W        W17482  15.200  18.203   2.639  0.2113  0.0634  0.0394
 4069W        W17483   2.957  16.244   5.833 -0.1389  0.0055  0.3747
 4070W        W17484  15.939  10.591  13.843  0.0403 -0.1227 -0.1694
 4071W        W17485   0.870   2.986   4.376  0.2093  0.1522 -0.1655
 4072W        W17486   8.022   2.834   1.790  0.4849  0.0868 -0.1969
 4073W        W17487  11.851   0.706  12.786 -0.0214 -0.3666 -0.1384
 4074W        W17488  14.665   8.728   3.556  0.1870  0.3555 -0.1066
 4075W        W17489   3.197   5.454  15.339  0.1393 -0.0592  0.1853
 4076W        W17490   4.815   9.285  11.156  0.3843  0.0568 -0.2862
 4077W        W17491  11.141  10.137  14.619 -0.2557  0.1056 -0.1077
 4078W        W17492  10.048   1.983  16.416 -0.0828 -0.0177  0.1993
 4079W        W17493   9.348  10.756   5.248 -0.0991  0.3121 -0.2933
 4080W        W17494  15.603   7.984   3.056  0.0941  0.1435 -0.0923
 4081W        W17495  14.261  16.517  13.340 -0.0195  0.1025  0.0831
 4082W        W17496   5.566   6.464   2.133  0.2181 -0.0094 -0.0885
 4083W        W17497   4.486   6.366  12.551  0.0745 -0.0523 -0.2064
 4084W        W17498   1.821   6.559  11.238 -0.2146 -0.2658 -0.2427
 4085W        W17499   2.685   7.172  12.864  0.0121  0.1124 -0.0557
 4086W        W17500   8.633  16.467   1.610 -0.2069  0.0591 -0.0006
 4087W        W17501   4.426  11.360   4.283  0.1880  0.3579 -0.0007
 4088W        W17502  13.706  10.700   0.057  0.0704 -0.1588 -0.0934
 4089W        W17503  17.791  12.643  10.630 -0.1000 -0.1188  0.1389
 4090W        W17504   0.655   9.594   2.563 -0.0728  0.2175  0.0497
 4091W        W17505   0.144  12.100   2.380 -0.2921  0.4017  0.5213
 4092W        W17506  15.978  11.215  15.537  0.0714  0.1555  0.0299
 4093W        W17507  15.839  17.624  14.208  0.2056 -0.0469 -0.0146
 4094W        W17508  16.291  16.365   4.081  0.2835 -0.0979  0.0250
 4095W        W17509   1.836  12.451   0.384  0.1638 -0.1451  0.0589
 4096W        W17510  12.242   2.464  12.762  0.1356  0.0362 -0.1628
 4097W        W17511   9.351  17.535   4.643  0.0011 -0.1454  0.0421
 4098W        W17512  17.899  11.349   0.241  0.1721 -0.0336  0.0686
 4099W        W17513   4.714   7.308  10.675  0.1899  0.0576 -0.0209
 4100W        W17514  11.793  15.838  14.706 -0.1506  0.0978  0.1298
 4101W        W17515   6.311   9.904   1.460  0.0420  0.0455  0.0696
 4102W        W17516  18.226  10.558  16.221  0.1445  0.1350  0.2151
 4103W        W17517   5.130  16.174  12.822  0.0582 -0.1930  0.0226
 4104W        W17518   4.430   3.689  10.298  0.1057 -0.0850  0.0028
 4105W        W17519   1.013  13.544  10.801 -0.0322  0.0964 -0.1188
 4106W        W17520  13.565   2.134   4.789  0.1329  0.1037 -0.0556
 4107W        W17521   0.303  13.359   6.014  0.2187 -0.0394  0.5016
 4108W        W17522   3.817   6.566   3.356  0.1063 -0.0477  0.1839
 4109W        W17523   1.482  13.051  13.917  0.0175 -0.0418  0.0987
 4110W        W17524  13.258   1.801   5.716 -0.1102  0.0878 -0.3408
 4111W        W17525   4.196   0.206  11.515 -0.0387 -0.0597 -0.1949
 4112W        W17526   4.837   6.422  15.001  0.1389 -0.0534 -0.0119
 4113W        W17527   5.716   8.621   6.434 -0.0047  0.2249  0.4066
 4114W        W17528   3.901   8.742   5.091  0.1452 -0.0025  0.0814
 4115W        W17529  10.121   5.722   4.436  0.1950  0.0459 -0.1246
 4116W        W17530   4.173   8.267   0.348 -0.3611  0.1545 -0.1294
 4117W        W17531  13.663  17.589   4.681  0.2489  0.3237  0.3631
 4118W        W17532  11.744   3.026  14.881  0.2769  0.2334  0.3292
 4119W        W17533  11.559  15.159  11.588 -0.2561 -0.0136 -0.1639
 4120W        W17534  16.756  11.322  16.080  0.2983  0.0189 -0.0960
 4121W        W17535   9.738  14.335  14.432  0.0846 -0.1998 -0.0366
 4122W        W17536   1.403   8.180  16.123 -0.0245 -0.1598 -0.0813
 4123W        W17537  10.291  14.642   1.954  0.2146  0.2060  0.3978
 4124W        W17538  14.833  11.444   5.500 -0.2359  0.0944 -0.2712
 4125W        W17539   7.140   3.873  11.940  0.2982  0.1321  0.4753
 4126W        W17540   4.756   8.589   0.371  0.0796  0.1567  0.0853
 4127W        W17541  11.021  13.620  15.681  0.0605  0.0286  0.1442
 4128W        W17542  16.895  13.628  15.580  0.2366  0.1549 -0.0110
 4129W        W17543  17.294   7.148  15.963  0.0882  0.0721  0.1466
 4130W        W17544   1.928  10.649  11.382 -0.0649  0.0096 -0.1808
 4131W        W17545  14.069  12.909   2.471 -0.1548  0.0338  0.0746
 4132W        W17546   5.722   7.297  11.711 -0.2922  0.1131 -0.2235
 4133W        W17547  17.918   1.242   0.263 -0.3452 -0.1545 -0.2276
 4134W        W17548  14.937   9.040   4.918  0.1183  0.2201  0.0088
 4135W        W17549  18.224  12.755   4.037  0.3420  0.0539 -0.1099
 4136W        W17550  16.025  13.001   1.530 -0.1734  0.1161  0.0529
 4137W        W17551   5.895   1.940  16.179 -0.1708 -0.0947  0.0316
 4138W        W17552  15.105   1.283   4.976  0.0991 -0.2558  0.1181
 4139W        W17553   9.580   2.950  12.960  0.0537  0.1942  0.1581
 4140W        W17554   3.387  14.723   5.383 -0.2520  0.0206 -0.3366
 4141W        W17555  14.291   4.133  16.373  0.1092  0.2010  0.3986
 4142W        W17556  12.283  13.967  10.880 -0.1627  0.0839  0.1062
 4143W        W17557   6.997   9.937  15.543 -0.1155 -0.1956 -0.2522
 4144W        W17558   5.425  11.879  14.271 -0.1313 -0.1847  0.2121
 4145W        W17559   6.262  12.634   5.585 -0.0123 -0.1668 -0.0712
 4146W        W17560   5.387   5.112  15.518 -0.0982 -0.1675 -0.2251
 4147W        W17561   6.110   0.839  16.310  0.1763  0.1715  0.1657
 4148W        W17562  10.359  17.351  10.971 -0.5307 -0.3192 -0.0921
 4149W        W17563  14.212  12.991   0.403 -0.1966  0.0058 -0.0609
 4150W        W17564   8.137  10.012   6.424  0.1562 -0.0729 -0.1359
 4151W        W17565  16.385   1.085  16.464  0.0248  0.1835 -0.1610
 4152W        W17566   1.491  10.376  12.097 -0.1802  0.1029  0.0951
 4153W        W17567   5.872   1.563  11.563 -0.0385 -0.1273 -0.4462
 4154W        W17568  12.196  14.137   4.392 -0.1087 -0.0480 -0.2480
 4155W        W17569  11.863   5.204   3.138  0.2319 -0.0686 -0.3930
 4156W        W17570   9.741   5.551   5.232 -0.1440  0.0197  0.0975
 4157W        W17571  17.848   7.370   2.833 -0.0027  0.1329  0.1454
 4158W        W17572   8.007   2.900   2.396 -0.2631  0.2753 -0.0423
 4159W        W17573  14.975  15.615   3.530  0.0759  0.2533 -0.0070
 4160W        W17574  11.056  16.981  10.471  0.1106  0.0357 -0.0113
 4161W        W17575  11.959  14.096  15.637  0.1269  0.0222  0.2622
 4162W        W17576   9.974  15.113   6.014 -0.0975 -0.1168 -0.0519
 4163W        W17577   5.150  14.551  15.199 -0.0235  0.1561 -0.6419
 4164W        W17578   0.356   2.548  14.678 -0.0911 -0.0977 -0.1817
 4165W        W17579  13.612  16.619   0.244 -0.1355 -0.1329  0.0986
 4166W        W17580  10.006   6.145  11.439  0.1294  0.2423 -0.1863
 4167W        W17581  17.517  11.652  11.526 -0.1372  0.2788 -0.2238
 4168W        W17582  11.565  12.085  12.220 -0.1696  0.3401 -0.2355
 4169W        W17583   3.960   7.439   6.500 -0.1520 -0.2722  0.1933
 4170W        W17584  18.138  15.915  12.733 -0.1702  0.0081  0.2108
 4171W        W17585   6.088   4.474  16.352  0.0778 -0.0490 -0.0330
 4172W        W17586   5.803  13.557  15.054 -0.2083  0.2595  0.2069
 4173W        W17587  14.136  12.518  15.178 -0.2136  0.1612  0.0071
 4174W        W17588  10.855   0.278   3.048 -0.0148 -0.4054 -0.1746
 4175W        W17589   6.612   2.746   1.670  0.1120  0.2363 -0.0758
 4176W        W17590  17.986   7.848  13.660  0.0147 -0.1774 -0.0662
 4177W        W17591   5.202   2.415   4.073 -0.2986  0.0381  0.0099
 4178W        W17592   3.140  17.221  13.778  0.2942  0.2285 -0.2737
 4179W        W17593   2.889  11.418  15.095 -0.0169  0.1378  0.0512
 4180W        W17594   3.924  12.275   0.506 -0.0294 -0.1155 -0.3054
 4181W        W17595   8.036   2.300  12.513 -0.0944 -0.0393 -0.2009
 4182W        W17596  12.943  12.590   1.751  0.2099  0.0109 -0.0456
 4183W        W17597  16.938   7.072   3.923 -0.0522 -0.0151  0.3424
 4184W        W17598   6.850  17.099   1.684 -0.0112 -0.0898 -0.0750
 4185W        W17599  10.362  12.356   4.845  0.0865  0.0831  0.2197
 4186W        W17600   6.109  15.337   4.821 -0.3584  0.2988 -0.2006
 4187W        W17601  16.630  11.067  11.485 -0.0006 -0.0682 -0.1109
 4188W        W17602  13.790   9.458  13.207  0.2809 -0.2122 -0.0080
 4189W        W17603   8.273   6.180  10.871  0.0792 -0.2797 -0.0687
 4190W        W17604   3.131   8.784   2.140  0.0536 -0.1897 -0.0554
 4191W        W17605  15.681  16.850  12.267 -0.0985  0.0832  0.1877
 4192W        W17606   8.487   0.514  12.145 -0.1678 -0.1092  0.0220
 4193W        W17607  10.200   8.826  14.507  0.0902 -0.1199 -0.0918
 4194W        W17608   7.631   5.986  14.097  0.4739  0.1353  0.2881
 4195W        W17609  12.772   6.200  15.211  0.1311 -0.2115 -0.1652
 4196W        W17610   1.991  15.966   0.269  0.2882  0.2669 -0.0647
 4197W        W17611   5.165  18.132  16.369 -0.1832 -0.2891  0.0767
 4198W        W17612  16.853  15.435  15.322  0.3038  0.1736 -0.0189
 4199W        W17613  10.313  14.285  16.211  0.0303 -0.0008 -0.1906
 4200W        W17614   2.708  11.160  11.632  0.1700  0.1702  0.2133
 4201W        W17615   9.897   5.108   4.977 -0.0048 -0.0535 -0.1372
 4202W        W17616  16.591   2.679  13.464  0.0218  0.0704  0.2206
 4203W        W17617   1.818   0.529   6.038  0.2371 -0.2439 -0.1820
 4204W        W17618   4.522  12.408  15.236 -0.0742  0.0264  0.1741
 4205W        W17619  15.333  17.885  15.126 -0.4921 -0.0157  0.0592
 4206W        W17620   4.940   1.834  10.720 -0.0731 -0.0890  0.0562
 4207W        W17621  13.656  10.870  12.411 -0.3030 -0.1654  0.1318
 4208W        W17622  17.517   9.030  13.785 -0.1083 -0.0553  0.0097
 4209W        W17623  13.936  12.282   1.619  0.0612 -0.0604  0.0686
 4210W        W17624   6.805  14.645  15.493  0.0663  0.3165 -0.1537
 4211W        W17625  13.777   0.140   3.551  0.1886 -0.2486 -0.1230
 4212W        W17626  11.691  12.724   1.278  0.0314 -0.3388  0.0357
 4213W        W17627  14.758  10.147   3.031 -0.2800  0.1115  0.2092
 4214W        W17628   2.114  14.897   1.252 -0.0568 -0.0720  0.0457
 4215W        W17629   2.223   9.627   5.806 -0.1211  0.3860  0.3737
 4216W        W17630   1.155  12.217   2.436 -0.1814 -0.3672  0.0408
 4217W        W17631   1.756   2.068  10.054  0.0402  0.0783 -0.1120
 4218W        W17632  17.928   7.790   1.783  0.0458  0.1082 -0.0062
 4219W        W17633  16.909  17.899  14.498 -0.0879  0.1709  0.1776
 4220W        W17634   9.567   1.822  10.799  0.2014  0.1916  0.1916
 4221W        W17635   3.902  10.566   0.012  0.0630 -0.4825 -0.1959
 4222W        W17636   8.435   4.070   5.285  0.1030 -0.4431  0.0632
 4223W        W17637  12.774   5.203  12.740  0.0372  0.1977 -0.0539
 4224W        W17638  13.505   1.319   6.342 -0.4429  0.0538  0.0932
 4225W        W17639   3.815  16.802  16.270 -0.1077  0.1389 -0.0040
 4226W        W17640   7.394  10.422   3.752  0.0091  0.0408  0.2071
 4227W        W17641   7.054   8.517  13.093  0.1760 -0.0363  0.1230
 4228W        W17642   1.119   7.008  15.354 -0.0842 -0.0855 -0.1221
 4229W        W17643  18.038   1.220  13.152  0.1652 -0.1244 -0.0069
 4230W        W17644   5.099   1.106  15.527  0.1624  0.2610 -0.2864
 4231W        W17645   2.269  14.952  11.847  0.1670 -0.0169 -0.0383
 4232W        W17646   0.674  17.515   2.382  0.2172 -0.1254  0.1538
 4233W        W17647  14.322   6.945  13.685  0.1535  0.0842  0.0257
 4234W        W17648  17.116  10.868   3.891  0.1183 -0.2398  0.0627
 4235W        W17649  16.398   8.732   3.134  0.0520 -0.2727 -0.1541
 4236W        W17650   5.734  13.695   0.635  0.3632 -0.0631 -0.3293
 4237W        W17651   3.002   3.802   6.052 -0.0382  0.0752 -0.0315
 4238W        W17652  16.615  11.799  13.673  0.2429  0.0585  0.1522
 4239W        W17653  15.793   3.915  15.520 -0.0816  0.1549 -0.2363
 4240W        W17654   3.262  11.451   1.220 -0.0269 -0.0621 -0.0813
 4241W        W17655  13.471   5.062   4.445 -0.1047  0.2781  0.2040
 4242W        W17656   3.342   3.280   1.107  0.1052 -0.1572  0.0933
 4243W        W17657   4.307   8.304   2.228 -0.0753 -0.4376  0.1749
 4244W        W17658   4.063   7.986   1.311  0.1579  0.1252  0.1246
 4245W        W17659  16.837   4.882  11.041 -0.0034  0.2295 -0.3125
 4246W        W17660  13.624  17.152  12.098  0.0796 -0.1688  0.5145
 4247W        W17661   1.331   7.868  15.091 -0.0814  0.0664  0.0201
 4248W        W17662   5.115   7.409   4.887 -0.0876 -0.2308 -0.0961
 4249W        W17663  12.062  15.755  15.173 -0.1411  0.2099 -0.0156
 4250W        W17664   6.991   6.325   0.338 -0.0192 -0.0444 -0.0281
 4251W        W17665   8.023  14.213  10.450 -0.1264  0.1366 -0.0421
 4252W        W17666  11.605  15.151   2.855 -0.1061  0.0374  0.1062
 4253W        W17667   6.362   2.175  13.589  0.0557 -0.0055 -0.0868
 4254W        W17668   2.271  11.913   2.683  0.1054 -0.0409  0.1638
 4255W        W17669   6.007  12.822  10.419  0.0373 -0.0827  0.2447
 4256W        W17670  16.988   7.119  14.003  0.2948  0.2905  0.0588
 4257W        W17671   8.377   4.793   4.319 -0.0761  0.0449  0.3287
 4258W        W17672   7.335   7.878  16.305 -0.0127  0.1184 -0.1206
 4259W        W17673  13.589  11.614  10.857  0.1497 -0.1077  0.2210
 4260W        W17674   3.575  10.903  12.509  0.0560  0.1798 -0.0360
 4261W        W17675   7.035   2.624   5.808  0.1506  0.1850  0.0362
 4262W        W17676   6.563   1.440  14.917 -0.0174  0.2518 -0.1101
 4263W        W17677   9.848  12.411  12.931  0.1445  0.0033  0.0070
 4264W        W17678   5.780  15.267   2.713 -0.2106 -0.0661 -0.1594
 4265W        W17679   2.288  13.068   5.258 -0.3339  0.2161  0.3360
 4266W        W17680   3.993   7.124   0.688 -0.1774 -0.0355  0.1175
 4267W        W17681  17.315   6.482   5.516  0.2458  0.0870 -0.5807
 4268W        W17682   3.815  11.860  12.223 -0.0257 -0.0581  0.3770
 4269W        W17683  17.438  17.197   1.815 -0.2088 -0.2688  0.1566
 4270W        W17684  18.106   2.479   9.829 -0.1053 -0.0795  0.3447
 4271W        W17685   1.830   5.534  15.463 -0.0551  0.2755 -0.1406
 4272W        W17686   6.878   6.854   5.907  0.1584 -0.0223 -0.2371
 4273W        W17687   6.873  10.212  14.489  0.1649  0.2908 -0.0046
 4274W        W17688   0.710   4.346   0.364 -0.0244  0.2839 -0.0751
 4275W        W17689   7.538   9.814  13.913 -0.1486 -0.0790 -0.0164
 4276W        W17690   7.044  13.974  11.344  0.0283  0.0305 -0.1446
 4277W        W17691  13.127   9.842  15.624  0.0751  0.1017 -0.1529
 4278W        W17692   6.298   2.892  15.858  0.1834 -0.1080 -0.1664
 4279W        W17693   8.982   6.640   5.846 -0.4169  0.2689  0.1470
 4280W        W17694   1.643   3.404  14.791  0.0023 -0.0550 -0.1418
 4281W        W17695   4.794  16.944   0.995  0.0299 -0.2407  0.0202
 4282W        W17696   1.381  10.354   1.564 -0.2814 -0.2003  0.1580
 4283W        W17697   9.132   3.520  12.429  0.2104  0.0935  0.1908
 4284W        W17698   4.758   7.825   3.918  0.2741  0.0204  0.0892
 4285W        W17699   8.380   0.029  14.767 -0.1354  0.2212  0.0114
 4286W        W17700   8.956  11.193  11.939  0.2177  0.0190 -0.2714
 4287W        W17701   2.112  10.749   4.417  0.0660 -0.0050  0.1252
 4288W        W17702   2.023  17.014  13.992 -0.3680  0.2916  0.1289
 4289W        W17703   0.510  15.695  14.665 -0.1369  0.1137  0.2450
 4290W        W17704   9.855   3.667   0.117 -0.3813  0.3179 -0.0855
 4291W        W17705  14.975  17.344   4.164  0.1213  0.2354 -0.3488
 4292W        W17706   0.823  10.626  13.427  0.1609 -0.0790 -0.0097
 4293W        W17707   5.555  13.679  12.621 -0.2569  0.1705  0.0795
 4294W        W17708  12.510   9.116   2.060 -0.2322 -0.0588  0.1358
 4295W        W17709  10.868  15.223   3.587 -0.0324  0.0475 -0.2174
 4296W        W17710   0.163   7.738   5.035 -0.0048 -0.1738  0.2616
 4297W        W17711   2.406   8.985  15.617 -0.1666  0.2662 -0.2900
 4298W        W17712   7.349  10.778  13.966  0.0123 -0.1536  0.2298
 4299W        W17713   1.307  13.315  12.912  0.0962  0.0829 -0.0325
 4300W        W17714  16.565  12.529  11.516 -0.0063 -0.1427  0.3787
 4301W        W17715   8.971   5.711  13.514 -0.0123 -0.0080 -0.2129
 4302W        W17716   2.935  12.530   4.711 -0.1676  0.0603 -0.2362
 4303W        W17717  17.267  13.632   1.357  0.1867  0.0444 -0.0998
 4304W        W17718  13.285  15.087   2.358  0.0154  0.6103 -0.1521
 4305W        W17719   3.088   6.266   2.722  0.0191 -0.0765  0.0850
 4306W        W17720  16.593  15.401   4.212 -0.1223  0.0789  0.1560
 4307W        W17721   2.383   5.802   0.904 -0.1347  0.0934  0.1170
 4308W        W17722   2.035   5.361   0.778 -0.0157  0.1919  0.3253
 4309W        W17723  14.345  14.474  12.669  0.0303  0.2855  0.1108
 4310W        W17724   0.275   2.978   3.845 -0.0217  0.2278 -0.2440
 4311W        W17725   8.328   9.168  12.463  0.2877 -0.0469  0.0106
 4312W        W17726   8.529  12.357   4.039 -0.0506  0.0288 -0.0194
 4313W        W17727  15.648   8.489   2.282 -0.2917 -0.2087  0.0025
 4314W        W17728   0.189  12.325  11.251 -0.0782 -0.1429  0.1898
 4315W        W17729   5.188  12.321   1.726  0.1538  0.1873 -0.0079
 4316W        W17730  15.312   6.658  13.578 -0.2278 -0.2848  0.1184
 4317W        W17731   7.078  17.919  11.944  0.0035  0.0027 -0.0352
 4318W        W17732   5.272   3.833  13.138 -0.0068  0.2095 -0.0497
 4319W        W17733   8.479  18.112  11.371 -0.2528 -0.0644  0.1729
 4320W        W17734  13.029   1.748  14.711 -0.0207 -0.0423 -0.0745
 4321W        W17735  13.484  14.084   4.598 -0.2279  0.0453 -0.3606
 4322W        W17736   1.741  13.693   5.884  0.0453 -0.3946  0.3138
 4323W        W17737  16.075   3.828  13.287 -0.1040  0.0106  0.0974
 4324W        W17738  10.883  15.414  13.499  0.1212  0.0290 -0.0411
 4325W        W17739  13.874  10.710   4.474  0.3197  0.0268  0.0931
 4326W        W17740   2.167   3.595   2.462 -0.4774 -0.0494 -0.1817
 4327W        W17741  16.492   6.873  11.519  0.0949  0.0707 -0.0230
 4328W        W17742  17.431   3.829  14.931  0.0084 -0.0037  0.2342
 4329W        W17743   0.523  12.590  10.965 -0.0481 -0.0894  0.1989
 4330W        W17744   3.781  11.047   4.959  0.1939  0.2808 -0.2344
 4331W        W17745   9.321   5.684  11.851 -0.1928  0.0786 -0.3399
 4332W        W17746   8.185   9.158   0.369 -0.1679  0.2961 -0.0603
 4333W        W17747   5.639  14.602  15.092 -0.2714  0.2069  0.2268
 4334W        W17748   8.763   4.404   1.717  0.3416  0.0253 -0.2410
 4335W        W17749  13.788   3.652  11.588 -0.1591 -0.1083 -0.4444
 4336W        W17750   3.901  12.230  13.140  0.2708  0.2096  0.0192
 4337W        W17751   9.636  18.045   4.659  0.3135  0.0479  0.0594
 4338W        W17752  13.412  12.672  11.130 -0.0645 -0.0144 -0.2623
 4339W        W17753  12.174   7.117   0.663  0.1119 -0.4114  0.1317
 4340W        W17754  17.391  11.864   5.969  0.0238  0.0404 -0.2577
 4341W        W17755  11.981   4.926  15.947  0.1148  0.0895  0.0949
 4342W        W17756   6.839  13.420   2.036  0.0427 -0.2261 -0.0816
 4343W        W17757  11.824  16.247  10.491  0.0197 -0.0697 -0.1200
 4344W        W17758  17.587   2.081   4.399 -0.1531  0.0194  0.2067
 4345W        W17759  13.796   1.895  12.185 -0.0562 -0.0357 -0.0732
 4346W        W17760   7.519  15.022  10.647 -0.2212  0.2100  0.0494
 4347W        W17761   5.643  12.097  11.804 -0.1349  0.1261  0.0580
 4348W        W17762  16.666  12.921   0.299 -0.0984  0.2490 -0.1047
 4349W        W17763   8.352   5.169  10.665  0.1135  0.1923  0.3663
 4350W        W17764   4.854  16.518   4.685  0.0860  0.2388  0.0887
 4351W        W17765   3.039   7.373  15.996 -0.0417  0.3161  0.2982
 4352W        W17766   1.356   4.335  13.695 -0.0056  0.2270  0.1612
 4353W        W17767  14.555   5.695   1.683 -0.2818 -0.0372  0.1158
 4354W        W17768  13.045  17.629   4.536  0.1477 -0.3681 -0.0713
 4355W        W17769  17.489   9.018   4.720 -0.3329 -0.0683 -0.0367
 4356W        W17770   7.813   7.300  11.043 -0.0489 -0.1431 -0.1389
 4357W        W17771   3.691   7.399   2.251 -0.0087  0.4095 -0.1386
 4358W        W17772  14.285  15.543   4.630 -0.2076  0.3195 -0.1190
 4359W        W17773  12.476   9.694  12.755 -0.1990 -0.2774 -0.1923
 4360W        W17774   1.692   1.657  10.367 -0.0348 -0.1153 -0.3035
 4361W        W17775  13.596  17.314   1.099 -0.1245 -0.0100  0.1455
 4362W        W17776   0.978   6.629   4.805  0.0785 -0.0866  0.0274
 4363W        W17777   8.400   0.384  11.518  0.3185  0.1103  0.0301
 4364W        W17778   2.344   4.495  16.077  0.1560 -0.1990 -0.2205
 4365W        W17779  10.137  10.850   4.149 -0.2562 -0.2707  0.2342
 4366W        W17780  11.493   5.245   5.221  0.0617 -0.0536  0.0105
 4367W        W17781   7.497   4.728  11.224 -0.1466  0.3162  0.1652
 4368W        W17782  16.366   4.790  14.333  0.1655 -0.0228  0.1041
 4369W        W17783   5.451  13.436   3.237 -0.1172  0.2202  0.4382
 4370W        W17784   9.762   8.155   6.409 -0.2208  0.0765  0.0611
 4371W        W17785  16.565  14.295   3.330  0.1075  0.2931 -0.0824
 4372W        W17786  15.016   4.690   9.711 -0.0288 -0.0452 -0.0470
 4373W        W17787   5.385   1.412  11.337 -0.2432  0.1771  0.0852
 4374W        W17788  10.897   0.894   5.430 -0.0550 -0.0817  0.0463
 4375W        W17789  17.469  12.275   6.268  0.0211  0.1978  0.1613
 4376W        W17790   8.479   2.507  12.466  0.0802 -0.0656  0.0772
 4377W        W17791   9.532   6.166  12.039  0.0956 -0.1038 -0.2028
 4378W        W17792   1.494   6.781   1.871 -0.0272 -0.0783 -0.1079
 4379W        W17793   0.037   8.407  14.779  0.2240 -0.0783 -0.1678
 4380W        W17794   7.629  14.054   2.004  0.2382 -0.2611  0.1386
 4381W        W17795   7.655  14.895  14.705 -0.1184  0.1552  0.1874
 4382W        W17796   2.344  10.529  12.669 -0.0546  0.1434 -0.0579
 4383W        W17797  14.240   6.686  15.028  0.0171  0.1576  0.0226
 4384W        W17798   7.143   8.983   4.255 -0.0818 -0.2582 -0.1892
 4385W        W17799   0.001  13.972   5.413 -0.0613  0.0527 -0.0343
 4386W        W17800  17.937   2.519  12.677  0.1915 -0.0586  0.0130
 4387W        W17801  12.704  14.637  10.999 -0.1083  0.0793  0.0521
 4388W        W17802   4.167   9.929   6.311 -0.0283 -0.1337  0.0739
 4389W        W17803   0.890   3.298   2.444  0.2289  0.0169 -0.0993
 4390W        W17804  11.790   3.514  12.295 -0.0728  0.0206 -0.1987
 4391W        W17805   6.603   3.198  10.917  0.0430  0.0567  0.1284
 4392W        W17806   1.484   1.278   1.310  0.1201  0.1517 -0.1534
 4393W        W17807   0.381   9.411   0.861  0.0889 -0.1248  0.0493
 4394W        W17808  11.714  10.814  10.496 -0.1333  0.0684 -0.3531
 4395W        W17809   4.748   3.786  15.336  0.0988  0.0262  0.2751
 4396W        W17810  10.464   7.732   3.183 -0.3306 -0.2011 -0.1386
 4397W        W17811  11.835  15.497  10.029  0.0812  0.3278  0.0582
 4398W        W17812   2.884   6.608  14.400  0.1164  0.2406 -0.4059
 4399W        W17813   2.852   9.134  11.373 -0.0293 -0.1566  0.2564
 4400W        W17814   8.793   7.167   0.145 -0.2156 -0.1555  0.2372
 4401W        W17815  14.498   1.738  12.388 -0.1147  0.1461 -0.1727
 4402W        W17816  15.941  14.936   4.169 -0.0539 -0.1052  0.0558
 4403W        W17817  12.240   2.524  14.043  0.0014  0.1827  0.1384
 4404W        W17818  12.968  16.991   3.542  0.1315  0.0763 -0.3081
 4405W        W17819   8.121  17.468  10.742 -0.0750  0.2138  0.1592
 4406W        W17820   8.892  17.717  14.127  0.1078 -0.0766  0.2047
 4407W        W17821   5.313   7.690  12.425 -0.1364 -0.0881  0.0793
 4408W        W17822   0.958   2.348  13.350 -0.2555 -0.0768 -0.2702
 4409W        W17823   4.127  12.859   4.349  0.1202 -0.4227 -0.2023
 4410W        W17824  13.347   4.102   4.406 -0.1136 -0.1399 -0.1476
 4411W        W17825   9.147   0.076  12.175 -0.0698 -0.0274  0.3351
 4412W        W17826   7.225   6.317   4.150  0.0428  0.3498  0.2764
 4413W        W17827  15.621   6.923  10.348  0.3305 -0.1340  0.0790
 4414W        W17828   0.423  17.922   4.826 -0.0057  0.1772 -0.0353
 4415W        W17829   7.802  13.746   5.423  0.1153 -0.0256 -0.0419
 4416W        W17830   2.849   7.231   4.379 -0.0893  0.0578  0.4431
 4417W        W17831  10.756  16.686  16.094  0.0055  0.1577 -0.0436
 4418W        W17832  16.617   0.631   5.580  0.1409  0.0356 -0.1737
 4419W        W17833  16.525   8.476  11.945  0.1626 -0.3806  0.1483
 4420W        W17834  16.321   3.218  11.263  0.1059  0.3964  0.2988
 4421W        W17835  11.907   9.411  15.586 -0.2519  0.0665 -0.0208
 4422W        W17836   0.155  13.861  10.507  0.1861  0.3489  0.3076
 4423W        W17837   5.784   3.532  11.592 -0.2865  0.1216  0.3571
 4424W        W17838   4.507   1.109   1.841 -0.0653  0.1081  0.1215
 4425W        W17839   7.192   2.391  12.883  0.2259 -0.5320 -0.0436
 4426W        W17840   6.412   3.469   4.001 -0.0251  0.0697  0.1281
 4427W        W17841   6.958   4.170   3.912 -0.1065  0.0551 -0.1140
 4428W        W17842  10.321   6.300   5.028 -0.2410 -0.0983 -0.2221
 4429W        W17843   7.974   8.877  12.651 -0.0073  0.0629 -0.3526
 4430W        W17844   0.594  14.260  15.600  0.0519 -0.0302 -0.0505
 4431W        W17845  15.448   1.151  14.421 -0.0604  0.0755  0.0956
 4432W        W17846   0.640   1.763  12.179  0.0082 -0.2456  0.2163
 4433W        W17847  11.199   7.188  16.317  0.0925 -0.2280 -0.3114
 4434W        W17848   5.063   0.569  14.558 -0.0001 -0.3013 -0.1039
 4435W        W17849   2.342   5.988  12.601 -0.0535 -0.0312  0.0673
 4436W        W17850   4.887   6.915  11.336 -0.2867  0.3604 -0.4452
 4437W        W17851   4.961  11.433  14.607  0.2785 -0.1825 -0.0988
 4438W        W17852  15.315   6.107  15.588  0.1721  0.1405 -0.2257
 4439W        W17853   9.767   9.155   6.496  0.1624 -0.1585  0.0239
 4440W        W17854  17.173  11.185  15.235 -0.1100 -0.0012  0.1326
 4441W        W17855  16.397   1.286  12.248  0.0150  0.3125  0.2284
 4442W        W17856   8.073  16.751  14.539 -0.2669 -0.1125 -0.0561
 4443W        W17857   4.087  11.486  12.165  0.0999  0.1753 -0.1394
 4444W        W17858  16.363  12.446   0.210  0.0185 -0.1172 -0.0111
 4445W        W17859  12.781   2.868  15.259 -0.3264 -0.2022  0.0912
 4446W        W17860   6.233  14.321   5.371  0.0664  0.2747  0.2306
 4447W        W17861   5.870  13.043   1.895 -0.0131  0.0142 -0.1752
 4448W        W17862   4.218   3.563   4.254 -0.0286  0.1362 -0.0237
 4449W        W17863   7.429   6.554   0.430  0.0387 -0.1194 -0.0182
 4450W        W17864   6.794  15.343  10.098 -0.2886  0.0795  0.4592
 4451W        W17865  10.229  10.695  10.607  0.0681  0.0740  0.0304
 4452W        W17866   2.737   7.709  14.800  0.2328  0.0992 -0.1894
 4453W        W17867   7.796  11.370   4.978 -0.2162  0.2996  0.0801
 4454W        W17868  14.293  17.384   2.707  0.1858 -0.0467 -0.0296
 4455W        W17869   6.422   4.148  10.911  0.1777  0.2098 -0.0611
 4456W        W17870  11.503   3.148  10.482  0.0903 -0.0458 -0.0353
 4457W        W17871   7.131  13.124   1.566  0.2523  0.2639  0.1216
 4458W        W17872  18.149   3.738  13.472 -0.0679 -0.0288  0.1536
 4459W        W17873  14.500   6.884   4.142  0.2369  0.1904 -0.0613
 4460W        W17874   1.259   5.293  13.360 -0.0073 -0.4198 -0.0365
 4461W        W17875   5.268   2.472  14.494 -0.0132 -0.1320  0.3487
 4462W        W17876   2.925   1.134   1.896 -0.1834  0.1144  0.1075
 4463W        W17877  10.463  11.449   1.008 -0.0253  0.0131 -0.0429
 4464W        W17878  18.075   0.486   2.616 -0.0672  0.1140  0.0106
 4465W        W17879   2.872  13.152  13.591  0.1474 -0.1683  0.0572
 4466W        W17880  11.532  11.790  13.106 -0.0630 -0.1671 -0.1182
 4467W        W17881   4.934   8.006   0.987 -0.1596  0.0021 -0.1133
 4468W        W17882   3.694  14.144   0.304  0.0085  0.0534  0.3092
 4469W        W17883  10.277   7.331  11.986 -0.2520 -0.0161 -0.1398
 4470W        W17884  12.674  16.564  14.294  0.0343 -0.1319  0.1684
 4471W        W17885   5.996  14.954  11.170  0.0853 -0.2896  0.2440
 4472W        W17886   3.708   6.222  14.391 -0.1377  0.3287  0.0132
 4473W        W17887   5.186   3.211   0.784  0.2290  0.2632  0.1034
 4474W        W17888   9.223   2.401   0.277 -0.0030 -0.0970 -0.3015
 4475W        W17889  12.482   0.919   1.349 -0.0220 -0.0618  0.1031
 4476W        W17890  14.682   6.108  14.540 -0.1496 -0.1172  0.0732
 4477W        W17891  13.766  12.374  11.218  0.1015  0.0007  0.1938
 4478W        W17892  11.371  11.967  15.685 -0.0258 -0.0086  0.0041
 4479W        W17893  17.016  11.460   3.052 -0.0341  0.1308  0.0697
 4480W        W17894   5.516  17.945   1.643 -0.2671  0.0854 -0.0481
 4481W        W17895   1.669  14.499   0.522 -0.1200  0.1749 -0.2429
 4482W        W17896   2.014   4.600  12.670 -0.0369  0.0055 -0.3088
 4483W        W17897   6.966   6.249  10.572  0.0981  0.0079  0.5449
 4484W        W17898  18.163   8.655   0.308 -0.1930  0.2147  0.0060
 4485W        W17899  15.766   9.649   3.009 -0.0220 -0.0031  0.1098
 4486W        W17900   8.830  13.862  15.782 -0.0391  0.2052  0.3461
 4487W        W17901  11.251  13.501  12.750  0.1643 -0.0839  0.0034
 4488W        W17902   5.122  12.122  12.512  0.0015 -0.3261 -0.0576
 4489W        W17903   3.545   5.833   1.209 -0.1171  0.1490  0.0466
 4490W        W17904  14.999   3.647  10.291  0.0580 -0.1792  0.0178
 4491W        W17905  11.844   6.157  10.808  0.0854  0.0302 -0.2303
 4492W        W17906   8.046   5.580  15.306 -0.3806  0.0776  0.0179
 4493W        W17907   0.911   9.612  12.966  0.0161  0.2050 -0.0021
 4494W        W17908   2.780   4.966  15.270 -0.0967  0.2227 -0.0050
 4495W        W17909   6.891   4.078   1.112 -0.0942  0.1413  0.2064
 4496W        W17910  17.094   4.320   0.126  0.1901  0.2123 -0.2483
 4497W        W17911  12.987   1.857  16.105 -0.2337  0.1812 -0.1849
 4498W        W17912   1.971   5.595  11.140 -0.0549 -0.2999  0.1231
 4499W        W17913   8.317   3.370   0.702  0.1694  0.3145  0.0648
 4500W        W17914   7.636   6.785   0.019 -0.1771 -0.0801 -0.1257
 4501W        W17915   8.917  14.719  11.981  0.0323  0.0009  0.0624
 4502W        W17916   8.362   7.253  10.516 -0.0266  0.2274 -0.2238
 4503W        W17917   0.271   0.431   2.910 -0.1644 -0.0351  0.2149
 4504W        W17918  14.348   9.137   0.858  0.3076 -0.0747 -0.0863
 4505W        W17919  15.995   9.897   3.567  0.0372  0.0049 -0.1318
 4506W        W17920   6.863  15.079   2.811  0.0912 -0.1418  0.1141
 4507W        W17921   2.169   3.799  15.307  0.0427 -0.2807  0.0987
 4508W        W17922  11.059  17.507   4.993 -0.0118 -0.4326 -0.0078
 4509W        W17923  15.609   0.356  15.102 -0.3437  0.4196 -0.1218
 4510W        W17924   0.057   3.865   2.662  0.2582  0.0924 -0.1091
 4511W        W17925   8.596  13.019  11.103  0.3982 -0.2027 -0.0720
 4512W        W17926   7.380  17.915   0.161 -0.2895 -0.1621 -0.2809
 4513W        W17927   6.732   1.573   3.059  0.0110 -0.1966  0.0851
 4514W        W17928  11.588  10.328   2.216  0.1495  0.3001  0.1530
 4515W        W17929  16.378  11.231   2.593 -0.0131 -0.4222 -0.1088
 4516W        W17930  17.890  16.886  14.118  0.2429 -0.0867 -0.3404
 4517W        W17931  14.833  18.197   3.222 -0.3424  0.1389  0.1274
 4518W        W17932   2.444   8.568  15.200  0.0685  0.1057 -0.0562
 4519W        W17933  15.145  14.465   0.540 -0.2002 -0.0544 -0.0501
 4520W        W17934  11.628  11.623  14.164  0.0373 -0.3594  0.1973
 4521W        W17935  16.563  14.190   2.815 -0.0726 -0.1338 -0.0624
 4522W        W17936   1.028  12.597  14.445 -0.2708 -0.0880  0.2452
 4523W        W17937   1.593   4.772   2.395 -0.4331 -0.0431  0.1166
 4524W        W17938   2.879   4.131   1.044 -0.1514  0.1589  0.0435
 4525W        W17939   9.847  10.099  16.251  0.2304  0.0829 -0.1857
 4526W        W17940   4.171  17.839  14.360 -0.1827 -0.1130  0.1697
 4527W        W17941  15.454   9.715  14.169  0.2738 -0.0078  0.2679
 4528W        W17942   9.562  15.997   1.797 -0.1333 -0.3752  0.2421
 4529W        W17943  13.432   7.970  12.594 -0.1943 -0.3798 -0.2676
 4530W        W17944   9.293   9.058   3.242 -0.2502  0.2068  0.1224
 4531W        W17945   7.554  13.597  11.958 -0.0538 -0.0838 -0.0279
 4532W        W17946  15.400  16.526   3.752 -0.2181  0.4761  0.0245
 4533W        W17947   8.592   2.837  12.010  0.4837 -0.0175  0.1867
 4534W        W17948   5.832  17.546   2.969  0.1289 -0.0027 -0.0177
 4535W        W17949  17.207   2.121  15.901  0.1826  0.3483  0.3987
 4536W        W17950  17.140  15.824   4.764  0.0837 -0.0852  0.0472
 4537W        W17951  15.792  13.244   1.182 -0.0839 -0.2785  0.1014
 4538W        W17952  11.934   6.210   4.541  0.0600 -0.0724 -0.0535
 4539W        W17953  11.004   0.048  10.231  0.0639  0.1864  0.3819
 4540W        W17954   5.802   7.895   3.011  0.0969  0.1817 -0.1860
 4541W        W17955  15.875   0.702  10.928 -0.4928  0.0307 -0.0013
 4542W        W17956  12.608  10.586  12.973  0.2293 -0.1136 -0.0201
 4543W        W17957  16.955   9.981  15.565  0.2120 -0.2829 -0.1852
 4544W        W17958   8.546   1.831  13.209 -0.3004 -0.0381  0.0368
 4545W        W17959  13.486   6.142  11.960  0.0244  0.5055 -0.1422
 4546W        W17960   2.124   5.950   2.697 -0.0873 -0.0871 -0.2225
 4547W        W17961   8.347  11.222  15.206 -0.1070  0.0818 -0.2332
 4548W        W17962  13.939  17.960   6.272  0.2546 -0.0931 -0.0327
 4549W        W17963   1.930  11.867  14.608 -0.1490 -0.2386 -0.1878
 4550W        W17964  17.842   2.873   0.951  0.5112 -0.1477  0.0341
 4551W        W17965  11.824   1.346   1.887  0.1009 -0.1051  0.1683
 4552W        W17966   9.201   7.299   0.423 -0.1433  0.2245  0.1334
 4553W        W17967  14.322   9.714  12.051  0.0427 -0.3189 -0.0703
 4554W        W17968  12.917   0.546   0.588  0.2249  0.1304  0.2134
 4555W        W17969   1.775   1.667  11.862  0.0614  0.0666 -0.0237
 4556W        W17970  12.886  14.561  16.488  0.1953  0.1800 -0.1722
 4557W        W17971   5.673   4.478  11.993 -0.0202  0.1470  0.1063
 4558W        W17972   2.268  11.086  11.171  0.2198 -0.1294 -0.0603
 4559W        W17973  12.816  17.493   1.616 -0.2999 -0.1578  0.2152
 4560W        W17974  16.395   9.463  11.521  0.1182  0.1442  0.0342
 4561W        W17975   0.856  16.270   1.036  0.1491 -0.0347  0.2171
 4562W        W17976  14.694   6.837   4.665 -0.1101 -0.0971 -0.3382
 4563W        W17977  13.466   9.122   0.972  0.1390 -0.5744  0.0332
 4564W        W17978   2.631  16.104   4.279 -0.1453 -0.0015 -0.1005
 4565W        W17979  12.665   0.974  13.160  0.1393 -0.0126  0.0769
 4566W        W17980  15.481  12.272  11.650 -0.1979 -0.1513 -0.0745
 4567W        W17981  11.114   7.140   0.346  0.1591  0.1631 -0.0170
 4568W        W17982   3.537   3.475  11.743 -0.1449  0.1973 -0.2517
 4569W        W17983  12.237  15.941   4.216  0.1327  0.0645 -0.1144
 4570W        W17984   8.664  16.330   4.744 -0.0778 -0.0737  0.3408
 4571W        W17985  12.719  12.385   3.505 -0.1170 -0.0779 -0.1034
 4572W        W17986  10.344  16.234   1.155  0.2558  0.1322  0.1620
 4573W        W17987   0.104   8.111   3.313 -0.1564 -0.0940  0.4651
 4574W        W17988  16.192  14.839   2.105 -0.2373 -0.0746 -0.1240
 4575W        W17989  10.848  10.691  10.829  0.2698 -0.3905  0.0330
 4576W        W17990  17.499  11.230   1.690 -0.1130  0.0628  0.2185
 4577W        W17991   4.685   4.653   5.995 -0.1770  0.1212 -0.0336
 4578W        W17992  14.825  10.416   1.037 -0.0474  0.0841  0.1210
 4579W        W17993  15.524  11.608  14.144  0.1342  0.0359  0.0919
 4580W        W17994  12.376  12.018  12.783  0.2611  0.0405  0.1804
 4581W        W17995  15.958  17.537   2.206  0.2041 -0.2136  0.2820
 4582W        W17996  11.031   5.355   5.396  0.0651  0.0383  0.1588
 4583W        W17997   6.608   9.622  14.029  0.3904 -0.0404 -0.2509
 4584W        W17998   4.067   3.289   1.627 -0.3572 -0.0582  0.1237
 4585W        W17999   1.120  14.344   1.242 -0.2333  0.1627 -0.0131
 4586W        W18000  10.510  14.969  13.962 -0.2654  0.0321  0.0877
 4587W        W18001   1.094   1.296   0.084 -0.1762 -0.0403 -0.1860
 4588W        W18002   4.022   4.774   5.189  0.0060 -0.0168 -0.3902
 4589W        W18003   3.100  17.701  15.738  0.0319 -0.4065 -0.2696
 4590W        W18004   1.490   6.061   0.831  0.0723 -0.0598  0.3140
 4591W        W18005   0.524  14.866   5.478 -0.0392  0.0492  0.1738
 4592W        W18006  12.163  18.026  13.112  0.0331 -0.2445  0.4664
 4593W        W18007   0.741  12.272   4.712  0.0516  0.3766 -0.1748
 4594W        W18008  11.438   7.468   0.186  0.1590 -0.2332  0.1195
 4595W        W18009   9.223   0.855   1.950 -0.2962  0.1784  0.1501
 4596W        W18010  12.690  13.612   3.570  0.4350  0.0978  0.0396
 4597W        W18011  17.639  14.138  13.715 -0.1142 -0.2477  0.0677
 4598W        W18012   5.096  17.472   6.555 -0.3712 -0.2120  0.1314
 4599W        W18013   8.121   2.583  16.337  0.1096  0.1647  0.2037
 4600W        W18014   7.974   5.129   2.048  0.1892  0.1428  0.0612
 4601W        W18015   1.509  16.931  12.438  0.0239 -0.1402  0.1254
 4602W        W18016  12.946  12.407  15.758 -0.2203 -0.3043 -0.1188
 4603W        W18017   5.184   8.392   0.953 -0.1446 -0.0472 -0.0777
 4604W        W18018  10.140   5.950  15.933  0.2204  0.3430  0.0980
 4605W        W18019   4.444   4.036   3.069 -0.0878  0.0873 -0.0028
 4606W        W18020  15.659  17.823   0.347 -0.1842  0.3024 -0.0421
 4607W        W18021  17.205   8.877   1.795 -0.1336 -0.0978 -0.1820
 4608W        W18022  18.113   7.658  12.630 -0.0111  0.0379  0.1838
 4609W        W18023   3.281   1.600   4.800  0.0161  0.1040  0.0093
 4610W        W18024  13.400   0.398   0.586  0.1468 -0.0804 -0.1177
 4611W        W18025   1.267   1.581  14.333  0.0358  0.1114 -0.0305
 4612W        W18026   5.958   1.545  12.103  0.3169 -0.0680  0.1746
 4613W        W18027  15.346   6.308   4.764 -0.1300  0.0111 -0.0769
 4614W        W18028  10.088  12.531  11.280 -0.1515 -0.1456  0.0532
 4615W        W18029   7.320   8.360   6.660 -0.2963  0.0371 -0.1269
 4616W        W18030   2.627  15.535   2.822  0.1245 -0.3568  0.1517
 4617W        W18031   4.911   1.731   5.312  0.3065 -0.1125  0.0227
 4618W        W18032  17.708   2.218   4.838  0.1276  0.1221 -0.2695
 4619W        W18033  16.368   6.281   0.109 -0.1756  0.2722 -0.0823
 4620W        W18034   4.273   1.295   4.609  0.0429 -0.1760 -0.2198
 4621W        W18035   6.400   1.296   6.004 -0.0980 -0.1899 -0.1548
 4622W        W18036   4.151   4.615  11.293  0.0460  0.2802 -0.2855
 4623W        W18037  18.081   3.066   0.487  0.0706 -0.0132 -0.0628
 4624W        W18038  14.544  11.908   4.374  0.3193 -0.2051  0.0111
 4625W        W18039  17.272  17.638  10.332 -0.0754 -0.0743  0.0058
 4626W        W18040  12.922   2.983  12.930  0.1055 -0.1341  0.1544
 4627W        W18041   4.014  13.772   5.340  0.0530 -0.0534 -0.1892
 4628W        W18042  14.564   0.265  14.805  0.1382 -0.0309 -0.0245
 4629W        W18043   2.222   3.209   4.964 -0.1451  0.2459  0.1992
 4630W        W18044  14.458  11.371   1.169 -0.1775  0.3907  0.2192
 4631W        W18045  12.815  16.390   3.400 -0.1573  0.1980 -0.1496
 4632W        W18046   8.961   1.555  10.063  0.2143  0.1993 -0.1121
 4633W        W18047   8.247   9.190   4.562 -0.2440  0.3287 -0.1578
 4634W        W18048   5.218   6.369   1.080 -0.2336 -0.2735 -0.0515
 4635W        W18049   3.781  17.657   5.803  0.1422 -0.0168  0.0228
 4636W        W18050  12.369   8.108   3.216 -0.0786  0.2579  0.1388
 4637W        W18051  13.842  14.434  12.060  0.1016 -0.0013  0.2846
 4638W        W18052   2.493  16.032   0.535  0.0274  0.1660  0.3431
 4639W        W18053   8.534   3.712   2.049 -0.1610  0.0234 -0.0054
 4640W        W18054   5.580   9.213   5.512  0.1142  0.1202  0.2077
 4641W        W18055   2.349  12.635   6.588 -0.1428  0.0747 -0.0190
 4642W        W18056  18.078   2.782   6.616 -0.0681 -0.1009  0.0243
 4643W        W18057  15.100   1.541  16.224 -0.3336 -0.4490 -0.0283
 4644W        W18058   3.666   8.420  11.985 -0.1372  0.0599  0.1192
 4645W        W18059   8.464  18.207   3.070  0.0040 -0.2198 -0.2740
 4646W        W18060   9.981  12.699   9.758  0.2082  0.0042 -0.4095
 4647W        W18061   9.984   2.060   3.979  0.1598  0.2734  0.2330
 4648W        W18062   6.927   3.226   3.361  0.2471  0.0316  0.0399
 4649W        W18063   0.176  10.755   4.225 -0.1481 -0.1849 -0.0484
 4650W        W18064  12.492   2.200   0.655  0.3547  0.3661  0.1462
 4651W        W18065  10.263  10.084  13.313 -0.5579 -0.0180 -0.1905
 4652W        W18066   8.264  17.052  12.546 -0.0251 -0.0385  0.0334
 4653W        W18067  10.800   3.977   2.295  0.1537  0.2897 -0.0652
 4654W        W18068   2.646  12.007   4.591  0.3618 -0.2801  0.0073
 4655W        W18069  17.482  14.392   1.738  0.1328 -0.0480 -0.1937
 4656W        W18070   9.069   4.098  14.196 -0.2089  0.2407  0.0928
 4657W        W18071  15.971  17.134   5.671 -0.0614  0.1350  0.1328
 4658W        W18072   2.468   4.869  16.459  0.0030  0.0218 -0.2447
 4659W        W18073   0.744  12.793  15.182 -0.3519 -0.1822  0.0271
 4660W        W18074   7.684  13.546  14.898 -0.0270 -0.0037 -0.0011
 4661W        W18075   0.110  10.660   2.893  0.0064  0.0258 -0.4480
 4662W        W18076  14.605   1.806  13.624  0.1238 -0.0585  0.1982
 4663W        W18077   4.068   3.644   2.633 -0.1402 -0.0569 -0.0265
 4664W        W18078   4.777   2.340  16.023 -0.1331  0.0784 -0.2051
 4665W        W18079   3.974  17.678   3.508  0.2206 -0.3171 -0.3380
 4666W        W18080  16.123   9.591   1.227  0.0645  0.1045  0.0885
 4667W        W18081   0.652   2.108   4.015 -0.0340 -0.2688  0.2021
 4668W        W18082   7.773   6.059   2.146  0.3512  0.1197 -0.0287
 4669W        W18083  10.373   3.248   4.147  0.3118 -0.3284  0.2204
 4670W        W18084   7.280   8.593   2.451 -0.2244  0.0600  0.0045
 4671W        W18085  17.860  10.461   3.012 -0.1051 -0.0984  0.2063
 4672W        W18086   6.748  16.386  14.540  0.0767 -0.2891 -0.1189
 4673W        W18087  13.030  17.004  12.004  0.0105  0.1193 -0.2966
 4674W        W18088  12.933   4.814   0.232  0.1937 -0.1510  0.1023
 4675W        W18089   5.377   2.453   4.623  0.3281  0.0395 -0.2369
 4676W        W18090   1.030   7.609   1.639 -0.0876 -0.2075 -0.0879
 4677W        W18091  15.991  16.126  11.872  0.2327 -0.0118  0.2367
 4678W        W18092   2.045   4.192   1.465  0.2044 -0.1732  0.3800
 4679W        W18093   2.405  18.156  16.261  0.1719  0.3945 -0.0342
 4680W        W18094  16.468   5.636   3.013  0.0215 -0.1585  0.0784
 4681W        W18095  15.361  12.628   4.930 -0.2849 -0.0135 -0.2539
 4682W        W18096   8.061  12.146  13.868  0.4339  0.1472  0.1006
 4683W        W18097   7.769  13.704  12.970  0.1212 -0.0304 -0.0339
 4684W        W18098   0.001  14.713  14.002  0.2295  0.1929  0.1155
 4685W        W18099   5.666   7.852  10.912 -0.1386 -0.2150  0.4646
 4686W        W18100   9.495  17.777   5.087 -0.3453 -0.1515 -0.0342
 4687W        W18101   3.727   1.842  11.896 -0.2373  0.0356 -0.1254
 4688W        W18102   9.368   9.854  15.302  0.1755 -0.0720 -0.0907
 4689W        W18103  15.976   5.246   2.156  0.1540 -0.1954 -0.1968
 4690W        W18104  14.035  12.250  13.079 -0.2073  0.1165  0.2474
 4691W        W18105   5.902   7.794   0.819  0.1564 -0.1605 -0.0140
 4692W        W18106  16.806  17.433  16.019 -0.0045 -0.0794  0.0593
 4693W        W18107   1.611  16.001  13.794 -0.3633 -0.0190  0.0734
 4694W        W18108  12.344  15.166   2.074  0.1718  0.2488 -0.0163
 4695W        W18109   7.165   1.689  13.796  0.0325  0.1978  0.0244
 4696W        W18110   3.424   6.640  15.671  0.0438  0.2101 -0.0799
 4697W        W18111  12.478   4.917  12.382  0.1030  0.1694  0.1207
 4698W        W18112  12.575  11.065   4.293  0.0766  0.1123 -0.0309
 4699W        W18113  12.043  10.698   3.807  0.1972  0.0035  0.0149
 4700W        W18114   4.723  17.610   1.964 -0.3935 -0.6793 -0.0234
 4701W        W18115   6.972  12.811   3.151 -0.0903 -0.0417 -0.2825
 4702W        W18116   2.853  14.336   1.998 -0.0924 -0.1485 -0.0348
 4703W        W18117   9.708   9.849  13.706 -0.0104  0.1411 -0.1113
 4704W        W18118  16.407   0.368   2.239  0.0911  0.0391 -0.0834
 4705W        W18119   8.358  11.448  14.809  0.1614 -0.1181  0.1042
 4706W        W18120   7.019  13.400  16.367 -0.2109 -0.4571 -0.1550
 4707W        W18121  12.873   5.298   0.145 -0.1206  0.1775 -0.0419
 4708W        W18122   3.270   5.177  15.903 -0.0388 -0.2351  0.2232
 4709W        W18123   8.157  12.822  12.001 -0.1018 -0.0955  0.0460
 4710W        W18124   8.125   3.516  13.373 -0.0193 -0.0756 -0.1370
 4711W        W18125   0.504  10.353   4.294  0.1480 -0.2670  0.0183
 4712W        W18126   5.817   9.326  12.551 -0.0542 -0.0521 -0.1060
 4713W        W18127   9.481  17.264  16.304 -0.1243 -0.1811 -0.2447
 4714W        W18128   9.025  13.355  13.354  0.0199 -0.0002  0.0380
 4715W        W18129  14.067   2.011  12.620 -0.2776 -0.2520 -0.0671
 4716W        W18130  10.357  14.198   4.752 -0.0698  0.0248  0.1567
 4717W        W18131  13.663  15.599  14.375 -0.0056  0.2994 -0.0377
 4718W        W18132  11.931  10.422  14.438  0.0032 -0.0708  0.1057
 4719W        W18133   9.634   7.680  11.306 -0.2824  0.0401  0.2968
 4720W        W18134   1.625   6.816   6.260  0.1647  0.0094 -0.0672
 4721W        W18135   4.658   7.189  12.798 -0.1214 -0.0971  0.0770
 4722W        W18136   2.204   9.977  15.872 -0.0257 -0.1051 -0.4992
 4723W        W18137   3.957  12.533   4.908 -0.1960 -0.1420 -0.0045
 4724W        W18138  14.824   7.384  10.720 -0.3402  0.4187 -0.0106
 4725W        W18139  14.547   5.270  14.510 -0.1334  0.2656  0.1551
 4726W        W18140  17.546   2.977   5.800  0.0141  0.0960  0.0566
 4727W        W18141   9.777   5.287   0.594 -0.1211 -0.0689  0.0555
 4728W        W18142   0.825   1.168  11.210 -0.0225  0.0170 -0.0630
 4729W        W18143   8.614  12.044  11.624 -0.2325  0.4014  0.2331
 4730W        W18144   3.582   2.798   2.498 -0.0096  0.0638  0.0977
 4731W        W18145  14.494   2.985  11.302  0.1013  0.0629  0.2721
 4732W        W18146  12.588  10.032   2.709 -0.0736  0.0643  0.0348
 4733W        W18147  16.895   0.419  12.994  0.0321  0.0182 -0.2841
 4734W        W18148   7.539   0.262   3.333  0.0791  0.2127  0.3118
 4735W        W18149   4.518  10.866   5.613  0.0903  0.2684  0.2304
 4736W        W18150  10.582   1.366  11.097 -0.2176 -0.0844 -0.3390
 4737W        W18151   8.504   8.888  14.721 -0.0039 -0.2024  0.0239
 4738W        W18152   4.110  12.686  15.281  0.0946 -0.0843 -0.1689
 4739W        W18153   4.828   8.347   2.204 -0.0612  0.2443  0.2049
 4740W        W18154   8.470  14.715  15.583 -0.0269 -0.3065 -0.1125
 4741W        W18155  14.242   1.384  15.661 -0.0244  0.4546 -0.0996
 4742W        W18156  16.565   5.750  11.092  0.1026  0.2274 -0.1080
 4743W        W18157   4.382  14.495  11.458 -0.1948 -0.4206 -0.2630
 4744W        W18158  15.452  17.350   1.566  0.0290 -0.1752  0.0467
 4745W        W18159   2.067   9.785   2.300 -0.1098  0.2563  0.3245
 4746W        W18160   5.639   9.215   1.672  0.0398 -0.0983 -0.0645
 4747W        W18161  17.770  15.508   0.328  0.2244  0.0369 -0.2066
 4748W        W18162   5.644   6.855  13.043 -0.2239 -0.0609  0.0191
 4749W        W18163   4.869   3.485  11.136  0.0132 -0.2306  0.0417
 4750W        W18164  14.216  17.259   3.802  0.1387  0.0804 -0.0830
 4751W        W18165  16.074   6.672  10.762  0.0504  0.0344  0.0106
 4752W        W18166   3.374  10.666   4.998  0.1149 -0.0600 -0.0133
 4753W        W18167   4.572   6.178   9.580  0.2742 -0.1061  0.1471
 4754W        W18168   0.969  10.549  12.205  0.0829  0.2348 -0.0305
 4755W        W18169   7.049  18.089  10.120  0.2112  0.0652  0.0162
 4756W        W18170  12.937  10.735   9.938 -0.2918  0.0114  0.1178
 4757W        W18171   9.909   2.978  11.562 -0.3222  0.0782  0.0315
 4758W        W18172  11.778  12.525   4.113 -0.1055  0.1115 -0.0760
 4759W        W18173  15.468  15.173  13.878 -0.1145  0.4502 -0.0303
 4760W        W18174  17.071   0.020  11.761  0.0446  0.3189  0.0830
 4761W        W18175   3.269   0.158   1.192  0.0672 -0.2363  0.2434
 4762W        W18176   0.237   8.190  15.308 -0.0053 -0.2422 -0.1455
 4763W        W18177   0.417   7.892   6.401  0.2390  0.2134  0.0257
 4764W        W18178  11.193  13.710  13.751 -0.0285 -0.2819 -0.1306
 4765W        W18179  14.772  10.251   3.544  0.2246  0.0735 -0.1298
 4766W        W18180  12.658   2.490   1.762 -0.0117  0.0494 -0.0676
 4767W        W18181   4.235  13.728  16.189 -0.1614 -0.1796 -0.0109
 4768W        W18182  16.153   8.460   4.087 -0.1905  0.0136  0.0954
 4769W        W18183  10.178  16.031   3.377  0.0333  0.4243 -0.1472
 4770W        W18184  14.517  15.159   0.112 -0.2711  0.3701 -0.0657
 4771W        W18185  16.711   2.629  10.478  0.0562  0.1695  0.1110
 4772W        W18186  13.913   6.184  11.829  0.2046 -0.1051 -0.0926
 4773W        W18187   9.408   3.982   0.049  0.0433 -0.0278  0.0827
 4774W        W18188   0.410   1.071   3.908  0.0523  0.0536  0.0739
 4775W        W18189  12.940   1.321  13.822 -0.0932 -0.0357  0.0985
 4776W        W18190   4.715   1.666  13.248  0.0890  0.0260 -0.0995
 4777W        W18191  14.794   6.346   4.820  0.2303 -0.0223  0.0490
 4778W        W18192  12.450  14.776   5.959  0.3784 -0.1641 -0.1887
 4779W        W18193  12.301  17.472  12.381  0.4385  0.2060 -0.0643
 4780W        W18194  11.805   1.617   5.058  0.0728 -0.0757  0.1312
 4781W        W18195   4.541  18.085  15.624 -0.2525 -0.3266  0.0178
 4782W        W18196   9.385  14.487   5.178  0.2355  0.0044 -0.0132
 4783W        W18197  11.056   2.298   3.900 -0.0809  0.0386  0.1096
 4784W        W18198  12.919  13.405  10.400  0.0812  0.0406  0.0410
 4785W        W18199   1.984  17.333   1.844 -0.2632 -0.2760 -0.1115
 4786W        W18200  11.947   1.719   2.837 -0.1350 -0.0370  0.3421
 4787W        W18201   1.079  17.292   2.153 -0.3233 -0.0563  0.1560
 4788W        W18202   6.073   2.937  11.585 -0.0287  0.1742  0.1341
 4789W        W18203   8.339  14.762  11.584  0.2427  0.0775  0.2267
 4790W        W18204  13.536  12.940  12.144 -0.0651 -0.0537 -0.0648
 4791W        W18205  16.687  10.082   1.228 -0.1754 -0.1248 -0.1232
 4792W        W18206   4.335   9.884   2.013 -0.0955 -0.1805  0.0626
 4793W        W18207   1.554  14.197   4.135  0.0825  0.1594  0.2760
 4794W        W18208   2.502   5.671   3.928 -0.1733  0.1093  0.1521
 4795W        W18209   3.808  11.644  11.138 -0.1977  0.3952  0.1979
 4796W        W18210   9.690   5.195  16.148  0.0302 -0.2336  0.2015
 4797W        W18211   7.273  12.290   3.300 -0.1968  0.2378  0.3543
 4798W        W18212   7.964   5.650  14.259  0.3434 -0.1524  0.0821
 4799W        W18213   1.532   4.690  13.286 -0.1850 -0.0412 -0.2085
 4800W        W18214  14.697   7.919  14.620 -0.1749  0.1750 -0.0417
 4801W        W18215  17.352   7.719   5.266  0.0706  0.3870  0.0323
 4802W        W18216   3.997   0.059   4.180 -0.0264 -0.1506 -0.1580
 4803W        W18217  11.970   0.179   5.379 -0.1424  0.1635  0.2727
 4804W        W18218   5.918   5.543  14.809  0.0094  0.1920  0.0164
 4805W        W18219  13.649   2.916  14.674  0.2035 -0.1734  0.2791
 4806W        W18220  11.401   7.826  11.353  0.1835  0.0534  0.0604
 4807W        W18221   3.062  16.030   1.322 -0.1592  0.1570 -0.2023
 4808W        W18222   0.926  13.913   1.074  0.0335  0.4462  0.0538
 4809W        W18223   7.984  14.487  15.970 -0.1672 -0.3358  0.2453
 4810W        W18224   5.459   9.234  15.615 -0.0869 -0.0369  0.0224
 4811W        W18225  10.796   9.277   0.681 -0.0227  0.1249 -0.0124
 4812W        W18226  14.471  12.681   5.031 -0.2866  0.3219  0.2868
 4813W        W18227   2.411   2.771  15.271  0.0639 -0.0328  0.1072
 4814W        W18228  11.725   1.233  15.387 -0.1722 -0.0140 -0.0702
 4815W        W18229   7.505  13.936  11.029  0.1093  0.1846 -0.0521
 4816W        W18230   2.937  12.346  16.118 -0.2387  0.0779  0.1828
 4817W        W18231  13.126   3.130  14.300 -0.0654  0.1652  0.3908
 4818W        W18232  12.842   8.338   2.830  0.2245  0.1362  0.0616
 4819W        W18233  13.524   3.894   1.455 -0.0179 -0.3303  0.0270
 4820W        W18234  15.035  13.893  16.078 -0.1858  0.2321  0.2549
 4821W        W18235   3.983  14.723   5.229 -0.0477 -0.0931 -0.1923
 4822W        W18236   0.179  13.286   3.053  0.0534 -0.0806  0.3404
 4823W        W18237   3.230  18.241   4.743  0.1292  0.0291  0.0616
 4824W        W18238   8.570   6.813  10.392 -0.3036  0.1429 -0.0872
 4825W        W18239  10.773  16.784   3.553 -0.1481 -0.3393  0.3047
 4826W        W18240   6.975  13.937  16.279 -0.0130 -0.0319  0.0140
 4827W        W18241   8.166   1.535  10.558 -0.0653 -0.2334  0.0219
 4828W        W18242   0.559   3.955  15.120  0.1250  0.0370  0.1111
 4829W        W18243   9.030   2.506   1.647  0.2745  0.1694 -0.0682
 4830W        W18244  14.861   6.460  15.874 -0.0075 -0.0689  0.2108
 4831W        W18245   0.260   9.572   3.916  0.0682 -0.1003  0.2921
 4832W        W18246  14.944   3.127  14.754 -0.2508  0.0358 -0.0639
 4833W        W18247  14.241  11.058  15.661  0.0186  0.1065  0.1303
 4834W        W18248  15.985   7.768  11.932  0.2470 -0.1441  0.1669
 4835W        W18249  12.844   7.581  15.155 -0.1703  0.0050  0.1777
 4836W        W18250   3.263   3.774   2.374 -0.1686  0.2673  0.2294
 4837W        W18251   3.280  15.270   5.248  0.4083 -0.0471  0.0092
 4838W        W18252   9.173   5.180   1.436  0.0395 -0.1313 -0.0231
 4839W        W18253   1.378   5.261  15.385  0.1195  0.3831  0.0256
 4840W        W18254  18.052   2.387   3.329  0.0843 -0.0034 -0.0330
 4841W        W18255   3.521   9.038   5.286 -0.0333 -0.0520  0.1194
 4842W        W18256   5.309   2.805   0.247  0.0092  0.3427 -0.0683
 4843W        W18257  12.849   0.260  15.935 -0.1213 -0.3317  0.2287
 4844W        W18258   8.594   2.055  11.120  0.0988  0.0133  0.0862
 4845W        W18259  12.702  17.609   1.069  0.2636  0.0875 -0.0894
 4846W        W18260  16.000   6.824  11.576 -0.0123  0.0681  0.2451
 4847W        W18261   9.542  18.083   3.374  0.1547  0.1307  0.0110
 4848W        W18262   5.122   3.250  12.081 -0.1222  0.1220  0.0362
 4849W        W18263   9.872   4.539   2.110 -0.2761 -0.1286  0.1197
 4850W        W18264  10.833  13.922  14.018  0.0892 -0.0829 -0.2013
 4851W        W18265   4.464   5.769   1.598 -0.0069 -0.1068  0.0187
 4852W        W18266   4.532  10.355   4.285  0.0381  0.0440 -0.1019
 4853W        W18267  17.044  16.921   3.081  0.1145 -0.0442  0.2217
 4854W        W18268  13.909   3.881   5.425 -0.2011 -0.2687 -0.0276
 4855W        W18269   2.217  13.146   2.066  0.0767  0.2135 -0.2683
 4856W        W18270  14.197   5.872   1.343  0.3149  0.0830  0.1164
 4857W        W18271  10.664  16.500  12.130 -0.2723  0.0956 -0.1403
 4858W        W18272  16.276  11.284   2.084  0.2287 -0.1136 -0.1572
 4859W        W18273  16.468  13.754   4.139  0.5089 -0.2936 -0.2555
 4860W        W18274  16.932  10.550   2.969  0.0787  0.1866 -0.1183
 4861W        W18275  13.449   8.059   0.737  0.1117 -0.2488  0.0547
 4862W        W18276   9.860   5.971  15.549 -0.1123  0.2795 -0.2578
 4863W        W18277   5.820  15.609  13.079  0.1765  0.1400 -0.3805
 4864W        W18278  15.259  12.922   0.576 -0.2535 -0.3023 -0.2636
 4865W        W18279   8.205  16.065   4.940 -0.0085  0.1453  0.1368
 4866W        W18280   8.002   7.781   6.062 -0.0960  0.2191 -0.1190
 4867W        W18281   7.247   1.017   1.875 -0.1841 -0.0543 -0.0326
 4868W        W18282  14.602  12.692   4.262  0.0406  0.3098  0.2502
 4869W        W18283   3.942   9.936  13.517  0.0017 -0.1849  0.3883
 4870W        W18284  13.761  14.687  13.074  0.0268 -0.0398 -0.0404
 4871W        W18285   1.308   1.390  15.580  0.1552 -0.1712 -0.1920
 4872W        W18286   6.714  16.503  11.263  0.3165 -0.1767 -0.4354
 4873W        W18287  15.834   7.417   4.714 -0.1618 -0.0200  0.0324
 4874W        W18288   9.111   1.563   5.423  0.2768  0.1713 -0.1636
 4875W        W18289   8.768  17.350   1.140  0.0455 -0.0086 -0.4796
 4876W        W18290  13.794   6.175  13.552  0.1717  0.1528 -0.2240
 4877W        W18291  10.839  13.234  14.731  0.3003 -0.2424 -0.2115
 4878W        W18292   3.320   0.143  15.076 -0.1320 -0.3710  0.0548
 4879W        W18293   5.663   4.474   1.360  0.2236  0.0609 -0.1473
 4880W        W18294  18.227   2.564   0.700 -0.1220  0.0453 -0.0748
 4881W        W18295   3.643  11.262   0.305 -0.2928 -0.3363  0.0718
 4882W        W18296  15.250   8.159   2.275 -0.2622 -0.0069 -0.1717
 4883W        W18297   9.757   6.728  11.249  0.1923  0.2242 -0.2718
 4884W        W18298   8.203   2.998   3.343  0.2405 -0.0054  0.1339
 4885W        W18299   8.754  12.850  13.256 -0.1200  0.1210 -0.1123
 4886W        W18300  10.688  11.266   5.664 -0.0876 -0.0094 -0.2199
 4887W        W18301   9.230  14.832  13.896  0.1039 -0.1003  0.0690
 4888W        W18302   1.424  16.656  13.526 -0.0272  0.0518 -0.1417
 4889W        W18303  18.104  14.763  15.325  0.0668  0.1321  0.1568
 4890W        W18304   2.551   5.291  13.328 -0.0747  0.2682  0.1061
 4891W        W18305  16.100  17.203   1.074  0.1446 -0.1772  0.0761
 4892W        W18306  10.127   0.249   2.534 -0.1554 -0.0878  0.1136
 4893W        W18307   2.572   9.124   5.129 -0.0087  0.0394 -0.1578
 4894W        W18308  15.027  15.232   3.202 -0.2144  0.0589 -0.4657
 4895W        W18309   3.619  10.221   6.943  0.2223  0.0270 -0.1940
 4896W        W18310  17.172   2.871   2.304 -0.2824  0.1585 -0.1125
 4897W        W18311  18.046  13.195  10.868 -0.1531 -0.0594  0.1414
 4898W        W18312   6.522   4.019   4.163  0.0631 -0.0182  0.1071
 4899W        W18313   0.101  13.063  13.266  0.3253  0.2350  0.2518
 4900W        W18314   7.200   2.338   2.777  0.0869  0.0522 -0.1444
 4901W        W18315   1.219  16.154   1.336 -0.0313  0.3120 -0.4604
 4902W        W18316  12.557   0.701   2.722  0.0955  0.2252  0.2876
 4903W        W18317   6.223  14.434  11.105 -0.1379 -0.0486  0.1631
 4904W        W18318   7.155   8.604   5.503 -0.0323 -0.2166 -0.0060
 4905W        W18319   5.882   4.943   5.475 -0.0732  0.0605 -0.1747
 4906W        W18320   2.345  12.472  16.394 -0.3476  0.1877 -0.0306
 4907W        W18321  13.854  14.333  12.755  0.2071 -0.1845 -0.1274
 4908W        W18322  18.146   4.714   3.205 -0.0191  0.0660  0.1636
 4909W        W18323   8.712   3.708   9.527 -0.2534 -0.0186  0.0228
 4910W        W18324  15.931   8.785   0.180  0.1090  0.2997 -0.1228
 4911W        W18325  15.976   9.109   5.276  0.0454  0.1183 -0.1234
 4912W        W18326   2.837   9.098  14.553  0.0030  0.4245  0.5600
 4913W        W18327  12.888  15.533  15.546  0.1365  0.0501 -0.0601
 4914W        W18328  14.454   2.208  11.501 -0.0206 -0.3595  0.0084
 4915W        W18329  17.779   9.093  14.314 -0.0676  0.1411  0.2777
 4916W        W18330  13.003   0.545   2.902 -0.0051 -0.2954 -0.0540
 4917W        W18331   9.342  11.392   6.525  0.0169  0.1503  0.1201
 4918W        W18332  17.772   1.630   1.543 -0.2616  0.3074 -0.0578
 4919W        W18333  10.187  14.049   2.708  0.0819 -0.2407  0.0973
 4920W        W18334   2.590   3.310  14.478  0.1078  0.2276 -0.1789
 4921W        W18335   3.183  16.616  16.448 -0.2913  0.0587  0.0106
 4922W        W18336   3.415   0.974  13.551  0.1303 -0.2528  0.0087
 4923W        W18337  12.541  17.687  14.761 -0.1680 -0.1926  0.1704
 4924W        W18338  17.128  16.350  14.207 -0.0578 -0.4388  0.1224
 4925W        W18339  16.042  10.385   0.474  0.0782  0.5832 -0.2230
 4926W        W18340   6.813   1.229   2.075  0.1333  0.0127 -0.0824
 4927W        W18341  11.435   2.340   1.423 -0.1180 -0.1760  0.0247
 4928W        W18342   7.189  12.157   0.642 -0.1935  0.1922  0.2017
 4929W        W18343  12.664  11.305  14.968 -0.3727  0.1311 -0.0603
 4930W        W18344   5.110   8.073  12.743 -0.1447  0.0576  0.0318
 4931W        W18345  14.424  10.806  14.320 -0.0748 -0.2321  0.1139
 4932W        W18346   0.356   5.840   4.179  0.3403  0.0302  0.0293
 4933W        W18347  10.589  10.547   5.762  0.0884  0.2339  0.3411
 4934W        W18348   8.564  13.609   4.643  0.2075  0.2716  0.2015
 4935W        W18349  16.305  15.904   5.434 -0.1485  0.2189  0.2722
 4936W        W18350   8.868   7.045   6.147 -0.2645 -0.2292  0.4091
 4937W        W18351  13.119   3.722   0.329  0.0603  0.1038  0.1298
 4938W        W18352   6.597  16.614   5.340  0.1003  0.0767  0.3113
 4939W        W18353   2.704  16.061  15.769 -0.2273  0.0296 -0.2123
 4940W        W18354   2.826   3.508  10.841  0.1500 -0.0573 -0.0332
 4941W        W18355   8.964  15.633   0.405 -0.0033  0.0191  0.0520
 4942W        W18356   4.642   7.304   2.338  0.0827  0.0897 -0.2136
 4943W        W18357  11.127   3.076  13.608 -0.1680 -0.1715  0.4256
 4944W        W18358   6.533  15.933   3.294  0.0633 -0.2511  0.2084
 4945W        W18359   7.526  13.462  16.388  0.3020 -0.0859  0.1473
 4946W        W18360  13.275  13.697  12.223 -0.0847 -0.0797 -0.0475
 4947W        W18361   9.782   4.969   1.043  0.0920 -0.3085 -0.0041
 4948W        W18362   7.075   8.755   6.844 -0.1178 -0.4010  0.1432
 4949W        W18363  15.670   6.014  12.816 -0.1512  0.1260 -0.0645
 4950W        W18364   9.516  17.700   2.300  0.0246 -0.0233  0.1221
 4951W        W18365   7.164  10.981   1.916 -0.0630  0.0962  0.0999
 4952W        W18366  11.109   1.079   2.557  0.2101 -0.0925 -0.1684
 4953W        W18367  15.567   1.663  14.359 -0.0775  0.0650  0.1388
 4954W        W18368  17.328  17.505  16.121  0.0860 -0.3197 -0.3206
 4955W        W18369  15.318   0.619   6.369 -0.1429 -0.3116 -0.1922
 4956W        W18370   8.470  16.204  13.824  0.0911 -0.1282  0.3192
 4957W        W18371   4.913  11.380   4.163  0.0983  0.2127 -0.0459
 4958W        W18372   9.851   7.224  14.123  0.2627 -0.1497 -0.0440
 4959W        W18373   7.886   4.983  11.055  0.0373 -0.1557 -0.2249
 4960W        W18374   8.432  15.671   9.955  0.0992 -0.0569  0.1864
 4961W        W18375   4.791  10.505   1.828 -0.4281  0.1040  0.1461
 4962W        W18376   2.801   7.883   3.701  0.1470  0.1568 -0.1223
 4963W        W18377   3.592   8.616   3.699  0.3668  0.2003  0.1360
 4964W        W18378   5.836   8.872   1.282 -0.0121 -0.1004 -0.3518
 4965W        W18379  16.096   5.795  14.609 -0.4044 -0.0380  0.3133
 4966W        W18380   7.437   6.894  16.039  0.2151 -0.0399  0.4211
 4967W        W18381  16.817   3.640   2.488 -0.0285 -0.0442  0.1531
 4968W        W18382  17.029  17.274  12.709  0.0884 -0.1608 -0.0225
 4969W        W18383   7.915   7.306  15.411 -0.2545 -0.0624  0.2431
 4970W        W18384   3.631   4.476   0.851  0.0970 -0.0216  0.0493
 4971W        W18385   4.611  12.159  15.652 -0.0546  0.2474 -0.1020
 4972W        W18386  13.140   4.942  11.396  0.0271  0.0296  0.0159
 4973W        W18387  16.731   2.211   4.512 -0.1243  0.3338  0.1044
 4974W        W18388   3.663  15.504  10.942  0.0359 -0.0979 -0.3389
 4975W        W18389  13.437   7.751  10.794  0.0926  0.0506  0.0597
 4976W        W18390   9.391  14.755  12.242  0.1822  0.2702 -0.0177
 4977W        W18391   5.788  17.618   0.810 -0.2684 -0.1368 -0.0330
 4978W        W18392   1.140  16.976   5.015  0.2199  0.1307 -0.4709
 4979W        W18393   8.396  13.195  12.312 -0.2066 -0.0103 -0.2446
 4980W        W18394  10.231   6.667   4.366  0.1200  0.0640 -0.1090
 4981W        W18395  10.879   3.020  10.387 -0.0885  0.0322  0.0072
 4982W        W18396   9.356  12.843   1.000  0.2244 -0.5229  0.0768
 4983W        W18397   7.140  11.646  10.804 -0.3205 -0.0017  0.3293
 4984W        W18398  12.330   6.245  12.984 -0.1807  0.0334 -0.1721
 4985W        W18399  17.598   4.885  11.517 -0.0469 -0.0230  0.2385
 4986W        W18400   9.566   1.334   5.567  0.1064  0.0170 -0.0826
 4987W        W18401   1.385   1.303  12.303 -0.0291  0.0053  0.2785
 4988W        W18402   8.940  12.566   3.660 -0.0960 -0.2057 -0.1772
 4989W        W18403   8.566  18.253  13.228 -0.3561 -0.2966 -0.0000
 4990W        W18404  11.516   1.130  14.090 -0.0243  0.0589 -0.3355
 4991W        W18405  17.329  10.737  15.644 -0.0188  0.0682 -0.2010
 4992W        W18406   1.813   8.751   2.804  0.0316 -0.4442  0.1204
 4993W        W18407   7.387  11.025  11.853  0.0268  0.0293  0.0081
 4994W        W18408   1.967   0.272  12.260 -0.0676 -0.1266  0.0425
 4995W        W18409  13.543  16.263  15.844 -0.1871  0.0810  0.3912
 4996W        W18410   2.891   5.075  16.208 -0.1446 -0.0315 -0.0153
 4997W        W18411  13.656   7.711  15.533 -0.1008  0.1978 -0.0381
 4998W        W18412   9.737  10.501   5.024 -0.0836  0.0473  0.0140
 4999W        W18413   2.671   7.157   1.499 -0.1022  0.1038  0.0532
 5000W        W18414   0.362   9.959   0.908 -0.1817 -0.2776  0.1248
 5001W        W18415   0.676   9.611   5.865 -0.2383 -0.0585  0.1857
 5002W        W18416   3.523   5.278   3.530  0.0411  0.0931  0.0238
 5003W        W18417   2.342   6.291  11.236 -0.1177  0.2089 -0.0482
 5004W        W18418   3.559  16.687   5.426  0.0927 -0.3674  0.2912
 5005W        W18419   9.647  10.686   3.194  0.0323 -0.1715  0.0221
 5006W        W18420   6.670   3.747  11.838  0.4701 -0.0250  0.0546
 5007W        W18421   3.086  15.800   5.159 -0.2883 -0.2005 -0.2513
 5008W        W18422   4.633  16.602  12.207 -0.0401 -0.1652 -0.0919
 5009W        W18423   3.418  12.234  16.190 -0.3900  0.1431 -0.1504
 5010W        W18424  11.641   7.707   3.273  0.0409  0.0516  0.0292
 5011W        W18425   7.182   3.787  10.432 -0.0243  0.1822  0.1165
 5012W        W18426  14.074  10.206   2.853  0.0257  0.2523 -0.0922
 5013W        W18427  14.750   9.636  12.289 -0.0824  0.1871  0.0126
 5014W        W18428   5.118  16.619  11.101 -0.2875 -0.0047  0.0198
 5015W        W18429   0.281  16.274  15.923 -0.1582  0.0697  0.1110
 5016W        W18430   8.617  10.043   2.500  0.2962  0.0241  0.0321
 5017W        W18431   6.484   2.319  16.427 -0.2233  0.0865 -0.0662
 5018W        W18432   2.622   6.153  13.590  0.1932 -0.0019  0.1076
 5019W        W18433  16.086   6.958  13.125 -0.2227  0.0157  0.1857
 5020W        W18434   9.770   2.054  11.881 -0.2234  0.0717  0.0239
 5021W        W18435   9.034   2.638  15.779  0.3010  0.1512  0.0470
 5022W        W18436   9.704   3.272   2.584  0.1174 -0.3255 -0.4198
 5023W        W18437   6.523   4.244   0.171 -0.0204 -0.1754  0.0514
 5024W        W18438  12.527  17.761   3.240  0.0597 -0.1606  0.2195
 5025W        W18439   3.650   5.184  11.132 -0.1155 -0.3955 -0.0075
 5026W        W18440  15.343   1.805  15.484 -0.1825  0.0459  0.0998
 5027W        W18441  11.551  15.062   5.040  0.3500 -0.0308  0.1291
 5028W        W18442   6.920   9.807  13.158  0.0702  0.1494  0.0421
 5029W        W18443  14.356   5.825   2.133 -0.1069 -0.0435 -0.2952
 5030W        W18444   4.814   1.881   3.699 -0.0012  0.2464  0.0448
 5031W        W18445   1.730   2.568  16.415  0.1031 -0.1485  0.2855
 5032W        W18446   0.225   5.529   0.735  0.2242 -0.0091  0.3927
 5033W        W18447  15.331  14.774   5.781 -0.0912  0.2888  0.3475
 5034W        W18448   3.957   5.507   1.632  0.0114 -0.0311 -0.2392
 5035W        W18449   8.522   2.759  14.964  0.3099 -0.2409 -0.0803
 5036W        W18450  15.275  10.002   0.913  0.0663  0.2355  0.2604
 5037W        W18451  15.207   0.509  14.776  0.1852  0.0716  0.0197
 5038W        W18452   5.353   7.646   1.330 -0.2917 -0.2741  0.1659
 5039W        W18453   4.147  14.423   0.287 -0.0753  0.2714 -0.1399
 5040W        W18454   0.018   7.574   2.605  0.2121 -0.0434 -0.0460
 5041W        W18455   2.912   0.773  12.121 -0.1070 -0.2830 -0.2855
 5042W        W18456  13.098   5.165   5.700  0.3203  0.1646  0.1668
 5043W        W18457  12.523  12.968   5.124  0.0030  0.1285  0.2313
 5044W        W18458  17.869  17.965   0.383 -0.2641 -0.0913  0.2312
 5045W        W18459   1.863   4.711  11.623  0.0455  0.1734  0.2954
 5046W        W18460   6.619  15.038  12.225 -0.1683  0.0687  0.0405
 5047W        W18461   6.672  12.400  15.402  0.1736 -0.1791 -0.0426
 5048W        W18462   1.855   5.050   6.091  0.1352  0.0261  0.1809
 5049W        W18463   7.923  12.660   4.556  0.1171 -0.0654 -0.0011
 5050W        W18464  17.985   9.695   4.145 -0.1589  0.2134 -0.0078
 5051W        W18465   1.469   6.126  13.387 -0.3970 -0.1927 -0.1637
 5052W        W18466  15.784   4.494   3.482  0.1048 -0.1691 -0.1216
 5053W        W18467   2.371   5.758  12.098  0.0934 -0.5339  0.0786
 5054W        W18468   6.304   5.867  14.816  0.2906  0.0567  0.1823
 5055W        W18469  16.879   1.852  16.180 -0.0016 -0.0250 -0.1689
 5056W        W18470  12.980  14.602   1.470 -0.2538  0.0078 -0.1349
 5057W        W18471   2.225  17.621   3.693  0.1144  0.0278  0.0234
 5058W        W18472   9.981   3.259  13.060  0.1078 -0.0952 -0.2003
 5059W        W18473  16.725  11.455  11.785  0.1280  0.0099 -0.2990
 5060W        W18474   7.627  14.103  15.628  0.0280  0.1358 -0.3774
 5061W        W18475  16.184   5.688  13.490 -0.1154 -0.2316 -0.1618
 5062W        W18476   9.591  15.846  13.065  0.0058 -0.0936 -0.0869
 5063W        W18477   7.946   9.992  14.173  0.2926  0.0588 -0.0163
 5064W        W18478   2.224   7.557  13.578  0.0496 -0.0815 -0.4146
 5065W        W18479  15.303   5.762   2.213  0.0609  0.3422  0.0339
 5066W        W18480   9.422  16.755   4.987  0.1434  0.0197 -0.0611
 5067W        W18481  11.552  16.208   3.132  0.1545 -0.1669 -0.3328
 5068W        W18482   1.122  16.578   4.748 -0.0213  0.0039 -0.1094
 5069W        W18483   7.878  13.167  10.904  0.4001 -0.1299 -0.0160
 5070W        W18484  17.735  13.338  11.811 -0.1482  0.2458  0.0118
 5071W        W18485   2.813   4.839   2.467  0.4296  0.2541 -0.2190
 5072W        W18486   0.213  16.548   4.814  0.1584 -0.1911 -0.1557
 5073W        W18487   3.082  10.764  13.896 -0.0193  0.0322  0.0572
 5074W        W18488   1.518   7.045   1.097 -0.2435 -0.0737 -0.0291
 5075W        W18489   1.070  15.760   1.156  0.1150  0.0727 -0.2023
 5076W        W18490   4.275   3.573   2.027  0.0930  0.0774  0.0846
 5077W        W18491   3.128   0.425  12.456  0.0184  0.2024 -0.1644
 5078W        W18492   1.629  14.586  11.466  0.1780 -0.2034 -0.1801
 5079W        W18493  12.526   1.581  13.993  0.2975  0.0803  0.1392
 5080W        W18494  14.515   9.624   4.328  0.1263 -0.0620  0.0822
 5081W        W18495   8.013   7.100   2.072 -0.0258 -0.0819  0.0281
 5082W        W18496  15.924  15.716  10.994  0.2437 -0.3254 -0.2283
 5083W        W18497  15.193   2.188   5.522 -0.2754 -0.0688  0.0167
 5084W        W18498  10.014   2.068   2.521  0.1924 -0.1840  0.2492
 5085W        W18499   3.728  14.217  14.373  0.2128  0.4500  0.1127
 5086W        W18500  14.001   9.517   2.754  0.2506  0.1602  0.1423
 5087W        W18501   5.594   8.204   0.620 -0.0541  0.0722 -0.1306
 5088W        W18502   7.587   9.293  13.320  0.1124  0.0098 -0.0098
 5089W        W18503  14.914   4.830   0.991  0.0624 -0.1763  0.0816
 5090W        W18504  14.560  13.819   1.737  0.0339  0.0067  0.1190
 5091W        W18505   4.639   1.593   4.401  0.1984  0.1746  0.0508
 5092W        W18506  10.901  11.498  15.800  0.1596  0.1114  0.0485
 5093W        W18507  16.303   5.205  13.502 -0.0755 -0.3336 -0.0415
 5094W        W18508   8.232  11.009   4.240  0.3615 -0.2030 -0.2170
 5095W        W18509   0.547   0.969   0.174  0.1280 -0.2013 -0.0455
 5096W        W18510   4.710   4.402   2.326  0.2936  0.2918  0.0838
 5097W        W18511   5.761  17.313   4.408  0.2991  0.1187 -0.0532
 5098W        W18512  17.542   1.739  15.987  0.1266 -0.0708 -0.2409
 5099W        W18513   5.676  15.464  11.406  0.2243  0.0079 -0.3216
 5100W        W18514   6.584   3.157   5.029 -0.1124  0.2542  0.2171
 5101W        W18515  10.596   2.518   0.905 -0.3046  0.1835  0.3921
 5102W        W18516   0.871   6.377  15.860 -0.1832 -0.0146  0.0570
 5103W        W18517  16.156   8.589   2.281  0.0673  0.1434 -0.0098
 5104W        W18518   4.872   5.642  13.035  0.2390  0.0769  0.1386
 5105W        W18519  17.087  14.440   6.006 -0.1294  0.2183 -0.2704
 5106W        W18520   5.672  17.123  11.144 -0.0749  0.2466 -0.0918
 5107W        W18521  16.555   6.989   2.468 -0.0349 -0.4432 -0.0769
 5108W        W18522  11.309   6.032   1.457  0.0313  0.0412  0.0900
 5109W        W18523  13.089   3.999   2.134 -0.1234 -0.0715 -0.1893
 5110W        W18524  13.216  17.472  11.336 -0.1413  0.0957 -0.1398
 5111W        W18525   0.288  14.372  13.650  0.1427  0.1461 -0.3627
 5112W        W18526   0.947  10.170   3.134 -0.0755  0.1787 -0.1106
 5113W        W18527  18.201   0.986  15.957 -0.0137  0.1177  0.1564
 5114W        W18528   9.325  16.999   2.869  0.0893  0.1030 -0.1353
 5115W        W18529   6.271   9.734  13.338  0.1593  0.0142  0.0824
 5116W        W18530   1.022  12.023   1.297  0.1669 -0.2171 -0.0672
 5117W        W18531   0.292   8.389  15.744  0.1549  0.0784 -0.1720
 5118W        W18532  11.739   3.775  11.596  0.1670  0.2812  0.2135
 5119W        W18533  13.378   6.418   4.775 -0.1356  0.0430 -0.1410
 5120W        W18534   3.171   4.342   4.318 -0.1936  0.0260 -0.1690
 5121W        W18535   5.643   6.366  11.398  0.1820  0.0802  0.3404
 5122W        W18536  17.169   0.144   4.187 -0.0789  0.0895  0.1384
 5123W        W18537   1.677   1.734  12.367 -0.2177  0.4230 -0.0597
 5124W        W18538   1.161  14.253  13.969  0.1097  0.0237 -0.3101
 5125W        W18539  15.843  14.136   0.803  0.1517 -0.2770 -0.0128
 5126W        W18540  16.040   3.081  13.977 -0.0055  0.4203  0.0922
 5127W        W18541   7.278   0.486  10.119 -0.1934  0.2460 -0.0881
 5128W        W18542  13.126  14.925  10.941 -0.2507 -0.2744  0.0229
 5129W        W18543  14.932  16.752   2.667 -0.3403 -0.3388 -0.0989
 5130W        W18544  15.307  12.722   2.278 -0.0821  0.1886 -0.1993
 5131W        W18545  15.794  17.948  11.512 -0.1303 -0.1665 -0.1873
 5132W        W18546   7.307  14.177  14.073 -0.0432  0.1507  0.1042
 5133W        W18547   1.901   7.750  12.461 -0.2082 -0.4409  0.1712
 5134W        W18548  10.797  17.021   1.579 -0.1030 -0.0114 -0.0936
 5135W        W18549  13.309   5.372  13.391  0.0308 -0.1000  0.1932
 5136W        W18550   8.481   1.495  15.552 -0.1317 -0.0725 -0.0479
 5137W        W18551   0.798   6.473   0.856 -0.0079  0.5274 -0.6260
 5138W        W18552   9.554  16.280   0.022  0.0839  0.0974 -0.1198
 5139W        W18553   3.076   1.160   5.144 -0.0667 -0.0551 -0.0405
 5140W        W18554  11.176  13.453  14.335 -0.1550 -0.1700  0.2627
 5141W        W18555   7.110   8.946  12.806 -0.1676 -0.3008 -0.0338
 5142W        W18556   6.140   1.155   4.622 -0.1728 -0.0639  0.1093
 5143W        W18557  15.582  16.158   1.921  0.1515  0.1186 -0.1394
 5144W        W18558   2.278   1.190  12.761  0.2432  0.0914  0.1393
 5145W        W18559   8.724  12.684   1.708  0.0906 -0.0586  0.1777
 5146W        W18560   9.224  11.571   3.195  0.0807 -0.0236  0.1252
 5147W        W18561   0.729   5.497   0.654  0.0106  0.0621  0.0108
 5148W        W18562   9.822   9.947   1.639 -0.1213 -0.3570 -0.0013
 5149W        W18563   1.746  10.923   4.031  0.0568  0.0450 -0.0273
 5150W        W18564   8.569  16.667   5.526 -0.0435  0.1743 -0.3245
 5151W        W18565   6.362  15.419   4.349 -0.0752 -0.1434 -0.2285
 5152W        W18566  10.062   8.509  16.046 -0.1169 -0.1209  0.1066
 5153W        W18567  10.522   5.273  12.914 -0.1118 -0.0495 -0.4606
 5154W        W18568   3.550  16.436   4.561  0.1005 -0.0396  0.1495
 5155W        W18569  10.858   2.748  11.606 -0.1889  0.0963 -0.1267
 5156W        W18570   0.618   3.366  12.370 -0.1564 -0.0504 -0.1676
 5157W        W18571   1.207   5.721  15.037 -0.0962 -0.3569  0.1929
 5158W        W18572  15.115  13.358   1.374 -0.1784 -0.0789  0.1590
 5159W        W18573  10.605   2.113   1.778  0.1035 -0.0790  0.0606
 5160W        W18574  10.101  15.246  13.827 -0.1197  0.0297 -0.3874
 5161W        W18575  14.354   1.888   2.383  0.2302  0.2396  0.1365
 5162W        W18576   4.600   1.899  15.175  0.0986 -0.4425 -0.0878
 5163W        W18577   6.202   7.593   2.202 -0.0613  0.0700  0.0633
 5164W        W18578  11.174   2.815  10.754  0.0423 -0.0858  0.0244
 5165W        W18579  12.659   6.318  15.708 -0.2270 -0.0887  0.1563
 5166W        W18580  13.152  12.176   2.026 -0.2584  0.1435 -0.0605
 5167W        W18581   6.528  16.597   0.236 -0.2322 -0.0609 -0.0449
 5168W        W18582   1.683  17.527  14.307  0.0363 -0.1288 -0.2245
 5169W        W18583  13.936  11.027  15.200  0.4671  0.1654 -0.0069
 5170W        W18584  11.068   0.700  11.441  0.3124  0.0329  0.1713
 5171W        W18585   8.411   9.973  16.240  0.0571  0.0057 -0.0273
 5172W        W18586  11.430   6.210  14.295  0.0456 -0.0634 -0.1721
 5173W        W18587  15.667   2.547  13.339  0.1046 -0.0671 -0.0021
 5174W        W18588   8.428   1.216  16.462 -0.2626 -0.3525  0.0619
 5175W        W18589  18.038   8.199  13.213 -0.2186 -0.1874  0.1278
 5176W        W18590   5.477   1.801  15.822 -0.0208 -0.0841  0.3461
 5177W        W18591   0.114   7.915   5.772 -0.0102  0.0367 -0.0694
 5178W        W18592  15.369   6.699  14.529 -0.2040  0.0146 -0.0160
 5179W        W18593  13.632  14.142   2.415  0.0921  0.0462 -0.0942
 5180W        W18594  18.129  13.492   4.351 -0.2868  0.2942 -0.1107
 5181W        W18595  13.998  17.658  16.157  0.0974  0.0177 -0.2032
 5182W        W18596  15.676   4.686   4.283 -0.2016  0.0827 -0.0263
 5183W        W18597   0.665  16.420   2.261  0.0504  0.0812 -0.0021
 5184W        W18598  10.715  10.168  10.714 -0.2108  0.1084 -0.0285
 5185W        W18599   7.340  16.564  13.293  0.0308  0.1128 -0.0293
 5186W        W18600   9.765  13.076   4.027  0.3303  0.1987 -0.1624
 5187W        W18601  16.831   1.924   0.885 -0.0946  0.1221 -0.0930
 5188W        W18602   9.314   2.189  12.796 -0.0504 -0.0176 -0.1044
 5189W        W18603  14.048  13.767  12.753 -0.0914  0.1932  0.2796
 5190W        W18604   4.843   2.820   3.357  0.3549  0.0220  0.1255
 5191W        W18605   5.088  17.196  12.532 -0.2927  0.1234  0.0490
 5192W        W18606  12.434   6.053  12.513 -0.1624 -0.1431 -0.1043
 5193W        W18607   2.006   5.748   4.987  0.1922  0.1351 -0.4548
 5194W        W18608  11.727  13.828   3.622  0.2826  0.0330 -0.4032
 5195W        W18609   7.208   8.341   5.987  0.0203  0.0723 -0.4629
 5196W        W18610  12.845  17.179   0.541 -0.0288 -0.0292 -0.0220
 5197W        W18611  12.023   2.533  10.873  0.0450  0.1457  0.2171
 5198W        W18612   6.543  10.143  12.479  0.0473  0.0361  0.1563
 5199W        W18613   7.571  12.700   2.525  0.1252 -0.0777  0.3183
 5200W        W18614   3.319  11.916  15.668  0.4838  0.0747 -0.1044
 5201W        W18615   3.627   0.930  14.410 -0.2603 -0.0741 -0.0005
 5202W        W18616  10.175   3.739   3.244  0.1247  0.0474  0.0230
 5203W        W18617  16.629  10.186   0.101  0.1823  0.0127 -0.2184
 5204W        W18618   4.292   5.735   2.544 -0.0273  0.0126  0.2630
 5205W        W18619  12.783  18.061  13.945 -0.0891  0.2041  0.3344
 5206W        W18620   0.200  10.486   3.834  0.0227 -0.1602  0.1126
 5207W        W18621   0.251   6.325   4.267 -0.2482  0.0038 -0.0737
 5208W        W18622   0.900   0.298  10.828 -0.2161  0.0276  0.0006
 5209W        W18623   4.668  14.471  15.902 -0.1486 -0.1898  0.0892
 5210W        W18624   9.854  17.880  14.314  0.0870 -0.3670 -0.0281
 5211W        W18625  14.152   4.231   5.086 -0.3897 -0.0988 -0.3379
 5212W        W18626   0.672   8.576   5.709  0.0796 -0.0441  0.0322
 5213W        W18627  10.456  10.773  16.311 -0.2381 -0.0806  0.0532
 5214W        W18628  15.206  14.425   3.113  0.2404 -0.2106  0.1936
 5215W        W18629  15.330   5.943   0.305 -0.1480 -0.2671  0.1793
 5216W        W18630   0.025   8.645   4.011  0.0686  0.2811 -0.1726
 5217W        W18631  13.557   2.076   0.888 -0.0909 -0.3130 -0.2671
 5218W        W18632   0.957   4.987  12.082  0.1877 -0.1198 -0.0571
 5219W        W18633  15.628  16.184  11.070 -0.1680 -0.0745  0.1567
 5220W        W18634   0.048  17.969   0.732 -0.2811 -0.1890 -0.0506
 5221W        W18635  11.496  12.515  10.784  0.2375  0.2141 -0.2653
 5222W        W18636  15.357   5.538   3.857 -0.1514 -0.0085 -0.0337
 5223W        W18637   5.516   8.210  15.882  0.2210 -0.1043  0.0497
 5224W        W18638   2.608  17.111  15.643  0.1276 -0.0905  0.2484
 5225W        W18639   7.455   5.339  10.176  0.0402  0.2604 -0.1075
 5226W        W18640   1.372   9.904   0.706  0.0275 -0.0494 -0.3473
 5227W        W18641  15.193   8.163   1.449 -0.1133 -0.3881 -0.0203
 5228W        W18642  18.018   9.165  13.575  0.2058  0.0357  0.0718
 5229W        W18643   0.391   6.823   0.892  0.0896  0.0906  0.2931
 5230W        W18644   3.693   8.489   5.538 -0.2517 -0.2320  0.2921
 5231W        W18645  14.148  12.479   0.418 -0.2318  0.2802  0.2685
 5232W        W18646  10.340  17.839  10.907  0.1472  0.2628 -0.1967
 5233W        W18647   3.011   8.661  15.351 -0.1040 -0.1339 -0.1159
 5234W        W18648  14.728   4.790  14.371 -0.3674 -0.0201  0.0656
 5235W        W18649  17.318  10.871  12.723 -0.0696 -0.0890  0.0278
 5236W        W18650   7.608   1.316   0.562  0.0726 -0.1512 -0.4828
 5237W        W18651   4.107   1.601   1.857 -0.2656 -0.1086 -0.0783
 5238W        W18652  14.037   1.548   2.041 -0.2160 -0.2164 -0.3737
 5239W        W18653  16.790   5.087   3.681 -0.1738 -0.1343  0.2313
 5240W        W18654   7.109   4.414  13.965 -0.0483  0.0491 -0.0576
 5241W        W18655  12.685   2.774   4.592  0.1446 -0.0266 -0.1121
 5242W        W18656   4.368   2.596  13.947 -0.0972 -0.4076  0.2486
 5243W        W18657   6.981  10.248   3.934 -0.1973 -0.1440  0.2031
 5244W        W18658  13.465  15.751  10.854  0.0685  0.0253  0.4058
 5245W        W18659   7.389   8.253   0.637  0.1358  0.2837  0.1697
 5246W        W18660  10.568   7.012  14.540 -0.0795  0.0092 -0.0193
 5247W        W18661  10.334  16.849   0.888  0.0191 -0.2390  0.2492
 5248W        W18662  15.711   6.029  14.488 -0.1491 -0.1578  0.3690
 5249W        W18663   5.637   7.888  15.397  0.0051 -0.1776  0.1972
 5250W        W18664   6.280   9.363   4.020  0.0400 -0.0268  0.1770
 5251W        W18665   6.341  12.086  12.419 -0.0018  0.3726 -0.1169
 5252W        W18666  16.001   4.395   5.645 -0.2285 -0.1120 -0.0072
 5253W        W18667   2.103   4.681   5.181  0.1594  0.1873 -0.1349
 5254W        W18668   4.949  16.981  12.069 -0.2770 -0.1752 -0.0506
 5255W        W18669   1.302  12.826  11.988  0.1050  0.0204 -0.2131
 5256W        W18670   8.370   6.654   3.638  0.1590  0.1351  0.3453
 5257W        W18671   1.873   9.162  10.589  0.0737 -0.0403  0.2693
 5258W        W18672  13.135   8.208  12.318  0.2777  0.0092  0.0983
 5259W        W18673   8.080  13.086   3.440  0.1676  0.2142  0.3395
 5260W        W18674  16.293  11.104  13.571 -0.3548 -0.1364 -0.0714
 5261W        W18675  17.799   1.228  10.588  0.0198 -0.3037 -0.3630
 5262W        W18676   6.093  16.947   4.646 -0.2516  0.1146 -0.0356
 5263W        W18677   5.343  16.166  14.759 -0.4637  0.1152 -0.1437
 5264W        W18678  17.809   1.126   1.330  0.2597 -0.1393  0.0669
 5265W        W18679  12.039   7.568  13.564  0.0243  0.1702  0.1022
 5266W        W18680  12.118  12.900   3.903 -0.1613  0.0231  0.1699
 5267W        W18681   4.142  17.653  15.772  0.1160  0.1455 -0.1556
 5268W        W18682  11.143   8.931   4.625 -0.2302  0.1249 -0.2765
 5269W        W18683   5.496   0.892   5.720 -0.0829  0.0804  0.0355
 5270W        W18684  17.711  11.433  12.136  0.0134 -0.0033 -0.0857
 5271W        W18685   6.416   1.770  11.275 -0.3684  0.0598 -0.1581
 5272W        W18686  15.966  13.009   4.275  0.1122  0.0017 -0.2509
 5273W        W18687   9.280  15.833  14.408  0.0984 -0.0139 -0.1776
 5274W        W18688   8.000  17.849   4.210 -0.1389  0.0713  0.0752
 5275W        W18689  15.886  12.618  15.349 -0.3505 -0.1561 -0.1624
 5276W        W18690  11.810  14.141   1.198 -0.0477 -0.0062  0.1166
 5277W        W18691   3.394  11.911   3.175 -0.0431 -0.1207  0.1309
 5278W        W18692   4.909  12.327  16.036  0.0686 -0.0416 -0.0777
 5279W        W18693  17.838   9.990   0.576 -0.0606 -0.2223  0.0225
 5280W        W18694  13.642   1.296   4.401 -0.2397  0.1304  0.3219
 5281W        W18695  15.220   6.564  12.143  0.0156  0.2686 -0.2506
 5282W        W18696   9.626  17.563  14.586 -0.1708  0.0395 -0.0665
 5283W        W18697  12.758   9.159  16.133  0.1634  0.0050 -0.2665
 5284W        W18698   7.953  15.044  11.063  0.0416 -0.2063 -0.0861
 5285W        W18699  16.138   6.119  14.251  0.0549  0.1648  0.1009
 5286W        W18700  15.361  17.681  14.637 -0.2094 -0.2504  0.1564
 5287W        W18701  17.229  17.545   2.346 -0.0909 -0.0122  0.0967
 5288W        W18702  17.018  10.625   0.828 -0.1431  0.1074  0.1039
 5289W        W18703   2.527   1.216   4.443  0.1145  0.1274 -0.1973
 5290W        W18704   0.990  12.679   2.324  0.0511 -0.1107  0.0860
 5291W        W18705  16.273   2.465  14.737 -0.2117  0.1015  0.0137
 5292W        W18706  10.909   5.488  14.714  0.1262  0.3953 -0.1309
 5293W        W18707  10.499   9.447  14.202 -0.1901  0.0715 -0.1030
 5294W        W18708  15.916   3.442   2.656  0.1615 -0.0356  0.0441
 5295W        W18709   5.438   8.676   2.425 -0.1504 -0.1329 -0.0830
 5296W        W18710   6.355   4.724   2.326  0.0839 -0.0218 -0.1691
 5297W        W18711   3.985  11.698  14.341  0.1210  0.1643 -0.0857
 5298W        W18712  14.570   8.365  12.595  0.1727 -0.1079 -0.3212
 5299W        W18713   9.966  13.919  16.380  0.0837  0.1343 -0.0275
 5300W        W18714   5.695   0.161  12.520 -0.1766  0.2595  0.0488
 5301W        W18715   0.723  16.803   5.698  0.0964  0.0471 -0.3946
 5302W        W18716   9.526   4.787  11.523  0.0037 -0.1115  0.0433
 5303W        W18717   6.199  12.215  15.584  0.0088  0.1403 -0.0401
 5304W        W18718   4.650  10.100  10.638 -0.1482  0.4433  0.4057
 5305W        W18719  15.669  13.223   4.588 -0.0357 -0.1350 -0.2605
 5306W        W18720   1.862   1.133  12.113 -0.1434 -0.0041  0.1792
 5307W        W18721  15.282  17.149  13.704  0.1022  0.0174 -0.2467
 5308W        W18722   3.363   7.838  11.373  0.0882 -0.2847  0.0261
 5309W        W18723   9.388   0.298   2.948  0.1888 -0.1354  0.2912
 5310W        W18724  15.874   0.257   2.132  0.2381 -0.4021  0.0212
 5311W        W18725  17.097   4.592  11.410 -0.1412 -0.1345  0.0638
 5312W        W18726   8.909   8.902   2.883  0.2039 -0.1129  0.1587
 5313W        W18727   8.482   3.282  13.659  0.0922 -0.0405  0.0290
 5314W        W18728  15.927   8.031  15.163  0.3545  0.2535  0.0086
 5315W        W18729  17.640   8.218  13.530  0.1267  0.0080  0.0771
 5316W        W18730  16.867   4.069  12.659 -0.3529  0.0195 -0.1737
 5317W        W18731  17.038   4.373   1.931  0.0559  0.0174 -0.0614
 5318W        W18732   1.103  14.614   0.371 -0.0733  0.1339 -0.1856
 5319W        W18733  16.176   8.710   6.025  0.0816  0.1272  0.2225
 5320W        W18734   8.423  13.429   2.165  0.1123 -0.2964 -0.0397
 5321W        W18735   8.444  17.603  14.800 -0.0744  0.1597  0.0037
 5322W        W18736   2.192   3.594   4.672 -0.0428 -0.1176  0.1091
 5323W        W18737   1.700   3.136  12.081  0.1673 -0.0646  0.0956
 5324W        W18738  11.249   0.015   2.990  0.1557 -0.1109 -0.0207
 5325W        W18739  11.176   4.218   5.378  0.1249 -0.0392 -0.1882
 5326W        W18740  15.587  11.694   1.729 -0.0765  0.0286 -0.0224
 5327W        W18741  15.514  17.618  11.940 -0.1924  0.1760  0.2259
 5328W        W18742   5.842   8.190   5.512  0.2549 -0.0414 -0.0599
 5329W        W18743  15.646  13.103  12.109 -0.2006  0.1446 -0.2108
 5330W        W18744   4.653  13.422  13.026  0.1537 -0.0273  0.0293
 5331W        W18745   5.008   5.076  12.211 -0.0429  0.2411 -0.0428
 5332W        W18746   3.674  16.508  11.452 -0.2027 -0.1644 -0.1934
 5333W        W18747   6.637   8.318  10.819  0.1351 -0.1294  0.3495
 5334W        W18748   1.610   2.875   1.961 -0.3345  0.1626  0.2363
 5335W        W18749   6.611   4.465   3.031 -0.0583  0.0699 -0.0323
 5336W        W18750  17.491   5.059  12.822 -0.0155 -0.1745 -0.2117
 5337W        W18751  11.375  18.116  11.916  0.1166  0.1732 -0.0175
 5338W        W18752   6.751  12.192  12.084  0.0712  0.0866  0.1191
 5339W        W18753  10.650   7.707  13.918  0.0793  0.0359 -0.1236
 5340W        W18754  17.678   7.557  11.299 -0.1062 -0.0284 -0.2570
 5341W        W18755   6.611   4.374  16.133  0.2033 -0.0304 -0.0461
 5342W        W18756   5.517   7.739  11.934 -0.1547 -0.2180 -0.2923
 5343W        W18757  12.867  17.184   4.495  0.1248  0.3409 -0.0303
 5344W        W18758   6.129   7.018  10.878 -0.3744  0.0514  0.1387
 5345W        W18759  13.173  10.000  11.024 -0.2779  0.1138  0.0443
 5346W        W18760  15.932  10.178  14.255  0.3262  0.1193  0.0119
 5347W        W18761  11.244  11.508  15.428 -0.0881 -0.0129  0.0504
 5348W        W18762  14.019  12.339   2.428  0.1776 -0.2522  0.0465
 5349W        W18763   8.308   9.520  13.280 -0.0970  0.2689 -0.1906
 5350W        W18764  14.650   3.547   0.603  0.2374  0.0328 -0.0897
 5351W        W18765   5.726   5.484  12.584 -0.2196  0.2267 -0.3203
 5352W        W18766   2.319   7.584   1.498  0.0806  0.1285  0.1156
 5353W        W18767  16.935  10.472  10.756 -0.0194  0.0779 -0.1619
 5354W        W18768  10.230   7.890   2.136  0.3873 -0.2081 -0.1156
 5355W        W18769  10.364   9.509  12.502 -0.0610  0.0726  0.0793
 5356W        W18770  10.037   0.740   3.354 -0.3159 -0.0606 -0.0054
 5357W        W18771  15.039   3.026   4.552 -0.0882  0.0585  0.2569
 5358W        W18772  17.314  14.832  15.955 -0.0002 -0.0592 -0.0451
 5359W        W18773   1.292   7.690   4.907  0.0095  0.1439  0.2593
 5360W        W18774   4.484   5.971   5.062 -0.2549  0.3521 -0.2414
 5361W        W18775   2.845  11.596   0.720 -0.2215 -0.0554 -0.4266
 5362W        W18776  18.048  14.393   5.927  0.4675 -0.0776  0.0501
 5363W        W18777  13.520  17.456   2.280  0.0104 -0.0270  0.0610
 5364W        W18778   4.542   8.252  16.008  0.0961  0.0177 -0.1556
 5365W        W18779  12.966   4.600   4.996  0.0902 -0.0381  0.0928
 5366W        W18780  15.013   4.600  13.994 -0.1569 -0.2278 -0.0918
 5367W        W18781  15.883   5.479  13.765  0.0385  0.0735 -0.2523
 5368W        W18782   6.029  14.032   2.894  0.2354  0.0172 -0.0300
 5369W        W18783   3.244   2.086  11.133 -0.2587  0.0104  0.1305
 5370W        W18784   0.414   7.354   3.318 -0.2320 -0.0477 -0.1136
 5371W        W18785  14.307   8.466  14.877 -0.1226 -0.1091 -0.0031
 5372W        W18786   1.326  17.462  14.654  0.2484 -0.1156 -0.1687
 5373W        W18787  16.856   4.137  11.464 -0.3107  0.2340  0.0888
 5374W        W18788   7.547   3.078   6.341  0.1797 -0.1330 -0.1906
 5375W        W18789  15.314  11.211  13.731  0.2100 -0.1403 -0.0815
 5376W        W18790   0.224  11.609   2.598  0.0323 -0.0335  0.1983
 5377W        W18791   4.836  15.032  13.544  0.1941  0.0373 -0.2076
 5378W        W18792   8.646  12.915  12.647  0.0240  0.1766  0.4280
 5379W        W18793   2.689  16.605  15.721  0.3144 -0.0448  0.1903
 5380W        W18794   2.081   2.259  15.717  0.0657  0.2254  0.1106
 5381W        W18795  17.046  15.167  12.752 -0.0313  0.2300  0.2032
 5382W        W18796   9.598  12.532   4.697  0.1667  0.1619  0.1738
 5383W        W18797   5.463   8.775   3.176 -0.1741 -0.0406 -0.1665
 5384W        W18798  16.670  16.389  13.033  0.3717  0.0136  0.1253
 5385W        W18799   1.373  17.039   0.222  0.1397 -0.3543  0.0150
 5386W        W18800  15.462  18.165  11.226  0.0099 -0.1146 -0.1381
 5387W        W18801   7.271  16.485  11.267 -0.2127  0.0229  0.0937
 5388W        W18802   8.555  17.305  16.354  0.2849  0.0076  0.1119
 5389W        W18803   6.924   7.846   5.470 -0.1146  0.1159  0.1347
 5390W        W18804   4.238   4.387  13.412  0.0524 -0.0662 -0.1243
 5391W        W18805  15.893   1.535  13.109 -0.1207 -0.1662 -0.1587
 5392W        W18806   4.931   1.967   4.212  0.1872 -0.0158  0.1345
 5393W        W18807  15.115   7.321  16.334 -0.0297  0.1501  0.0453
 5394W        W18808   0.798   5.417   0.049 -0.0724  0.0714 -0.2883
 5395W        W18809   9.459   5.671  15.411  0.1057 -0.3449  0.1392
 5396W        W18810  14.430   8.223   1.930 -0.1802 -0.1473  0.2111
 5397W        W18811   3.585  17.053   4.338 -0.0845  0.1029 -0.0452
 5398W        W18812   0.251  10.482   1.143 -0.1662 -0.2629  0.2123
 5399W        W18813   3.564   9.633  14.482  0.2221  0.0692  0.1001
 5400W        W18814  17.888  13.166  13.427 -0.0478 -0.2562 -0.0315
 5401W        W18815  14.752  18.025   5.463 -0.3348 -0.0639 -0.2045
 5402W        W18816  14.118  18.109  14.175 -0.0543  0.1178 -0.2122
 5403W        W18817  14.482  13.320   3.884 -0.0779  0.1996 -0.3746
 5404W        W18818  17.860   9.752  11.592  0.0402 -0.0821  0.1168
 5405W        W18819   9.532   3.104   1.377  0.0043  0.0497  0.2080
 5406W        W18820   8.517   7.114  12.780 -0.1318  0.0061 -0.2760
 5407W        W18821  10.615   7.439  16.047  0.0391  0.0681  0.2793
 5408W        W18822  10.562   9.565  11.372  0.0292 -0.0460 -0.1194
 5409W        W18823  11.641  12.980   3.927  0.0726  0.0751 -0.2436
 5410W        W18824   4.890   5.553  12.139 -0.0749  0.1789 -0.2570
 5411W        W18825   1.794   8.362   6.591 -0.1223  0.1849  0.0079
 5412W        W18826  10.906   9.411  16.435 -0.0290  0.1854  0.1483
 5413W        W18827  11.036  10.386  10.379 -0.1409 -0.3323 -0.2499
 5414W        W18828   5.627   6.998   5.485  0.3976  0.1964  0.0213
 5415W        W18829   1.725  13.033  12.308 -0.1311  0.0482  0.3736
 5416W        W18830  13.032   1.334   1.286 -0.1028  0.0545 -0.1283
 5417W        W18831   8.651  10.125   3.648 -0.1726 -0.0057 -0.2755
 5418W        W18832   2.840  15.756  12.075  0.0455 -0.0373 -0.1590
 5419W        W18833   1.004  11.995  10.809  0.1288 -0.0298  0.0074
 5420W        W18834   4.427   7.031   3.874 -0.1692  0.1871 -0.0317
 5421W        W18835   9.176  12.270  14.743  0.1466 -0.1709 -0.0371
 5422W        W18836  11.483  13.996   1.513  0.0405 -0.0558  0.0861
 5423W        W18837   4.155   0.170  15.615 -0.2893 -0.4107 -0.2033
 5424W        W18838   5.188   0.847   4.387  0.0228 -0.2380  0.1013
 5425W        W18839   3.396  11.553   0.635 -0.0444  0.0461 -0.1064
 5426W        W18840  12.060   9.028  10.087 -0.0774 -0.0579 -0.1792
 5427W        W18841  17.642  12.548  15.555  0.3615 -0.0273 -0.1062
 5428W        W18842  16.023   3.683   5.295 -0.0268 -0.2718  0.1277
 5429W        W18843  13.872   0.391   1.502 -0.1397  0.4276  0.1201
 5430W        W18844  10.226   7.283   4.907  0.0779 -0.0918  0.1088
 5431W        W18845   2.270  17.884   3.253  0.0238  0.1179  0.1054
 5432W        W18846  17.884   5.385   4.171  0.1772 -0.0629 -0.0042
 5433W        W18847  17.506   8.525   6.027  0.2375 -0.0671 -0.0855
 5434W        W18848  12.145  15.628   2.407  0.0152 -0.0640 -0.2006
 5435W        W18849   6.677  13.636   3.431 -0.2371 -0.0240  0.2068
 5436W        W18850   2.734   3.905   6.928 -0.2601 -0.1096 -0.3367
 5437W        W18851   5.084  14.815   4.202 -0.0470  0.0635  0.1350
 5438W        W18852  10.173   6.725  12.038 -0.2380 -0.1588 -0.0066
 5439W        W18853  10.877  11.798  14.986 -0.2301 -0.1767 -0.0738
 5440W        W18854   5.153   3.040  14.497 -0.2115 -0.0242 -0.3012
 5441W        W18855  15.450   6.163  13.698 -0.0104 -0.1087  0.0410
 5442W        W18856   9.531   4.483  14.112  0.3953  0.4640  0.1343
 5443W        W18857   4.008   6.292   0.639  0.1059  0.1807 -0.2377
 5444W        W18858  18.225   9.233  10.434 -0.0748  0.2255 -0.3187
 5445W        W18859   5.777   4.825   2.995 -0.0687  0.1942  0.0470
 5446W        W18860  16.908  10.157   5.366  0.0029 -0.1807 -0.0507
 5447W        W18861   1.249  11.629   5.737 -0.0954  0.0050 -0.0487
 5448W        W18862  17.564  14.234   0.430  0.2997  0.0139  0.1055
 5449W        W18863   6.704  10.648  14.661 -0.2055  0.1320 -0.1755
 5450W        W18864   3.821   1.390  14.258 -0.2315  0.0123  0.0977
 5451W        W18865   0.445   6.773   0.178 -0.1613  0.0133  0.0460
 5452W        W18866   1.758   7.027   3.157 -0.0665 -0.0671 -0.4529
 5453W        W18867  15.597  10.249   3.790 -0.0201  0.1769 -0.3048
 5454W        W18868   1.181   5.627   2.944 -0.1771  0.1923 -0.1451
 5455W        W18869  13.026  11.172   4.051 -0.0737  0.3332  0.1287
 5456W        W18870  17.850  15.081  12.851 -0.2170 -0.2264  0.0261
 5457W        W18871   0.853  10.026  13.685 -0.2154  0.2076  0.2774
 5458W        W18872   0.353   4.293  14.644 -0.2835  0.0456 -0.0514
 5459W        W18873  10.072   6.454  14.199 -0.0739  0.2431  0.2952
 5460W        W18874  17.359  14.917   5.998 -0.0517 -0.1480 -0.1843
 5461W        W18875  12.284  12.726   3.354  0.1907  0.3482  0.2154
 5462W        W18876   5.427  11.334   4.085 -0.0801  0.0345  0.1500
 5463W        W18877   4.707   8.241  12.392  0.2130  0.0757  0.1282
 5464W        W18878  10.367   5.082  12.470  0.1034  0.0603 -0.0401
 5465W        W18879  15.241  11.415   4.214  0.1418 -0.1092 -0.1685
 5466W        W18880  17.199   7.219  12.641  0.2718  0.2450 -0.2467
 5467W        W18881  14.666   7.439  16.073 -0.1632  0.1333  0.0982
 5468W        W18882  11.807  15.200  14.872  0.0697 -0.2428  0.0549
 5469W        W18883   6.242   2.487  10.795  0.0374 -0.1102  0.1454
 5470W        W18884  11.016  10.488  12.976  0.1223 -0.0767 -0.1096
 5471W        W18885   9.883   5.630   2.246  0.1469  0.0410 -0.0168
 5472W        W18886  10.977   6.562  16.068  0.2495 -0.5387 -0.0778
 5473W        W18887   6.914  10.260  13.504  0.2616 -0.0144  0.1805
 5474W        W18888  14.541   6.001   3.484  0.1709  0.0501  0.0010
 5475W        W18889   0.631   4.332   1.545  0.1339 -0.4439  0.2649
 5476W        W18890  15.791  14.913   1.387 -0.1713 -0.0584 -0.0982
 5477W        W18891   2.580   1.834  14.765 -0.0121 -0.0188 -0.1649
 5478W        W18892  10.854   6.058   0.379 -0.1338 -0.4205  0.1230
 5479W        W18893  17.479   7.214   2.526 -0.1223 -0.0968  0.1277
 5480W        W18894  15.602   5.947  10.940  0.1062 -0.0857  0.2438
 5481W        W18895  14.989   0.124   1.976 -0.0773  0.0447  0.0809
 5482W        W18896  10.146  11.555   2.828  0.0733  0.2280  0.0333
 5483W        W18897  14.559  18.188   2.224  0.2292 -0.1020  0.2690
 5484W        W18898   9.175  13.899  12.560 -0.1160  0.0322  0.1996
 5485W        W18899   8.421   3.720  11.709 -0.2452 -0.0484  0.5256
 5486W        W18900  17.551  13.083  11.008 -0.0724 -0.1238  0.2041
 5487W        W18901   8.452   0.844  11.694 -0.1369 -0.1323  0.0073
 5488W        W18902   9.651  11.470   5.547  0.0531  0.1791  0.0472
 5489W        W18903   1.740  12.387  13.234  0.3357 -0.0387  0.0278
 5490W        W18904   4.613   9.622   4.687 -0.0155 -0.2068  0.0498
 5491W        W18905   7.042   6.296   5.947 -0.0374 -0.3301  0.2704
 5492W        W18906   5.138  11.986  15.620 -0.0228 -0.1380 -0.0258
 5493W        W18907   7.438   6.042  10.706 -0.0786  0.1697 -0.2081
 5494W        W18908   1.500   0.370   0.397 -0.1762  0.0211  0.0017
 5495W        W18909  11.871  18.103   0.168 -0.0459  0.1013 -0.2142
 5496W        W18910   5.256  10.409   1.318  0.0184 -0.1741  0.1985
 5497W        W18911   7.950  15.782   1.347  0.1582 -0.0118  0.0171
 5498W        W18912   8.971   2.504  12.387 -0.0789  0.0188  0.2439
 5499W        W18913  16.875  14.024   3.631  0.3875  0.0648 -0.0660
 5500W        W18914   9.794  17.463   4.009 -0.2724 -0.0398  0.0498
 5501W        W18915  11.407   9.525   5.300  0.0200  0.0079  0.0809
 5502W        W18916   8.904  11.373   2.114 -0.0033 -0.1930 -0.0239
 5503W        W18917  14.912  16.787  14.429  0.4684 -0.0884  0.1504
 5504W        W18918   9.759   6.747   0.499 -0.0495  0.2080 -0.3003
 5505W        W18919  11.589  10.480  14.836  0.3586 -0.0317  0.1037
 5506W        W18920   5.863  12.268  15.127 -0.2845 -0.0167  0.1485
 5507W        W18921  15.394   0.754  16.181  0.2444  0.0432  0.2730
 5508W        W18922   2.835   0.771  11.618 -0.1486 -0.0119  0.1070
 5509W        W18923  13.647   2.668  16.091 -0.2065 -0.0110  0.1179
 5510W        W18924   0.554  10.444  14.494  0.0877  0.0193 -0.0907
 5511W        W18925   1.717   6.397  15.082  0.1495  0.0468 -0.1393
 5512W        W18926   3.126   7.922   2.767  0.0227  0.1487  0.1367
 5513W        W18927   3.051  18.013  11.899 -0.2530 -0.1592  0.0489
 5514W        W18928   1.419   3.876  12.734 -0.2449 -0.0630 -0.0992
 5515W        W18929  17.123   3.066   4.870  0.2658  0.3532  0.1037
 5516W        W18930  17.322  11.029  12.187  0.0130  0.2436  0.0378
 5517W        W18931   7.993   6.880  11.561 -0.0326 -0.2788  0.1309
 5518W        W18932   1.946   7.914   6.744  0.1191 -0.3474  0.1721
 5519W        W18933  10.875   1.816   2.085  0.3753  0.1633  0.1064
 5520W        W18934  11.705  14.753  11.199  0.1514  0.2640 -0.4902
 5521W        W18935   8.538  11.176   1.094  0.0311  0.0332  0.0536
 5522W        W18936   6.105   9.461  14.186  0.0950  0.4635  0.1739
 5523W        W18937   3.372  12.784   1.647  0.2005 -0.0667 -0.3857
 5524W        W18938   0.402  18.239  11.557  0.1013 -0.1091 -0.1859
 5525W        W18939   2.019  17.143  16.294 -0.0487  0.1549 -0.1938
 5526W        W18940  11.588  11.149   5.069 -0.0239  0.0598  0.2276
 5527W        W18941  17.876   4.614   5.492 -0.0490  0.1717 -0.2016
 5528W        W18942   8.903  12.834  15.871 -0.1958  0.1148  0.2054
 5529W        W18943   9.499   3.434   4.713  0.0138 -0.0949 -0.0305
 5530W        W18944  11.268   3.398  10.865  0.3273 -0.0634  0.0998
 5531W        W18945   9.779  10.812   1.670  0.0237  0.1585 -0.2589
 5532W        W18946   2.395   6.883  10.392  0.0711  0.2728  0.1444
 5533W        W18947   0.592   3.997   2.013 -0.2496  0.0229  0.3796
 5534W        W18948   1.770   6.085  16.048  0.0361  0.2732  0.1314
 5535W        W18949   7.682  11.107  15.570 -0.1380 -0.2058 -0.0529
 5536W        W18950   2.645   5.468   1.366 -0.1511  0.2565  0.1269
 5537W        W18951  14.706  13.937  15.325  0.1485 -0.1507 -0.1421
 5538W        W18952   8.121  16.888   3.508 -0.0712 -0.1695  0.3202
 5539W        W18953   5.909  10.696  13.543 -0.0207  0.1578 -0.1341
 5540W        W18954  11.914  12.321   3.276 -0.0081 -0.0957  0.4492
 5541W        W18955   1.097   9.129   3.065 -0.0949 -0.2305  0.1619
 5542W        W18956  16.626   4.335  10.377 -0.2489 -0.1761 -0.1008
 5543W        W18957  10.770   6.226   1.714  0.0562  0.0356 -0.3241
 5544W        W18958   1.529   8.814  15.506  0.0506 -0.0099 -0.2536
 5545W        W18959  12.000   8.635  16.033  0.0441 -0.0786  0.0018
 5546W        W18960   9.418   0.958  16.052 -0.2474 -0.0739 -0.1006
 5547W        W18961  14.846   9.055  16.154 -0.4645 -0.0117  0.0106
 5548W        W18962   2.031  14.281  11.731 -0.1794  0.2917 -0.0072
 5549W        W18963  18.071   2.804   4.125 -0.3336 -0.1708 -0.1004
 5550W        W18964   0.305  15.618  15.092 -0.0460  0.2721 -0.1959
 5551W        W18965  16.802  10.953  10.732 -0.2590 -0.1525  0.2131
 5552W        W18966  14.932  12.719  12.912  0.2516 -0.2757  0.3641
 5553W        W18967  10.559   5.795   2.690  0.1616 -0.5065 -0.1826
 5554W        W18968  10.131  11.798   1.852 -0.3753 -0.2383 -0.2901
 5555W        W18969   5.304  14.308   2.147 -0.2773 -0.1573 -0.1011
 5556W        W18970  10.978   5.326  11.079  0.0318 -0.2188 -0.1466
 5557W        W18971   8.028   2.009   4.330 -0.0508 -0.2784  0.1831
 5558W        W18972  12.850  14.644  13.893  0.0480 -0.2203 -0.0009
 5559W        W18973   1.071   3.163   6.295 -0.1824  0.1654  0.1663
 5560W        W18974   7.984  10.842   5.035  0.1603  0.2188 -0.2316
 5561W        W18975  16.338   3.030   4.370 -0.0639 -0.1010  0.0133
 5562W        W18976   7.611   1.806   0.714 -0.0395 -0.0321  0.1617
 5563W        W18977   5.603   0.144   2.756 -0.1801 -0.0187  0.0897
 5564W        W18978  12.884   6.778  11.620  0.0515 -0.1523 -0.3409
 5565W        W18979   9.010   7.454  15.454  0.1643  0.2803 -0.0476
 5566W        W18980  14.472  16.119  12.927  0.0373 -0.2184 -0.2192
 5567W        W18981   0.584   3.708  14.117  0.1693  0.2271 -0.2727
 5568W        W18982   1.434  13.987  14.328  0.2394  0.0331 -0.2780
 5569W        W18983   0.803  10.399   2.238  0.0624 -0.1696 -0.1916
 5570W        W18984  15.186  12.195   3.078  0.0745  0.1956 -0.2082
 5571W        W18985  15.822  16.746  14.450 -0.0738 -0.0564 -0.1173
 5572W        W18986  15.196   7.251   2.047 -0.1391  0.2203 -0.0318
 5573W        W18987  16.287  17.667  12.447  0.1563  0.4512  0.0496
 5574W        W18988   0.363  14.764  13.236 -0.0003 -0.1202 -0.1494
 5575W        W18989   8.036  15.899   9.725  0.0308  0.0897  0.1304
 5576W        W18990   8.136  14.443   1.302  0.1496  0.0723  0.1079
 5577W        W18991  16.037   9.121  12.960  0.1519  0.0494 -0.0721
 5578W        W18992  12.047  14.102   3.251  0.0155 -0.1009  0.0864
 5579W        W18993  12.965  10.976   3.294  0.1623 -0.1360  0.1980
 5580W        W18994  12.470   8.757  14.316  0.0692 -0.0309  0.0580
 5581W        W18995  13.023   4.660   3.346  0.1459  0.3107 -0.0307
 5582W        W18996   0.955   2.065  11.801  0.1819 -0.1462 -0.0649
 5583W        W18997   6.007  18.021  11.224  0.0114 -0.1628  0.0642
 5584W        W18998   4.969   3.408   0.374  0.0769  0.2800 -0.0272
 5585W        W18999   0.548   5.319   5.631  0.1231  0.0997 -0.2395
 5586W        W19000  15.571  12.968   0.149 -0.2125 -0.0488 -0.0784
 5587W        W19001   3.188   1.465   5.581  0.0725 -0.1860 -0.2065
 5588W        W19002   5.983  11.704  15.342 -0.3408 -0.1430  0.0038
 5589W        W19003   8.724   7.004   5.613  0.1873 -0.0272  0.1302
 5590W        W19004   1.389   4.157  16.140 -0.1313 -0.0928  0.0122
 5591W        W19005  10.346  14.473  14.013  0.3505 -0.1720 -0.2215
 5592W        W19006  16.437  14.718   4.125 -0.2352 -0.2486  0.0481
 5593W        W19007   1.219  10.080  14.030 -0.1896  0.1352 -0.2873
 5594W        W19008   3.393  16.861  13.480 -0.1462 -0.0236  0.1339
 5595W        W19009   0.155   8.067  11.135 -0.0731  0.1368  0.0544
 5596W        W19010  15.017   7.578  14.820 -0.0287 -0.1184  0.2263
 5597W        W19011   8.453   5.599  14.354 -0.0824  0.0959  0.0874
 5598W        W19012   5.729   3.339   2.484  0.0984  0.0614  0.0780
 5599W        W19013   7.476   0.393   4.822  0.0791 -0.1427 -0.0818
 5600W        W19014  13.300   2.486  13.059  0.3400 -0.0514 -0.0345
 5601W        W19015  11.775   8.289  15.788  0.0979  0.0580 -0.2676
 5602W        W19016   7.591  14.651   1.449 -0.0865  0.1709  0.1799
 5603W        W19017   3.695   1.531   3.152  0.0154  0.0411  0.0279
 5604W        W19018  17.336  16.031   1.476 -0.0664 -0.3043  0.1039
 5605W        W19019   0.541   1.571  13.207  0.1789 -0.0009  0.0714
 5606W        W19020  11.876   4.394   1.167 -0.2325 -0.0097 -0.0028
 5607W        W19021   5.771  11.773   0.998  0.0197  0.0208  0.3322
 5608W        W19022   5.144  10.857  12.338 -0.2720  0.0039  0.0497
 5609W        W19023   8.945   2.158   5.392 -0.1179 -0.0353  0.4349
 5610W        W19024   5.860   2.464   5.441  0.1391  0.2644  0.0472
 5611W        W19025   9.684   7.881   4.478 -0.1836 -0.0187  0.0634
 5612W        W19026  17.144  14.791   5.500  0.1159  0.0828 -0.0243
 5613W        W19027  13.504   8.905   0.501  0.2197 -0.0110  0.0086
 5614W        W19028   3.348  11.199   2.255  0.0630  0.1920  0.5434
 5615W        W19029  11.876   9.979  14.150  0.3027  0.0087  0.0908
 5616W        W19030  14.551  13.540   2.964 -0.2617 -0.2742  0.1612
 5617W        W19031   5.293  16.417  14.257  0.0290 -0.2462  0.0141
 5618W        W19032   4.044   2.947   5.538  0.1777  0.0552  0.1211
 5619W        W19033   1.442   3.785   1.212 -0.0550  0.3574 -0.2823
 5620W        W19034  13.022  11.917   3.489 -0.0585  0.0804 -0.3594
 5621W        W19035  11.985   0.602  12.306  0.0037  0.0543  0.4998
 5622W        W19036   1.051  11.063  12.055  0.1710 -0.4341 -0.0148
 5623W        W19037   8.566  11.544   0.737 -0.0557  0.0440  0.1135
 5624W        W19038  10.888   3.536  13.162  0.5998  0.2625  0.3140
 5625W        W19039  12.809   0.433  13.193  0.1309  0.0280 -0.5398
 5626W        W19040  17.182   4.483   2.375  0.0295  0.2542  0.1310
 5627W        W19041   5.983  11.919  12.691  0.0586 -0.1295  0.0807
 5628W        W19042   9.742   5.491   4.735  0.3571  0.0004 -0.0962
 5629W        W19043   1.394   2.328  10.978 -0.1320 -0.0185  0.2719
 5630W        W19044  17.758   6.053   2.988 -0.0714 -0.0097 -0.3528
 5631W        W19045  16.345   1.446   2.357 -0.2249 -0.1053  0.1882
 5632W        W19046  12.036  11.196   3.496 -0.1467 -0.3165 -0.1184
 5633W        W19047  10.249  17.511   5.621  0.0525  0.3064  0.0830
 5634W        W19048  14.177  13.348  13.239  0.0515  0.3434 -0.1700
 5635W        W19049  14.690  17.085  16.418  0.0934  0.1278  0.0433
 5636W        W19050   6.122   8.869  12.713  0.0004  0.0094  0.0088
 5637W        W19051   0.819  11.807   0.864  0.0065  0.1511  0.2074
 5638W        W19052  15.818   0.515   4.538  0.1530  0.0134 -0.1276
 5639W        W19053  15.506  10.429  10.236 -0.0280 -0.0623 -0.0624
 5640W        W19054   9.801   9.795   2.247  0.0539 -0.2092  0.1429
 5641W        W19055  14.951  14.169   1.690 -0.0531  0.2077  0.0114
 5642W        W19056   8.279  15.237  16.467 -0.3537 -0.1776 -0.0656
 5643W        W19057  11.312  16.067  14.959 -0.0351  0.4436 -0.0872
 5644W        W19058   7.925   3.241   1.462 -0.2072  0.0429  0.1340
 5645W        W19059   7.698   2.282  13.625 -0.2287 -0.2139  0.2092
 5646W        W19060   0.060   1.058   3.506  0.0788 -0.3361  0.3168
 5647W        W19061   0.132  15.825  16.363  0.0809 -0.0987  0.2404
 5648W        W19062  11.916   8.172  11.366  0.0448  0.0570 -0.1249
 5649W        W19063  13.781   5.066  12.783 -0.0956 -0.0291  0.0215
 5650W        W19064   2.352   0.816  14.484  0.1461 -0.0782 -0.0105
 5651W        W19065   5.507   2.472  15.364 -0.2013 -0.1401  0.2000
 5652W        W19066  11.834   1.891  13.499  0.0499  0.3305 -0.1653
 5653W        W19067   6.093  12.032   0.672  0.1090 -0.2670  0.0085
 5654W        W19068  16.407  18.175   3.060  0.3961 -0.1694 -0.1586
 5655W        W19069  14.738   1.426   5.325  0.1445  0.2308  0.3523
 5656W        W19070  13.409  10.388  11.212  0.1124 -0.0631 -0.0796
 5657W        W19071  17.048   8.925   4.966 -0.0932 -0.0894 -0.1493
 5658W        W19072  17.960  14.269  15.487 -0.1431  0.1605 -0.3036
 5659W        W19073  18.247   4.031  12.104  0.2738  0.2859  0.1076
 5660W        W19074   5.463  10.289   4.458 -0.2371  0.1866 -0.0560
 5661W        W19075   8.213  11.300  13.378  0.1531 -0.1768 -0.2338
 5662W        W19076   0.517   7.052  14.580  0.1331  0.1259  0.2278
 5663W        W19077   7.695   1.759   4.563 -0.2669  0.0494  0.1316
 5664W        W19078  12.364  12.579   0.253 -0.1600  0.1197  0.1453
 5665W        W19079  12.996  14.900   1.944 -0.2558 -0.0750 -0.3246
 5666W        W19080  12.482   0.256   0.570 -0.2191 -0.0259  0.1637
 5667W        W19081  17.665  12.656   3.144 -0.0548 -0.3058  0.2330
 5668W        W19082  10.125   4.325  12.113 -0.1127  0.1125 -0.0466
 5669W        W19083  13.410   8.238  13.997  0.1766  0.0167  0.0764
 5670W        W19084   1.532  11.812   3.485  0.2572  0.1202 -0.1940
 5671W        W19085  10.032  17.521  13.491  0.0165 -0.2018 -0.2872
 5672W        W19086   7.790   2.507   2.150 -0.2450  0.2568 -0.2432
 5673W        W19087  14.837   3.407   5.427  0.1833  0.1214 -0.3674
 5674W        W19088   1.808   6.015  11.945  0.0093 -0.4600 -0.2405
 5675W        W19089   5.208  14.468  14.075 -0.2876 -0.3635 -0.0587
 5676W        W19090  15.107  17.616   0.511 -0.1035 -0.1690 -0.1127
 5677W        W19091  15.382  14.665   0.083  0.2359  0.1278 -0.3555
 5678W        W19092  18.113   2.403   5.144 -0.1741 -0.2878 -0.0560
 5679W        W19093  10.504   1.907   5.098  0.2179  0.3991 -0.0720
 5680W        W19094   5.033   3.833   3.845  0.2124  0.4362  0.0989
 5681W        W19095  17.221   2.092  10.826  0.1605  0.4467 -0.1326
 5682W        W19096   0.041   1.081   6.301 -0.0027 -0.0639  0.1755
 5683W        W19097  15.537   8.369   4.254  0.3448  0.0683  0.0027
 5684W        W19098   8.199  16.792   0.380 -0.1336  0.2405  0.1548
 5685W        W19099  12.533  10.106  13.150  0.0520  0.3262 -0.3785
 5686W        W19100   0.259   5.360   2.819 -0.1528  0.2439  0.1376
 5687W        W19101  14.449  15.097  14.533  0.1409  0.1223  0.2703
 5688W        W19102  14.256   4.951  13.133 -0.1394  0.2382  0.0499
 5689W        W19103  14.662  16.078  11.816  0.1475 -0.2099 -0.0091
 5690W        W19104  12.992   4.781  10.227  0.1392 -0.1733 -0.2103
 5691W        W19105  16.469   5.489   2.299  0.0925 -0.0723 -0.0268
 5692W        W19106  12.867   0.016   5.662 -0.1431 -0.0643 -0.1722
 5693W        W19107   8.150   4.717  13.179 -0.0092  0.0180 -0.4881
 5694W        W19108  16.177   8.810  15.657  0.0812 -0.2687  0.0765
 5695W        W19109  10.601   6.125  14.239  0.1041 -0.0632 -0.1461
 5696W        W19110  13.123  14.886   0.282 -0.0741 -0.2455 -0.0557
 5697W        W19111  11.582  14.405  15.820  0.1432 -0.0121  0.2022
 5698W        W19112   3.807   6.303  15.623  0.1983  0.1341 -0.1285
 5699W        W19113  12.640   6.370  13.503 -0.1600 -0.0621 -0.1340
 5700W        W19114   3.471  10.081   6.438 -0.0618 -0.0249  0.2178
 5701W        W19115  10.751   5.121  16.193 -0.3463  0.0136  0.1482
 5702W        W19116   0.150  13.078   4.433 -0.3348  0.2729  0.1468
 5703W        W19117  17.129  12.862   6.222 -0.0182  0.3079  0.2027
 5704W        W19118  10.955  10.538  15.960 -0.1432 -0.1184  0.0689
 5705W        W19119  16.303   5.644  14.059 -0.2948  0.1715 -0.0756
 5706W        W19120  13.493  15.119   5.217  0.0846  0.1568 -0.1303
 5707W        W19121  14.403   7.960  12.848  0.0258  0.0618 -0.0339
 5708W        W19122   2.397  10.757   6.190 -0.1348  0.0243 -0.0824
 5709W        W19123  14.824   0.494   4.412  0.0501 -0.2974  0.0858
 5710W        W19124   0.650   3.872  14.603  0.0786  0.3169  0.0468
 5711W        W19125   6.925   9.692  15.999  0.0064 -0.3250  0.0636
 5712W        W19126  12.850  14.974   2.678  0.1182  0.1736  0.1025
 5713W        W19127  14.282  17.603  15.610 -0.2430 -0.1367 -0.1005
 5714W        W19128  13.428   1.669  12.544 -0.0200  0.0074  0.3218
 5715W        W19129   2.916  11.565   0.238 -0.0822 -0.1698 -0.1317
 5716W        W19130   4.360   1.707   5.877 -0.1572 -0.0864  0.1681
 5717W        W19131  17.848   5.245   5.069 -0.3364 -0.1630  0.2264
 5718W        W19132  10.261   8.024  13.091  0.0392 -0.2560 -0.5063
 5719W        W19133   8.437   6.837   1.442  0.0581  0.0466  0.0754
 5720W        W19134  18.197   3.851   3.800 -0.1356  0.0168 -0.3268
 5721W        W19135  13.944  12.867  11.205  0.1629 -0.1947  0.0844
 5722W        W19136   8.218   6.694   5.584  0.1897 -0.0081 -0.1313
 5723W        W19137   9.826  14.873  15.865 -0.4175 -0.1508 -0.1167
 5724W        W19138  11.527  17.274   1.181 -0.0795 -0.5013  0.1053
 5725W        W19139   4.202   1.978   5.019  0.1277 -0.0084  0.1935
 5726W        W19140  13.263  14.307  13.928  0.1006  0.0002 -0.1832
 5727W        W19141  10.240  17.460   4.313 -0.1295  0.0581  0.3914
 5728W        W19142  16.177  10.151  13.604 -0.2672  0.2236 -0.1294
 5729W        W19143   5.732   4.372   4.190  0.0438  0.2047  0.0468
 5730W        W19144  11.440   3.912   3.170 -0.1001  0.0169  0.1537
 5731W        W19145   8.581   5.534   2.705  0.1819  0.4462  0.0661
 5732W        W19146  11.425   9.601   9.776  0.0539 -0.3268 -0.1390
 5733W        W19147   4.679   3.442  14.280 -0.2432 -0.1624 -0.1328
 5734W        W19148  13.278   0.708   0.242  0.0798 -0.0039 -0.1135
 5735W        W19149   8.453  11.504  13.765 -0.0841 -0.1728 -0.1926
 5736W        W19150   5.168   1.368   3.005  0.2637  0.1758  0.1338
 5737W        W19151  14.319  16.475   4.790  0.1471  0.3030  0.0762
 5738W        W19152   5.534  12.404  13.393  0.4442 -0.2378  0.1391
 5739W        W19153  14.600   1.072   6.097  0.1487 -0.0844  0.1501
 5740W        W19154  12.660   7.101   2.665  0.1929  0.2888 -0.1599
 5741W        W19155   8.283   3.407  11.373 -0.1602  0.3787 -0.4215
 5742W        W19156  16.657  14.848   1.841  0.2560 -0.3444 -0.0245
 5743W        W19157   2.723  13.189  11.895 -0.0621 -0.0490 -0.2833
 5744W        W19158  18.045   3.392  10.543 -0.1082  0.0477 -0.0404
 5745W        W19159   0.708  11.589  15.978  0.1938  0.0624  0.1797
 5746W        W19160  15.728   3.881  11.742  0.0440  0.1255  0.0087
 5747W        W19161   8.888  10.626   5.380 -0.0965  0.0286  0.1067
 5748W        W19162  17.837  18.209   0.910  0.2761 -0.0125  0.2867
 5749W        W19163  13.689  12.950   0.405 -0.0120 -0.0812  0.0735
 5750W        W19164   0.254  13.265   2.463 -0.1213  0.2676  0.3083
 5751W        W19165   7.530   8.006   1.129 -0.2692  0.0312  0.0614
 5752W        W19166  15.153  17.394  11.733 -0.1394  0.1624  0.0817
 5753W        W19167   4.221   7.305   4.647  0.0097  0.4152 -0.1822
 5754W        W19168   4.403   5.821   9.905  0.0252 -0.0273  0.0661
 5755W        W19169   4.641  13.623  11.376  0.0841  0.1922 -0.3169
 5756W        W19170   4.383   5.332  15.695 -0.2251  0.0859 -0.1719
 5757W        W19171   0.433  17.323   2.833 -0.0461  0.0284 -0.1548
 5758W        W19172   1.055   5.240   5.387 -0.1930  0.0653  0.0666
 5759W        W19173  12.717  12.902   5.569 -0.3663  0.1279  0.0327
 5760W        W19174   9.157   8.648   4.798  0.0057 -0.1709 -0.3786
 5761W        W19175  12.619   2.350   1.198  0.1077 -0.2555  0.1629
 5762W        W19176   2.811   9.249  12.868  0.0324 -0.0256 -0.2135
 5763W        W19177  17.323   4.797   3.104  0.0612  0.0654  0.0328
 5764W        W19178   8.460   7.823   5.746  0.0962 -0.1623  0.1223
 5765W        W19179  12.022  16.817   4.431  0.1140 -0.0647  0.2086
 5766W        W19180  12.327   9.141   3.231 -0.2744  0.0448  0.1811
 5767W        W19181  10.216   2.553  10.861 -0.3784  0.1441 -0.3670
 5768W        W19182  11.620   0.290   5.014  0.0881  0.0657 -0.1067
 5769W        W19183  17.054   4.848   4.156  0.1904 -0.1839  0.1757
 5770W        W19184  14.326   1.646   3.685 -0.1309  0.1534 -0.1289
 5771W        W19185   8.074  10.878   2.231 -0.2251 -0.0339  0.0274
 5772W        W19186  12.953   7.596  10.459  0.0747 -0.0830 -0.2038
 5773W        W19187   1.068   8.640  12.974 -0.0655  0.2235  0.3898
 5774W        W19188   1.500  10.702   4.408  0.4121 -0.0771 -0.0304
 5775W        W19189  14.995   2.434   5.911  0.0572  0.0103  0.1593
 5776W        W19190   7.986   0.829   0.709  0.2201  0.1631  0.2432
 5777W        W19191   4.754   0.295   2.420  0.0496  0.0237 -0.0058
 5778W        W19192   6.365   8.123   0.703  0.0664 -0.1486  0.4805
 5779W        W19193   4.592   5.011  14.742  0.1029 -0.1663  0.2689
 5780W        W19194  15.512  13.402   0.434 -0.1281  0.0098  0.0674
 5781W        W19195   4.425  16.373  13.248 -0.0033 -0.2694 -0.1607
 5782W        W19196   2.056   8.357  12.974 -0.0785 -0.1242 -0.0221
 5783W        W19197  11.133   3.955   2.787  0.2078  0.2319 -0.0662
 5784W        W19198  12.686   6.729  16.024  0.1101  0.0145 -0.0413
 5785W        W19199  10.984   0.610   3.429 -0.0300 -0.1343  0.0586
 5786W        W19200   0.603   0.976   3.416 -0.1021  0.2007  0.2284
 5787W        W19201  12.447   7.532  16.320  0.1681  0.0421  0.0088
 5788W        W19202  14.754   7.131  12.779  0.0188  0.0341  0.2571
 5789W        W19203   9.933  15.152  12.736 -0.1305  0.2516  0.0045
 5790W        W19204  18.022   4.649  15.886 -0.0334  0.0824 -0.0752
 5791W        W19205  15.269  11.371  15.719 -0.0973 -0.2186 -0.1071
 5792W        W19206   8.917  10.468  14.202 -0.1193  0.0443 -0.1714
 5793W        W19207  16.419   5.314   3.856  0.3703 -0.1517  0.3326
 5794W        W19208   8.715   6.089  13.247  0.1907 -0.1440  0.1289
 5795W        W19209   2.423  10.661   3.398 -0.0967 -0.1210 -0.2758
 5796W        W19210   4.986  16.582  13.135 -0.1169 -0.0860 -0.0953
 5797W        W19211   8.519  13.924   4.997  0.2016 -0.1089  0.1779
 5798W        W19212   7.837   3.225  11.469  0.0240  0.2489 -0.1438
 5799W        W19213   3.914   7.449   2.699  0.4336  0.0593  0.3617
 5800W        W19214   0.310   7.276   2.324 -0.3096  0.3318 -0.0678
 5801W        W19215   2.263  11.697  12.307  0.1859 -0.1405  0.0529
 5802W        W19216   3.199  13.399  15.387 -0.0555 -0.0846 -0.0477
 5803W        W19217   1.306  11.476  12.233  0.1337 -0.1434  0.0908
 5804W        W19218   7.466   6.970  11.154  0.2312  0.3480 -0.2270
 5805W        W19219   3.514  14.557   4.211 -0.0476  0.2075  0.2370
 5806W        W19220   5.331  12.522   4.077  0.1431 -0.3243  0.0646
 5807W        W19221   8.633  10.102  11.625  0.0504  0.0561 -0.1211
 5808W        W19222   4.051   1.836  15.253  0.1626 -0.0559  0.1370
 5809W        W19223   6.567   3.571   5.836  0.1393  0.2673  0.1064
 5810W        W19224  10.791  11.216   0.337  0.0814  0.0162 -0.1357
 5811W        W19225  11.089  14.963  11.324  0.0378  0.1969 -0.0175
 5812W        W19226  16.834   8.283  15.353  0.2428 -0.3499 -0.0514
 5813W        W19227   7.838   9.251  12.355 -0.2209 -0.0273  0.1154
 5814W        W19228  17.466   3.216  13.697  0.0233  0.0017  0.2257
 5815W        W19229   0.463  12.126   5.782  0.1092  0.0363 -0.0924
 5816W        W19230  12.515   6.460   4.494  0.0172 -0.0905 -0.0917
 5817W        W19231  14.560  16.048   1.066 -0.0012 -0.1334 -0.0715
 5818W        W19232   5.906   4.690   5.057  0.0047  0.2500 -0.1770
 5819W        W19233   7.073   1.936   1.649 -0.2350 -0.2743  0.0051
 5820W        W19234  16.918  12.135   4.427  0.4179  0.0044 -0.0884
 5821W        W19235  12.034   2.539   0.363 -0.2586  0.1004 -0.1188
 5822W        W19236   0.991  12.434   0.207  0.1476  0.1901  0.1863
 5823W        W19237  14.149   4.081  10.544 -0.1572 -0.1054 -0.1611
 5824W        W19238   7.544   5.183   1.784  0.0709  0.0776 -0.0629
 5825W        W19239  10.577   0.870  10.855 -0.1369  0.0767  0.0018
 5826W        W19240   2.934  14.259   1.441  0.0959  0.0103  0.0139
 5827W        W19241   5.369   2.372  13.535  0.0172 -0.0113  0.2080
 5828W        W19242  16.210  16.962  12.374  0.1381 -0.1625 -0.0974
 5829W        W19243   1.543  12.840   3.708 -0.1358 -0.2169 -0.1858
 5830W        W19244   0.891  13.444   1.813 -0.0091 -0.2797  0.1766
 5831W        W19245   0.736  14.475  14.093  0.2074 -0.5081 -0.1336
 5832W        W19246   3.606   1.584   0.254 -0.3064 -0.0084 -0.0578
 5833W        W19247   2.374   7.989  13.202 -0.0415 -0.0863 -0.0102
 5834W        W19248  15.785   8.929   3.424  0.2236  0.3730  0.0879
 5835W        W19249  15.161   0.307   3.004  0.0684 -0.2328  0.0453
 5836W        W19250   6.961  14.413   1.694  0.2634  0.0950 -0.1294
 5837W        W19251   5.466  12.165   1.028 -0.0721  0.0332 -0.1251
 5838W        W19252  16.847   9.905   4.329  0.4546 -0.1326  0.2934
 5839W        W19253  13.901  10.236   4.625  0.2077  0.0852  0.0745
 5840W        W19254   2.341  16.414   0.876 -0.0408  0.2320 -0.0601
 5841W        W19255  16.214   1.405   1.539 -0.1522  0.2630  0.0789
 5842W        W19256  12.306  11.672   2.200 -0.1047  0.0768 -0.2822
 5843W        W19257   0.126   2.785   4.837  0.0487 -0.5391 -0.1662
 5844W        W19258  11.005   2.569   0.579  0.1788 -0.0183 -0.0643
 5845W        W19259  16.124  15.985  11.353 -0.1651  0.1299 -0.0974
 5846W        W19260  17.897   0.137   3.695 -0.1637  0.1595 -0.0055
 5847W        W19261  10.224   2.790   4.977  0.0991  0.1360 -0.0734
 5848W        W19262   5.929   1.604   4.407 -0.1676 -0.0404 -0.1895
 5849W        W19263   7.765  11.529  13.336  0.3109 -0.1274 -0.1120
 5850W        W19264  17.958  17.500   3.260  0.2533  0.1273 -0.0774
 5851W        W19265  10.636  14.934  11.436  0.1821 -0.1488 -0.0607
 5852W        W19266   2.543  15.581   4.600 -0.1139 -0.2214 -0.3064
 5853W        W19267  13.829   8.800  16.495 -0.2249  0.0898 -0.2707
 5854W        W19268   5.017   3.317  13.570 -0.0314 -0.5052  0.0963
 5855W        W19269  13.625   0.106   1.823  0.0400  0.0831  0.2474
 5856W        W19270   1.282   1.843  15.382 -0.0800 -0.3559  0.3443
 5857W        W19271   7.597  14.348   0.978  0.1825  0.3052  0.2334
 5858W        W19272  17.301  17.040   2.308  0.1350  0.0833  0.2569
 5859W        W19273  10.636   3.096  11.237 -0.1103  0.2745  0.1843
 5860W        W19274   1.571   3.310   0.965 -0.2344 -0.0569 -0.1687
 5861W        W19275  12.604  16.722   9.857  0.3559 -0.0006  0.1261
 5862W        W19276  17.938   4.869   4.121  0.1634 -0.3847  0.1307
 5863W        W19277  13.247   0.002  13.587 -0.1782 -0.1460  0.2796
 5864W        W19278  15.435  12.435  10.767  0.1657  0.0681  0.2261
 5865W        W19279  17.122  13.454   0.828  0.1127  0.1095 -0.0735
 5866W        W19280   1.795  17.854   3.149 -0.1333 -0.1277 -0.1676
 5867W        W19281  13.705   3.365  16.018 -0.0433  0.3312  0.0794
 5868W        W19282   7.393  16.943  12.500  0.1552 -0.0023  0.2444
 5869W        W19283  18.135  14.290   1.825  0.1795  0.0995  0.0160
 5870W        W19284   4.711  11.953   6.495 -0.3612 -0.2294  0.0752
 5871W        W19285   2.660   8.601   4.940 -0.1323  0.0120  0.0076
 5872W        W19286   8.345  13.961  11.855 -0.1223 -0.3358 -0.1766
 5873W        W19287   9.719  14.891   5.071  0.0870 -0.0611 -0.3988
 5874W        W19288  17.804  18.017   4.420  0.0489 -0.1591  0.3048
 5875W        W19289   3.510   9.908   2.377 -0.1663  0.2137  0.1788
 5876W        W19290   8.797  11.975  12.169  0.0551  0.2240 -0.0218
 5877W        W19291   5.676   1.718  12.609  0.1657  0.2375 -0.3753
 5878W        W19292   4.905  17.530  10.872  0.0314  0.2585 -0.2777
 5879W        W19293   2.657   1.368   1.218 -0.1536 -0.1399 -0.1277
 5880W        W19294   2.632  17.622  15.562  0.2752  0.2587  0.2173
 5881W        W19295   0.224  14.435  11.039 -0.0848 -0.0606 -0.2693
 5882W        W19296   4.905   5.141  15.933  0.0134 -0.2187  0.3181
 5883W        W19297   9.915   2.544  11.821  0.1045 -0.0615  0.1774
 5884W        W19298  10.107  14.672  10.800 -0.0875  0.0132 -0.2610
 5885W        W19299   5.838  16.847   5.646 -0.2305  0.1655  0.0104
 5886W        W19300   3.323   6.567   0.878  0.0968  0.2396 -0.0529
 5887W        W19301   5.846   6.672  14.261  0.3508  0.0856  0.3529
 5888W        W19302   6.284  13.849  12.939  0.0391 -0.1053  0.0899
 5889W        W19303  18.076  12.600  13.097  0.1423 -0.0032 -0.3107
 5890W        W19304   7.574   7.465   2.179 -0.1096 -0.2505  0.2825
 5891W        W19305   3.578   9.287   1.633 -0.4853  0.2179  0.1450
 5892W        W19306   0.460  16.647  11.361  0.0340  0.0488  0.0335
 5893W        W19307   1.066   4.531  14.110 -0.0307 -0.0179  0.0049
 5894W        W19308   4.489   4.465   3.360  0.1220  0.2347 -0.2110
 5895W        W19309   3.304  13.065   0.891 -0.0273  0.2301 -0.0783
 5896W        W19310  11.155  15.466   0.956 -0.1992 -0.1269  0.3401
 5897W        W19311   5.897   8.162   4.275 -0.1532  0.3571  0.1250
 5898W        W19312  17.719  16.395   3.466 -0.0454 -0.3867 -0.1637
 5899W        W19313   2.177   6.423  12.973 -0.5080  0.2532 -0.0457
 5900W        W19314  11.795   8.157  13.925  0.0345  0.1493  0.2307
 5901W        W19315   4.898  17.921   0.343 -0.1409  0.1369  0.1219
 5902W        W19316   3.246   1.762  13.100  0.0295  0.0984 -0.3042
 5903W        W19317  16.892  15.227  15.923  0.1753 -0.0730  0.2389
 5904W        W19318   9.341  11.840  16.301 -0.0328  0.2053  0.0066
 5905W        W19319   9.977  15.117   3.635  0.0103  0.2681 -0.0515
 5906W        W19320   7.361   7.502  11.115  0.3500  0.2820  0.0044
 5907W        W19321  11.312  10.350   2.856  0.0188  0.0858 -0.3115
 5908W        W19322  14.482  13.261   1.631  0.2139  0.0205 -0.1243
 5909W        W19323  16.864   9.097  14.099 -0.2561 -0.2827  0.0276
 5910W        W19324   4.565  10.099   0.343  0.1475 -0.2102  0.2236
 5911W        W19325  12.811   9.572  13.140 -0.0668 -0.3134 -0.1077
 5912W        W19326   2.024  12.705   4.206 -0.1603 -0.1129 -0.1501
 5913W        W19327  16.907   3.040  14.593  0.1578 -0.0255  0.0074
 5914W        W19328   3.913  11.534   4.941 -0.0569 -0.0600  0.1380
 5915W        W19329   7.619  13.313  15.492 -0.2018  0.0036  0.3012
 5916W        W19330  15.761   7.171   3.521  0.2660  0.3484  0.2839
 5917W        W19331   5.235   6.566  11.125 -0.2728  0.0622  0.1565
 5918W        W19332  15.560   2.501  12.775 -0.4528  0.0178  0.2660
 5919W        W19333   9.337  11.188   2.425  0.0522  0.0804 -0.0125
 5920W        W19334  17.856   4.471  11.784 -0.0249 -0.0180 -0.0997
 5921W        W19335   9.136  16.646   1.364 -0.2007  0.2841  0.1170
 5922W        W19336  16.458   7.338  13.169 -0.0175 -0.0045  0.2312
 5923W        W19337   0.261  14.459  11.899 -0.0957 -0.4533 -0.1338
 5924W        W19338  17.329   0.489  12.790  0.1136 -0.2345  0.0224
 5925W        W19339  17.427   8.100   0.373  0.1939 -0.0745 -0.0648
 5926W        W19340   4.390   0.036  15.173  0.0389 -0.0820 -0.2015
 5927W        W19341   2.536  10.857  15.993 -0.1465  0.2525  0.0838
 5928W        W19342  16.824   2.617  14.030  0.1932 -0.0370  0.2657
 5929W        W19343   2.519   1.774   0.958  0.4250  0.1988  0.3258
 5930W        W19344  11.390  14.023  13.351  0.0762 -0.0104  0.0342
 5931W        W19345  12.878   2.780   2.805  0.2788  0.2803 -0.0405
 5932W        W19346   7.395  10.232  12.698 -0.3630 -0.3208 -0.1908
 5933W        W19347  10.087   9.556   3.927  0.0537  0.2063  0.1229
 5934W        W19348   0.047  17.998   5.218  0.1403  0.0466 -0.0142
 5935W        W19349  13.357   0.426  14.048 -0.0123 -0.1715 -0.0461
 5936W        W19350  12.058   2.872  14.557  0.1084 -0.1248 -0.0483
 5937W        W19351  10.427  10.233   0.378  0.1004  0.3652 -0.2693
 5938W        W19352   2.616   4.214   2.808  0.2249 -0.0412  0.0889
 5939W        W19353   8.579   6.974   4.060  0.2205 -0.3304 -0.2216
 5940W        W19354   8.106   3.060   0.117 -0.0882  0.2218 -0.1319
 5941W        W19355   7.174  12.011   4.142 -0.3945 -0.2719 -0.1869
 5942W        W19356  11.204   3.737   5.113  0.2293  0.0398  0.0505
 5943W        W19357   7.467  10.358  11.030  0.1135 -0.1177 -0.0137
 5944W        W19358   1.680  16.205   1.519 -0.1065  0.2847  0.0060
 5945W        W19359  17.516   9.855  14.153  0.1983 -0.0964  0.1805
 5946W        W19360   1.253  14.474  16.320  0.2656 -0.1071  0.1656
 5947W        W19361  15.721   7.475   4.195  0.0133  0.1567 -0.1840
 5948W        W19362   9.597   4.722   5.075  0.2361  0.0017 -0.1962
 5949W        W19363  10.394  17.237   1.873  0.1460  0.1812  0.3009
 5950W        W19364  14.501   4.338   1.665  0.2027 -0.2592  0.0949
 5951W        W19365   2.584   9.885  14.636  0.1975 -0.0720 -0.3013
 5952W        W19366  15.178   4.289  13.621  0.2726  0.3119 -0.0573
 5953W        W19367  16.526  13.426   2.828 -0.0728 -0.0759  0.1224
 5954W        W19368   6.594   3.677  11.294  0.2641 -0.2437  0.1488
 5955W        W19369  13.855   7.263  12.764  0.1926 -0.0443 -0.1830
 5956W        W19370   9.749  14.953   4.134  0.0030  0.1877  0.0492
 5957W        W19371   2.244   9.593   0.533  0.2756  0.0538  0.1125
 5958W        W19372   0.754  15.801  10.540  0.0596 -0.0842  0.1148
 5959W        W19373  11.491   2.187  16.299 -0.1419  0.3755 -0.1128
 5960W        W19374   8.735  15.145  14.679  0.1741 -0.0463  0.2981
 5961W        W19375  11.766  18.252   2.155 -0.1832 -0.1310  0.1178
 5962W        W19376  17.938  16.839  14.614  0.1624 -0.0050 -0.2019
 5963W        W19377   9.003   8.111   4.816  0.1705  0.2916 -0.1882
 5964W        W19378  12.446   4.740   1.996 -0.0062 -0.3441 -0.1824
 5965W        W19379   1.462   3.023  13.567  0.1556 -0.0507 -0.1851
 5966W        W19380   6.160  14.395  14.881 -0.1474  0.1045  0.0190
 5967W        W19381  11.732  17.252  11.012  0.1547  0.1400  0.2992
 5968W        W19382   2.434  13.850  14.102  0.0576 -0.1573 -0.0896
 5969W        W19383  17.989  12.512   5.589  0.0160 -0.1845  0.2220
 5970W        W19384   1.328  12.570   2.830  0.2146 -0.1771 -0.1228
 5971W        W19385  14.553  14.958   0.699 -0.0425  0.1442 -0.0203
 5972W        W19386   6.170   1.582   5.562  0.0737 -0.0545  0.4623
 5973W        W19387  13.029   8.782  12.491 -0.0579 -0.1481  0.3288
 5974W        W19388  15.396   7.499  13.122 -0.1461  0.0501  0.1078
 5975W        W19389  15.106  16.355   1.754  0.3184  0.0260  0.2262
 5976W        W19390  10.627   4.636   1.456 -0.1999 -0.0090 -0.1689
 5977W        W19391  15.034   9.817  11.380  0.0248  0.0105  0.1073
 5978W        W19392  16.529  17.205   3.129  0.0879 -0.2705  0.2877
 5979W        W19393  11.744  14.673   5.311 -0.3660 -0.3144  0.0052
 5980W        W19394   3.159   0.050  12.936 -0.1451 -0.0050 -0.0704
 5981W        W19395  10.145   8.129   4.659 -0.1070  0.0286 -0.1767
 5982W        W19396   7.586   9.298  12.805 -0.1501 -0.0133  0.2397
 5983W        W19397   7.703   2.659  12.486  0.2755 -0.0008  0.0036
 5984W        W19398   0.157   8.014  16.104 -0.0869  0.0504 -0.3934
 5985W        W19399  10.513   1.259   4.027  0.2167  0.1777  0.2731
 5986W        W19400   5.844  14.841  14.690  0.1391 -0.2436 -0.1782
 5987W        W19401   3.132   1.114  14.780  0.3992  0.1633 -0.1904
 5988W        W19402   5.764   1.088  14.048 -0.1220  0.0928  0.0569
 5989W        W19403   0.184  12.247   1.886  0.0654  0.2024 -0.1839
 5990W        W19404   4.176   1.171   3.294  0.2231 -0.0821 -0.2282
 5991W        W19405   9.238  17.852   3.707  0.0892 -0.1282 -0.3362
 5992W        W19406  14.482  15.996   2.133  0.1256  0.2198 -0.1219
 5993W        W19407   3.080  10.239   5.006  0.0875 -0.4301  0.1592
 5994W        W19408   5.326  16.551   4.880 -0.0228 -0.1723 -0.0936
 5995W        W19409   3.334  10.888  12.978  0.0424 -0.0508 -0.1733
 5996W        W19410   2.824   1.361  10.616 -0.2028 -0.0698  0.0258
 5997W        W19411   7.509  11.272  13.846 -0.1494  0.3058 -0.2464
 5998W        W19412  15.757   4.866   5.548 -0.0676  0.1803  0.1042
 5999W        W19413  13.225   0.219  14.510  0.3163  0.2035 -0.1681
 6000W        W19414  12.560  17.229   3.373 -0.1234  0.0341 -0.1360
 6001W        W19415   5.393   3.902   0.945  0.2022  0.0776 -0.0097
 6002W        W19416   8.060  15.137   2.467  0.4070 -0.1368 -0.1992
 6003W        W19417   3.224  15.570  16.269  0.0556  0.1135 -0.0452
 6004W        W19418  10.155  11.272   3.772 -0.1356 -0.0343  0.1637
 6005W        W19419   4.601  10.011   5.422  0.0258 -0.2130 -0.2133
 6006W        W19420   5.587  13.626   1.087 -0.0474  0.2614 -0.1588
 6007W        W19421  11.510   9.680  11.818 -0.0416 -0.0539  0.0584
 6008W        W19422  14.375  11.666   4.797 -0.0827  0.0576 -0.3482
 6009W        W19423  11.939   0.933  15.712  0.1850 -0.1407 -0.1415
 6010W        W19424   9.144   8.940  15.813 -0.3908 -0.1483  0.1058
 6011W        W19425  10.760   1.643   3.126  0.1872 -0.0199 -0.0380
 6012W        W19426  15.610   6.714   5.394  0.2090  0.2272 -0.3043
 6013W        W19427   7.208   2.661   4.935  0.1819  0.1105  0.0727
 6014W        W19428  15.471   1.230   0.605 -0.1109 -0.0212  0.2619
 6015W        W19429  15.322  11.325   5.655  0.2163 -0.0204 -0.1045
 6016W        W19430   0.006   6.203  14.562 -0.1437  0.0425  0.0221
 6017W        W19431  11.770  17.597   1.517  0.1385  0.0971  0.3668
 6018W        W19432  14.568   9.965   0.722  0.1178  0.2146  0.0619
 6019W        W19433  17.000  18.230  11.128  0.0176 -0.1378 -0.1398
 6020W        W19434   5.145   1.713  12.506  0.0125  0.0354 -0.0803
 6021W        W19435  12.662  16.317   4.299 -0.1918  0.1546  0.1859
 6022W        W19436  11.044   5.585   4.980  0.2318 -0.2101  0.3322
 6023W        W19437   3.456   0.719  10.955  0.1424 -0.2489 -0.1114
 6024W        W19438   1.689  12.022   4.421 -0.3966 -0.2018 -0.1947
 6025W        W19439   8.371   7.801  14.508  0.0791 -0.0969  0.1314
 6026W        W19440  10.376   2.864  15.420  0.3231  0.1622  0.4341
 6027W        W19441   4.791  15.098  14.814  0.0909  0.1194 -0.1532
 6028W        W19442  16.231   1.026  10.931 -0.0870 -0.1834 -0.1999
 6029W        W19443  12.277  18.192   6.248  0.0275  0.3665  0.1666
 6030W        W19444  14.612   4.985  13.924 -0.0313  0.1277 -0.0946
 6031W        W19445  12.238  13.299   5.484  0.1492 -0.0099 -0.2897
 6032W        W19446  14.961   5.121   3.705  0.1501  0.1074 -0.0970
 6033W        W19447  11.106   5.094   0.651 -0.3278 -0.1184  0.0172
 6034W        W19448  10.248  16.990   3.271  0.0524 -0.3392  0.1728
 6035W        W19449  13.279   5.271  12.817 -0.0420  0.3765 -0.2627
 6036W        W19450   2.903  12.796  14.580 -0.2141  0.3873  0.1271
 6037W        W19451   9.972   4.199   5.813  0.0336 -0.1815  0.0044
 6038W        W19452   8.431  15.186  11.303  0.0102  0.0123 -0.1807
 6039W        W19453   2.186   6.638   6.084 -0.0552  0.0494  0.1477
 6040W        W19454   2.579  11.335  12.596 -0.2883  0.0613 -0.1037
 6041W        W19455   9.819  16.301   3.724 -0.1202 -0.0428  0.4033
 6042W        W19456   0.448  10.462   5.196 -0.0617 -0.0656  0.4377
 6043W        W19457   7.518  16.027   4.381 -0.0591 -0.2101 -0.2324
 6044W        W19458   0.154  17.216   4.022  0.0319  0.0951 -0.3292
 6045W        W19459  11.866   6.875   5.695  0.2678 -0.0693 -0.1359
 6046W        W19460   8.004   4.217  10.672  0.5299 -0.1360  0.1612
 6047W        W19461  12.676   4.273  13.386  0.2870  0.2004 -0.0717
 6048W        W19462   0.997   3.158  12.729 -0.1172  0.1019 -0.0849
 6049W        W19463  16.494  11.856  14.177  0.0939 -0.0491 -0.0273
 6050W        W19464  12.927   1.786  14.180 -0.2815  0.0699  0.0622
 6051W        W19465  16.788   9.623  15.199 -0.3029  0.0387 -0.2689
 6052W        W19466  17.393   6.739  10.742 -0.1701  0.0346  0.3241
 6053W        W19467  15.088  15.285   5.009 -0.1397  0.4265 -0.1149
 6054W        W19468  11.389   6.992  13.226 -0.0240  0.2023  0.0678
 6055W        W19469   4.837  10.080   6.630 -0.0582  0.1162  0.1343
 6056W        W19470  16.477   6.116  13.847  0.1033  0.1192  0.0058
 6057W        W19471   3.439   6.128  15.922  0.3008  0.5115  0.1917
 6058W        W19472   4.320  12.899   3.828  0.1124  0.1141 -0.1829
 6059W        W19473  10.039   5.120  15.305 -0.3442 -0.0027  0.1061
 6060W        W19474  16.051   2.774   0.619 -0.1985  0.2125  0.0743
 6061W        W19475   7.467   2.549   3.908  0.1596 -0.0307 -0.0770
 6062W        W19476   1.480  10.510  10.878  0.1227 -0.0648  0.0649
 6063W        W19477  11.666  11.214   2.589 -0.0882 -0.0842 -0.1548
 6064W        W19478   8.279  18.118   0.934  0.1469 -0.1580 -0.2109
 6065W        W19479  16.687  17.647  13.023 -0.1745 -0.1786 -0.0105
 6066W        W19480  12.886  10.909   6.322  0.1812  0.2596  0.1888
 6067W        W19481  11.034  10.440  15.019 -0.2488  0.0288 -0.0722
 6068W        W19482   7.078  10.167   5.477 -0.1162 -0.0141  0.3009
 6069W        W19483  16.698   0.656  14.634 -0.0821  0.1571  0.3680
 6070W        W19484  15.957   7.920  14.571  0.0054 -0.1033  0.1129
 6071W        W19485  14.601   0.523  10.391  0.0061  0.0184  0.0916
 6072W        W19486   1.064   4.275  10.410 -0.0569  0.1517  0.0363
 6073W        W19487   5.738   2.176  10.788 -0.1173  0.3798 -0.0057
 6074W        W19488   1.419   1.678   2.627 -0.2467 -0.1033  0.3199
 6075W        W19489   9.923   9.922  13.029  0.0248 -0.2395  0.0986
 6076W        W19490   4.971  13.794  13.079 -0.0598  0.0234 -0.0200
 6077W        W19491  13.598   7.964   5.862  0.1376 -0.0584  0.0248
 6078W        W19492  12.248   2.024   0.247 -0.0556 -0.1770  0.0753
 6079W        W19493  17.779  13.954   1.583  0.0372 -0.0363 -0.3423
 6080W        W19494   6.830   6.548   6.336  0.1121 -0.0716  0.1556
 6081W        W19495   5.120   6.151   2.960  0.1197  0.2823  0.0636
 6082W        W19496  15.721  13.561   2.564  0.1391 -0.3487 -0.2702
 6083W        W19497  17.133   6.934   5.339 -0.2463 -0.0356  0.0016
 6084W        W19498   0.457   6.958  10.208 -0.2472 -0.0566  0.0471
 6085W        W19499  12.085   7.860  16.382 -0.1673 -0.0274 -0.2509
 6086W        W19500  16.495   1.429   4.570  0.2917 -0.0336  0.1132
 6087W        W19501   5.193   1.846   3.354  0.2559  0.1028  0.0014
 6088W        W19502   2.562  16.794   1.256  0.1388 -0.0475 -0.1222
 6089W        W19503   1.109  15.508   4.116  0.0731  0.0637  0.0344
 6090W        W19504   7.475   6.507  11.172  0.1784  0.1726 -0.1049
 6091W        W19505   6.453  13.641   2.937 -0.2050 -0.2741  0.2637
 6092W        W19506   3.543   9.005   0.518 -0.3081  0.0587  0.3772
 6093W        W19507   4.149   4.820   3.642  0.0080  0.1862  0.0089
 6094W        W19508   1.501  15.796  11.831 -0.2656  0.0548  0.1628
 6095W        W19509   9.373   9.403  13.875  0.0140  0.1911 -0.1240
 6096W        W19510   2.037   6.831   5.328  0.1897 -0.0650 -0.1063
 6097W        W19511  13.131   8.602   3.641 -0.0255  0.1653 -0.0911
 6098W        W19512  14.964   8.469  15.284  0.0879 -0.0255  0.0692
 6099W        W19513   8.690   6.164  12.254 -0.2132  0.2690 -0.1509
 6100W        W19514   9.853  13.598  12.988 -0.1543 -0.1365  0.1823
 6101W        W19515  11.160  12.893  14.505  0.0086 -0.1374  0.0936
 6102W        W19516   1.257   1.537   0.488 -0.0503  0.2384  0.0605
 6103W        W19517   1.097   0.259   4.405 -0.0498 -0.0643 -0.1461
 6104W        W19518  11.968  17.934   5.047  0.1604  0.3357 -0.0254
 6105W        W19519  10.970  10.215   3.208  0.1394 -0.2913  0.1685
 6106W        W19520   1.141  18.037   4.171  0.2730  0.2280 -0.0879
 6107W        W19521   6.706   7.763  13.656  0.0815  0.1061  0.0969
 6108W        W19522   1.513  11.787  11.326 -0.1102 -0.3178  0.0097
 6109W        W19523  14.295  18.242   3.231 -0.0688  0.1237 -0.0296
 6110W        W19524   7.735   8.636   1.402  0.0164 -0.0553 -0.1236
 6111W        W19525   4.601  10.875   6.401 -0.1491  0.1467  0.2481
 6112W        W19526   6.914   3.530  16.114 -0.3605  0.1813  0.2384
 6113W        W19527   0.734   7.295   0.094  0.0861 -0.1079 -0.0813
 6114W        W19528  13.998   4.129   1.253 -0.0348  0.0925 -0.0296
 6115W        W19529  10.768   2.570  10.982 -0.3091  0.1765  0.1705
 6116W        W19530  17.413   1.492   3.158  0.1007 -0.0433  0.2300
 6117W        W19531  16.181  15.104   1.638 -0.2400 -0.1228 -0.0184
 6118W        W19532   0.294   9.016  14.938 -0.2508  0.0016 -0.0695
 6119W        W19533   4.075  13.387   0.706 -0.0496 -0.0539  0.3432
 6120W        W19534   0.182  15.000   0.095 -0.2444  0.1900 -0.0247
 6121W        W19535  17.598   5.422  11.672  0.2965  0.0994 -0.3889
 6122W        W19536  17.418  11.241   4.223 -0.5629 -0.0829 -0.1952
 6123W        W19537   2.032   0.491   2.858 -0.2340  0.3355  0.1580
 6124W        W19538  16.540   9.636   6.404  0.1131 -0.0923  0.2990
 6125W        W19539  17.255  14.348  13.431 -0.2355 -0.1536 -0.0367
 6126W        W19540  10.082  11.185   0.279 -0.0444  0.1045  0.1998
 6127W        W19541   3.340   7.900  14.994  0.0492  0.0805  0.2163
 6128W        W19542  15.376   8.163  15.212 -0.1826  0.0782  0.0886
 6129W        W19543   8.076   9.569  15.127 -0.1518 -0.0342 -0.1537
 6130W        W19544   5.119   7.695   0.271  0.1191 -0.0668  0.0472
 6131W        W19545   6.981  14.096   0.315  0.3448  0.1822 -0.2699
 6132W        W19546  13.970   8.685   4.047 -0.0699  0.0146 -0.1284
 6133W        W19547  14.395  15.068   5.399  0.4764  0.0253 -0.0718
 6134W        W19548   4.746  10.246  16.354  0.1294  0.1402  0.1273
 6135W        W19549  11.683  11.420  13.343 -0.1470  0.2194 -0.1373
 6136W        W19550  10.795   6.420   3.125  0.1122 -0.3208 -0.3564
 6137W        W19551  14.186   7.966   1.466 -0.2369  0.1752  0.1478
 6138W        W19552   0.728  10.171  11.683  0.0162 -0.1947  0.2655
 6139W        W19553  17.386   3.988   3.146 -0.0424 -0.0498 -0.0662
 6140W        W19554   2.317  12.464   1.521 -0.3097  0.2577  0.2839
 6141W        W19555  13.197  15.378  10.613  0.1022  0.0255 -0.4375
 6142W        W19556  10.194   1.545   3.298 -0.3304  0.0460 -0.0514
 6143W        W19557  13.496  11.880  13.675 -0.1887 -0.0203  0.0584
 6144W        W19558   6.156   9.257  15.912  0.1482  0.1064 -0.0464
 6145W        W19559  15.954  12.348  12.702  0.1933  0.1045 -0.3444
 6146W        W19560  15.917   7.101  16.425  0.0382  0.1393 -0.1218
 6147W        W19561  15.756  13.549   6.420  0.1261 -0.0277  0.1292
 6148W        W19562  14.797   2.790   4.130  0.1668 -0.1329  0.3171
 6149W        W19563  15.833   0.187  10.923  0.0486 -0.0701 -0.3016
 6150W        W19564  16.076  12.516   6.206 -0.0284 -0.0276 -0.1076
 6151W        W19565  17.352   7.808  13.408 -0.0031  0.1206  0.1521
 6152W        W19566  12.127   0.180   0.946 -0.2137 -0.1624 -0.3754
 6153W        W19567   7.875   6.556  13.145  0.1535 -0.3105 -0.1102
 6154W        W19568   7.052  17.848  11.396  0.0480 -0.0995  0.1884
 6155W        W19569   8.895  12.332   6.113 -0.0339  0.1024 -0.2310
 6156W        W19570   6.698   0.266  13.276 -0.0359  0.1847 -0.2741
 6157W        W19571   6.056   3.318   0.577 -0.3256 -0.1698  0.1935
 6158W        W19572   0.667  18.016   2.273 -0.1206  0.2504  0.0547
 6159W        W19573   9.621   5.087   5.459 -0.0987 -0.4045  0.0633
 6160W        W19574   9.182  13.890   3.696  0.1600 -0.0198  0.1879
 6161W        W19575   9.001   9.672  11.468  0.0596  0.2492  0.0342
 6162W        W19576  17.875   4.784  14.684 -0.1208 -0.1678 -0.1901
 6163W        W19577   3.364  10.879   1.860  0.1756  0.1506 -0.0749
 6164W        W19578  15.298  15.573  13.225  0.1372 -0.1958  0.0018
 6165W        W19579   5.051  13.089  14.181  0.0653 -0.3060  0.4978
 6166W        W19580  15.097   2.428   0.459 -0.0792 -0.3165 -0.0136
 6167W        W19581   5.823   8.352  15.524  0.3706  0.3014 -0.0825
 6168W        W19582  12.162   1.168  12.963 -0.2315  0.2214 -0.3225
 6169W        W19583  13.332  12.548   2.800 -0.0396  0.0552  0.1244
 6170W        W19584   5.432  12.001   3.895  0.2170  0.0617  0.1732
 6171W        W19585   4.682   5.285  11.130  0.1177  0.2553  0.0222
 6172W        W19586   3.591  17.833   1.010  0.0900  0.1505 -0.1328
 6173W        W19587   6.143  14.045  14.390 -0.0319  0.1508  0.2828
 6174W        W19588  10.200   9.228   5.999 -0.3778  0.4525  0.4134
 6175W        W19589   5.047   3.232  10.750  0.2387 -0.1656 -0.1666
 6176W        W19590   1.880   4.056  15.914 -0.2074 -0.2890 -0.2469
 6177W        W19591  15.441  14.459  13.194 -0.0957  0.2116 -0.2083
 6178W        W19592   3.398   3.732  11.330  0.0801  0.1540  0.0628
 6179W        W19593   6.876  13.299   0.630 -0.1765  0.1540  0.2597
 6180W        W19594  12.964   1.677  12.762  0.2942 -0.0315 -0.1243
 6181W        W19595   8.289  11.701  14.241  0.4088  0.1181 -0.0933
 6182W        W19596   3.642   3.045   5.799 -0.2139 -0.0351  0.2327
 6183W        W19597   9.549   2.931  15.600 -0.1453  0.0676 -0.0478
 6184W        W19598  10.017  12.686   5.426 -0.0228  0.0461 -0.4027
 6185W        W19599   6.569  16.452  10.793  0.0696  0.2596  0.1718
 6186W        W19600  11.314  12.111  15.064  0.0045  0.1152  0.0225
 6187W        W19601  15.937   3.346   4.426 -0.1775  0.0189  0.2364
 6188W        W19602   5.519  14.518   0.133 -0.1490  0.4087 -0.1315
 6189W        W19603  17.257  15.509  15.696  0.0715 -0.1544  0.1805
 6190W        W19604   1.834   8.559  13.647  0.0282  0.5067 -0.1594
 6191W        W19605   9.819   0.050  14.527  0.0415 -0.3299  0.1813
 6192W        W19606  11.765   8.018  12.832  0.2794  0.1521 -0.0029
 6193W        W19607   4.043   5.957   1.927  0.0840 -0.0055  0.0780
 6194W        W19608   3.732  17.764  14.591  0.2404  0.1930 -0.1585
 6195W        W19609   5.417   8.024   4.283  0.1213  0.1211  0.0415
 6196W        W19610   7.767  14.892  16.121  0.0538 -0.3317 -0.2449
 6197W        W19611  18.010   1.861   2.511  0.0334  0.0958  0.1893
 6198W        W19612   5.209   7.310  13.812  0.5727 -0.2602  0.0776
 6199W        W19613  11.768  18.171  15.691  0.3445 -0.0948  0.2188
 6200W        W19614   5.129  11.071  13.133 -0.0990 -0.2315 -0.2705
 6201W        W19615   7.436   3.184   1.157  0.0597 -0.0658  0.0406
 6202W        W19616   4.335  11.936   1.629 -0.2937  0.0123  0.0656
 6203W        W19617  11.172   6.551   0.902  0.1272  0.1990  0.0528
 6204W        W19618   6.077  15.725   0.464 -0.1679  0.0425 -0.1366
 6205W        W19619  13.682  10.523  14.577 -0.1598 -0.1686 -0.0191
 6206W        W19620   4.388  10.144  10.158 -0.0128 -0.2207 -0.0594
 6207W        W19621   1.866  17.133   4.911 -0.0733  0.1556  0.2111
 6208W        W19622   5.017   5.451  16.320  0.1736  0.1473  0.0260
 6209W        W19623   3.838   9.441   1.192 -0.1353 -0.1488 -0.0933
 6210W        W19624   2.268  16.270  14.593 -0.0690  0.0756 -0.0494
 6211W        W19625  11.286   7.153  10.599 -0.0505  0.0924 -0.1028
 6212W        W19626   3.325   1.914  15.713 -0.0886 -0.1038  0.0113
 6213W        W19627  12.002   6.425   5.646 -0.0248  0.0138  0.0625
 6214W        W19628  17.088  17.364  13.200 -0.1159  0.2997  0.1750
 6215W        W19629  13.113   2.150  12.712 -0.2989  0.0443 -0.0380
 6216W        W19630  16.843  15.425  13.928 -0.4020  0.2617 -0.1226
 6217W        W19631   7.178   1.599   0.467 -0.0476 -0.4111 -0.1066
 6218W        W19632   4.073   2.204   2.434 -0.0428  0.0498 -0.1618
 6219W        W19633   4.226   0.967  14.209 -0.2526 -0.0536  0.2073
 6220W        W19634   6.265   5.022   5.112  0.1185 -0.1937  0.1328
 6221W        W19635   8.170   7.132   5.795 -0.2145  0.3748 -0.2128
 6222W        W19636  17.669   8.028   0.790  0.2091 -0.0244 -0.1288
 6223W        W19637   0.121   7.609   1.675 -0.0716  0.0056  0.3626
 6224W        W19638  10.695   8.298  12.986  0.2112  0.1326 -0.1458
 6225W        W19639  10.149   6.722   5.286  0.1992 -0.0621  0.0327
 6226W        W19640   1.317   5.677  13.707 -0.0505  0.3014  0.2234
 6227W        W19641   8.909  11.434  14.113 -0.3122  0.1253 -0.2761
 6228W        W19642  15.672   9.478   1.148 -0.0709  0.0847  0.1166
 6229W        W19643   6.200  12.412   1.597 -0.1956 -0.3476 -0.2426
 6230W        W19644   0.068   2.320   1.816  0.2665  0.0117  0.1399
 6231W        W19645   2.647  13.371   3.566  0.2098  0.0424  0.0773
 6232W        W19646   3.549  16.607   1.379 -0.2037  0.1500 -0.0415
 6233W        W19647   3.781   8.748   4.166 -0.0702  0.0148  0.1542
 6234W        W19648   2.162   4.710   1.224  0.0381 -0.0999  0.1601
 6235W        W19649   4.675  12.202   4.716  0.0319 -0.0596  0.1165
 6236W        W19650   2.467  12.710  14.298  0.0210  0.2254 -0.0923
 6237W        W19651  13.129   6.440  13.714 -0.0985 -0.1123 -0.2638
 6238W        W19652   7.328   6.285  15.842  0.1714 -0.0552  0.0006
 6239W        W19653  14.844  11.409  13.576 -0.0007  0.0074  0.1774
 6240W        W19654   9.463   9.595   6.545 -0.0409 -0.0793 -0.0138
 6241W        W19655  17.224   5.043  16.162  0.1237  0.2963 -0.1165
 6242W        W19656  10.214  13.315  10.889  0.0527 -0.0584  0.0518
 6243W        W19657  14.363  12.635  11.849 -0.1348  0.1496 -0.0685
 6244W        W19658   9.647   8.389   0.760 -0.0168 -0.0943  0.0542
 6245W        W19659   6.500  13.853   3.832  0.2859 -0.0084  0.0748
 6246W        W19660  18.051   1.481   3.525 -0.2788 -0.1712 -0.0717
 6247W        W19661  15.467   2.514  11.410  0.0880 -0.1015  0.3931
 6248W        W19662   7.674  10.849  14.682 -0.0389 -0.0848 -0.1715
 6249W        W19663   4.352   0.009   0.536  0.0843  0.1889 -0.1156
 6250W        W19664  16.388  11.980   3.599 -0.2347 -0.2157  0.0141
 6251W        W19665  11.078   3.658  16.459  0.3180  0.0869  0.1992
 6252W        W19666  12.932  16.697   2.326 -0.3393  0.2902  0.0397
 6253W        W19667   7.426   4.062   6.004  0.1983  0.3866  0.1761
 6254W        W19668  15.875  12.120   6.445  0.2215 -0.2797  0.1365
 6255W        W19669   0.638  16.381   3.936  0.2874  0.3222 -0.3894
 6256W        W19670  14.530  11.405  10.642  0.0619 -0.1501 -0.0925
 6257W        W19671   3.242  13.433  10.609 -0.2057 -0.0229 -0.1407
 6258W        W19672  11.587   4.231   4.149 -0.3273  0.0136 -0.0286
 6259W        W19673   5.950   6.411   0.179 -0.1020 -0.2099  0.0706
 6260W        W19674   4.174   0.257   0.132  0.0539  0.2615 -0.0847
 6261W        W19675  15.994   3.735  12.783  0.1478  0.1063  0.2873
 6262W        W19676   3.966  10.916   1.718 -0.2082 -0.1820 -0.1432
 6263W        W19677  14.290  10.234  15.092 -0.0211 -0.2061 -0.0574
 6264W        W19678  17.290  18.014   4.470 -0.3423 -0.4348 -0.0966
 6265W        W19679  10.709   9.984   0.726 -0.1991 -0.1312  0.0167
 6266W        W19680  13.433   9.153  14.422 -0.1846  0.2106  0.0945
 6267W        W19681   2.746   9.545  15.278 -0.2433  0.1212  0.0416
 6268W        W19682  18.189   2.619   0.219 -0.2728  0.2036 -0.3191
 6269W        W19683   8.127  15.948   3.093 -0.0129  0.0971 -0.0725
 6270W        W19684   6.337  15.574  15.614  0.1290 -0.3031 -0.3251
 6271W        W19685   7.062  17.337  12.111 -0.1792 -0.2392  0.1508
 6272W        W19686   5.314  14.375  10.513  0.2116  0.1658 -0.1921
 6273W        W19687   5.662   9.886   4.689 -0.1046  0.0799  0.0610
 6274W        W19688  10.865  14.314   0.810  0.0635 -0.1526  0.0268
 6275W        W19689   5.970   9.115  12.127 -0.0668 -0.2331 -0.0761
 6276W        W19690  11.816   4.051   3.492  0.1967 -0.2226  0.0418
 6277W        W19691  17.251  12.600  12.839  0.0304 -0.4040 -0.3353
 6278W        W19692  10.570  11.690  12.768  0.0298 -0.1784  0.1269
 6279W        W19693   5.879   3.202  15.003 -0.1856 -0.1992  0.3175
 6280W        W19694   0.657   4.463   4.499  0.3436  0.0602 -0.1591
 6281W        W19695   9.112   6.959  14.393  0.1426  0.2945  0.1973
 6282W        W19696  12.789   3.863  14.686  0.2024 -0.0802 -0.3354
 6283W        W19697   2.272  14.251   5.143  0.1312 -0.0585  0.1542
 6284W        W19698   9.927  10.450  14.000  0.1555 -0.0150 -0.2148
 6285W        W19699   2.336  15.084   5.594  0.0228 -0.0547  0.4144
 6286W        W19700  12.536   4.982  16.442  0.0535  0.0415 -0.2195
 6287W        W19701   8.812   9.514   2.180 -0.3302 -0.1138  0.0975
 6288W        W19702   1.852   5.818  13.820  0.0899 -0.1118 -0.0279
 6289W        W19703  11.095   1.446  11.501  0.0699 -0.1007  0.0760
 6290W        W19704   9.748   8.647   5.293  0.0842 -0.1048 -0.4469
 6291W        W19705   3.273   6.492  11.261  0.1015 -0.2299  0.2095
 6292W        W19706  13.488  14.441   1.707  0.0062 -0.2539  0.2454
 6293W        W19707   7.183   2.743   1.263 -0.0176 -0.0816  0.0850
 6294W        W19708  10.712  12.473   3.555 -0.0584 -0.1552  0.1442
 6295W        W19709  13.533   1.316  12.166  0.0956 -0.1130 -0.0135
 6296W        W19710  14.010   7.298   1.945  0.0940  0.1347 -0.1412
 6297W        W19711  12.670   8.577   0.784  0.1344  0.0171  0.1791
 6298W        W19712  17.500   2.593   3.920  0.0506  0.0608  0.1774
 6299W        W19713   4.483   7.212   0.911 -0.2632 -0.0821 -0.2421
 6300W        W19714   4.758   9.105  15.078  0.1906  0.0730 -0.1893
 6301W        W19715  15.545  12.055   0.049 -0.2068 -0.6271  0.2945
 6302W        W19716  17.765  14.109  11.416 -0.0980 -0.0218 -0.2509
 6303W        W19717   5.059  16.163   5.305 -0.1301  0.1723 -0.0329
 6304W        W19718  13.562   3.283  11.291  0.0042  0.0329 -0.0136
 6305W        W19719   5.220   1.299   6.032 -0.1503 -0.1597  0.2012
 6306W        W19720   6.949   9.256   0.940  0.0810 -0.1346  0.2929
 6307W        W19721   6.221  14.328  16.218  0.1297 -0.1000  0.1004
 6308W        W19722   8.324   8.418   4.544 -0.2330  0.0370 -0.1594
 6309W        W19723   1.370  11.109  15.008 -0.2497  0.0477 -0.1491
 6310W        W19724   5.394   7.875  16.301  0.2222  0.2029 -0.0788
 6311W        W19725  13.054   7.544  14.672 -0.0589 -0.3085  0.2983
 6312W        W19726   7.918   7.609  16.416 -0.0877  0.0576  0.1666
 6313W        W19727   3.487   7.555  16.225  0.0245  0.1730 -0.0502
 6314W        W19728   8.392  14.274   2.053  0.0293  0.1991 -0.0247
 6315W        W19729   4.087   9.145  13.978 -0.3053  0.0338 -0.0034
 6316W        W19730   9.576  10.266  10.500  0.0927  0.0739  0.2407
 6317W        W19731  11.855   8.593   2.796 -0.3080  0.0377  0.0069
 6318W        W19732  17.566  12.709   5.514  0.1941  0.2459  0.0548
 6319W        W19733  15.527  11.647  13.686 -0.0386 -0.3030  0.1054
 6320W        W19734  13.001   8.972   0.786 -0.1631 -0.2059  0.0897
 6321W        W19735  12.192   4.431  15.899 -0.3688  0.0948 -0.2143
 6322W        W19736   7.409  14.117   1.522  0.3379  0.0828 -0.0744
 6323W        W19737  11.282   2.119   4.314 -0.2791 -0.2705  0.0071
 6324W        W19738  12.682  14.041  10.003 -0.1735  0.3246  0.3327
 6325W        W19739  17.906   7.739   0.159 -0.0435  0.1430  0.1328
 6326W        W19740   0.622  11.192   5.354 -0.1019 -0.2212  0.0315
 6327W        W19741  15.452   2.439  16.101 -0.2653 -0.0951 -0.2736
 6328W        W19742   6.700   3.748   1.674 -0.2945 -0.2004  0.1802
 6329W        W19743   8.586   9.023   2.118 -0.0349  0.2503  0.0717
 6330W        W19744   6.810   4.197  11.179  0.1135 -0.0129  0.0535
 6331W        W19745   2.293  11.154  13.881  0.0588 -0.3329 -0.0303
 6332W        W19746  12.342   5.128  10.580  0.1720  0.0084 -0.1784
 6333W        W19747   0.559  12.834  13.022  0.1127  0.1183  0.1527
 6334W        W19748  16.452  16.345   5.261 -0.0987  0.1747 -0.1372
 6335W        W19749  15.290   7.451   2.820  0.4497  0.1279 -0.2865
 6336W        W19750   3.237   8.232   4.741  0.0261  0.1803 -0.0826
 6337W        W19751   4.880   1.238   5.155  0.2056 -0.0883  0.1061
 6338W        W19752   2.813   0.561   0.253 -0.3045  0.3242  0.3603
 6339W        W19753  12.298   6.707   4.060  0.2566 -0.2498 -0.0065
 6340W        W19754   2.583  11.051  14.841 -0.1629  0.4486  0.2385
 6341W        W19755   8.990  17.449  16.234 -0.1137 -0.1306 -0.1313
 6342W        W19756  17.762  16.313  15.262  0.2023  0.0212 -0.2461
 6343W        W19757   9.152   4.398  13.769 -0.2073 -0.3136 -0.0162
 6344W        W19758  11.670   7.949  10.926  0.2485  0.1394 -0.2556
 6345W        W19759   3.281   7.915   3.695  0.3540 -0.0903  0.0152
 6346W        W19760   4.806   1.826  13.773  0.2917  0.1401 -0.0330
 6347W        W19761   6.271  15.212  12.499 -0.0468  0.1803  0.0345
 6348W        W19762   2.102   6.425   3.625  0.0522  0.0323  0.1635
 6349W        W19763  16.303   9.198   6.263 -0.0906  0.3727 -0.0063
 6350W        W19764   2.519   0.481  13.570 -0.1656  0.0844  0.0790
 6351W        W19765  14.196  14.306   2.505  0.2013  0.0521  0.0894
 6352W        W19766  11.059   2.314   2.644  0.0658  0.2397  0.2098
 6353W        W19767   0.914  13.509  11.965  0.1588  0.0388  0.0133
 6354W        W19768  11.512  16.253   5.273 -0.0657 -0.2531 -0.0238
 6355W        W19769  16.092  18.148  16.087 -0.4068 -0.2871 -0.0882
 6356W        W19770   1.523   5.188  14.323  0.2533  0.1832 -0.4870
 6357W        W19771   2.880  16.425   3.529 -0.1901 -0.0340 -0.1863
 6358W        W19772  17.632  14.631  14.730 -0.0009  0.0603 -0.1242
 6359W        W19773  12.082   5.497  14.240 -0.2381 -0.4025  0.1532
 6360W        W19774   0.577   8.234  14.891  0.0136  0.0779  0.0640
 6361W        W19775  17.890  14.113  14.591 -0.0437 -0.2822 -0.1534
 6362W        W19776   3.884  11.909   1.824 -0.1546 -0.0527 -0.1847
 6363W        W19777   7.608   4.165  11.106 -0.3582 -0.1707  0.2051
 6364W        W19778   7.405  11.653   2.583  0.1001  0.1247 -0.2714
 6365W        W19779   0.408  17.162   1.732  0.2235  0.0524 -0.0482
 6366W        W19780  17.548  16.242  15.731 -0.0138  0.0547 -0.0692
 6367W        W19781   6.808   1.387  12.009 -0.1501 -0.0036 -0.1035
 6368W        W19782  17.733  11.851  14.483 -0.0162 -0.0750  0.0367
 6369W        W19783   3.180  13.615  14.687 -0.4022 -0.1140 -0.2773
 6370W        W19784   8.579   4.975  12.879  0.0518 -0.0796 -0.0209
 6371W        W19785   2.102   6.091  14.365 -0.1338 -0.3897 -0.0857
 6372W        W19786  15.974  14.877   4.811  0.2423  0.2366  0.1688
 6373W        W19787   8.675   4.148   9.926  0.1876  0.0224  0.1587
 6374W        W19788   3.764   6.492   1.473 -0.1917 -0.1356 -0.1668
 6375W        W19789   5.054   2.025   2.160 -0.1094 -0.0539 -0.1766
 6376W        W19790   2.697   9.952  11.013 -0.0086 -0.2807  0.0329
 6377W        W19791  12.475   5.004  13.963 -0.1135  0.1328  0.1183
 6378W        W19792  14.035   5.864  12.725  0.0735 -0.1362  0.3525
 6379W        W19793   8.372  14.351   0.428  0.2037  0.0857 -0.2733
 6380W        W19794   7.204   5.932  14.402 -0.1382  0.1368 -0.2163
 6381W        W19795   8.542  14.722   4.354  0.1406 -0.0850  0.0539
 6382W        W19796  10.361  14.356   0.581  0.0735  0.1027  0.1435
 6383W        W19797   1.016   3.494   5.499 -0.0710  0.0022 -0.1021
 6384W        W19798   3.719   3.847  16.413  0.2620  0.0278 -0.1504
 6385W        W19799  11.063   3.893   0.385 -0.1894 -0.0407  0.0791
 6386W        W19800  13.041   0.939  15.213  0.1228  0.2831 -0.0814
 6387W        W19801   2.405   3.196   5.771 -0.1579 -0.1802  0.0757
 6388W        W19802   7.871  17.921  12.189 -0.0613  0.0576  0.0838
 6389W        W19803   2.035   2.930  11.145  0.0461 -0.0308 -0.0174
 6390W        W19804  11.519  16.910  12.383 -0.0992 -0.1556  0.0330
 6391W        W19805  10.224   6.235  14.713  0.2041  0.1019  0.0811
 6392W        W19806  17.109   3.984   5.099  0.1004  0.0840  0.0962
 6393W        W19807   9.623  15.856  16.131 -0.0139  0.1261 -0.0308
 6394W        W19808  13.844   1.119   5.578 -0.1379  0.2111  0.1466
 6395W        W19809   6.917   9.714  14.365  0.0346 -0.1548  0.0067
 6396W        W19810  13.216  12.300   1.131  0.0289  0.1562 -0.2229
 6397W        W19811  15.790   0.715   4.987 -0.1172  0.0377  0.0573
 6398W        W19812   1.167  17.576  14.163  0.0537  0.1095  0.0488
 6399W        W19813  13.883  11.438  13.572  0.1653  0.0659  0.2245
 6400W        W19814   0.649  13.654  11.478  0.3560 -0.0525  0.0450
 6401W        W19815   0.562   8.529   0.229  0.2234 -0.0156  0.1208
 6402W        W19816   8.594  12.251   0.932 -0.2924  0.4029 -0.1777
 6403W        W19817  16.672  13.781   3.232 -0.0178  0.1772  0.1923
 6404W        W19818  13.904  13.490  16.260  0.0038 -0.2338 -0.0179
 6405W        W19819   8.680   0.353  14.248  0.3340 -0.1277  0.2012
 6406W        W19820   2.723  14.254  13.985 -0.1273  0.1691 -0.1075
 6407W        W19821   8.876   6.147  10.163 -0.0810  0.1010  0.2275
 6408W        W19822   4.192   1.430   4.132  0.1008  0.0575 -0.2922
 6409W        W19823  15.115   8.481  13.161 -0.0495 -0.0113  0.1450
 6410W        W19824  12.442  14.551   2.666  0.3528  0.3491  0.3887
 6411W        W19825   7.185  14.835   9.634 -0.0189  0.2596 -0.2968
 6412W        W19826  14.148   1.266   5.058  0.2520  0.2085 -0.0706
 6413W        W19827   3.995  17.242  16.024 -0.0523  0.2421 -0.1931
 6414W        W19828   4.109   6.789   1.918 -0.2496 -0.1881  0.0739
 6415W        W19829   5.828  18.172   0.067 -0.1194  0.0088  0.3753
 6416W        W19830   4.601  17.882   5.273  0.0741 -0.0074 -0.1582
 6417W        W19831   6.038   8.982   1.769 -0.2326  0.1388  0.1873
 6418W        W19832   0.442   0.094   1.917 -0.2251  0.0004 -0.0629
 6419W        W19833   5.305  17.918  12.763 -0.1088 -0.2916  0.0670
 6420W        W19834  12.238   6.068   4.163  0.1937  0.0710 -0.0171
 6421W        W19835   2.780  13.828   0.612  0.1855 -0.0167 -0.1001
 6422W        W19836   5.734   8.449   5.112  0.2240  0.1404 -0.1977
 6423W        W19837   8.424  16.628  14.001  0.0427 -0.2437 -0.0060
 6424W        W19838   6.264   6.126   4.024 -0.3401 -0.0799  0.2816
 6425W        W19839  17.501   6.819   4.394  0.1062  0.1896  0.3907
 6426W        W19840   3.345  11.098   6.262 -0.0909  0.0400 -0.3145
 6427W        W19841  14.430   7.945  11.267  0.3922 -0.0147 -0.1600
 6428W        W19842   7.051  15.872  14.722  0.2699 -0.2216 -0.2121
 6429W        W19843  12.362  18.039   0.566  0.0574  0.0241 -0.1440
 6430W        W19844  16.057  10.083   1.218 -0.2507 -0.2523  0.0739
 6431W        W19845   3.497   7.144  13.542 -0.2071 -0.0512 -0.1041
 6432W        W19846   2.402  15.231  16.064 -0.0620  0.1454 -0.1300
 6433W        W19847   2.203   5.977   1.790 -0.2070 -0.1840 -0.0400
 6434W        W19848  11.469  15.389   4.221 -0.2033 -0.1345  0.2711
 6435W        W19849   1.038   3.579  16.209  0.1049 -0.1040 -0.1359
 6436W        W19850   6.923   7.366  15.018  0.0821 -0.1955  0.0994
 6437W        W19851   7.273   4.133   0.803  0.1585  0.2819 -0.2445
 6438W        W19852  10.062   1.697   4.338  0.0157  0.0822 -0.0600
 6439W        W19853  15.892   3.570   3.747  0.2625 -0.2028  0.2466
 6440W        W19854  14.053  14.181  11.655  0.0710 -0.0592 -0.2523
 6441W        W19855   1.118   7.005  13.512  0.0971  0.3117 -0.1879
 6442W        W19856   8.719  13.474  14.868 -0.1240  0.3028 -0.0637
 6443W        W19857  10.620  16.414  14.325  0.0478 -0.1488 -0.1111
 6444W        W19858   6.916   7.864  11.788  0.1206  0.0822  0.2169
 6445W        W19859   6.645   2.922   4.046  0.2324 -0.3865 -0.0527
 6446W        W19860  12.296   4.768   1.461  0.0171  0.1571 -0.0371
 6447W        W19861  18.254  15.495   3.541  0.0950 -0.0102  0.0203
 6448W        W19862   3.776  12.704   2.469 -0.0885  0.2972  0.1202
 6449W        W19863   6.086  14.973   4.500  0.1058  0.1640 -0.0181
 6450W        W19864  14.946   2.380  12.920 -0.0827 -0.0543  0.0512
 6451W        W19865   5.089   5.305  11.730  0.0461 -0.0064 -0.1496
 6452W        W19866   3.110   3.106  15.214  0.3580  0.0772 -0.1607
 6453W        W19867  10.400  16.222  16.164 -0.4661 -0.2625  0.4059
 6454W        W19868  12.473  11.501   3.422  0.1251 -0.2473  0.2357
 6455W        W19869  11.704   0.149   4.154 -0.0180 -0.4721  0.1132
 6456W        W19870  16.578  13.084  11.769 -0.1766 -0.3681 -0.1941
 6457W        W19871   9.626   2.995   4.342 -0.0404  0.2224 -0.1450
 6458W        W19872   2.535   5.984  11.672  0.1677 -0.0872  0.0535
 6459W        W19873  13.105   8.433   0.653  0.0038 -0.1828 -0.0404
 6460W        W19874   9.498  13.695   0.296  0.0789 -0.1350 -0.0190
 6461W        W19875   3.529   7.995  13.343  0.2284 -0.1650  0.3476
 6462W        W19876  15.195  16.249   6.313  0.0914  0.0547  0.3793
 6463W        W19877   0.319   8.714  14.155 -0.4533 -0.0700 -0.1664
 6464W        W19878   4.937  15.081  11.141 -0.1542 -0.3699  0.1556
 6465W        W19879  15.244   5.250  13.170 -0.3086  0.0381 -0.0264
 6466W        W19880   7.885  14.371   3.787 -0.0984  0.1813  0.2647
 6467W        W19881   3.606  13.502   0.882 -0.3189  0.2999 -0.0849
 6468W        W19882  10.791   8.285  15.919  0.0011 -0.1766  0.0266
 6469W        W19883  10.796  12.672   0.862 -0.1020  0.1235  0.0508
 6470W        W19884  10.869   8.585   3.275 -0.2394 -0.0397  0.0651
 6471W        W19885  13.908  17.471  14.121  0.2593 -0.2420 -0.2031
 6472W        W19886  13.936   9.016   2.423 -0.2436 -0.0821  0.0103
 6473W        W19887   5.254   1.174   1.116 -0.2705 -0.1089  0.2402
 6474W        W19888   0.735   4.860   5.278  0.0025 -0.0879  0.1359
 6475W        W19889  18.228  12.984   1.471  0.1608  0.0244  0.0551
 6476W        W19890   3.751  12.457  14.979 -0.1929 -0.0365 -0.1062
 6477W        W19891  11.554   4.627   0.692  0.3679  0.1567  0.3407
 6478W        W19892  13.113   1.217  12.951 -0.0775  0.0759 -0.3277
 6479W        W19893  11.035   4.960   2.873 -0.0370 -0.2192 -0.2739
 6480W        W19894  13.219   8.218  13.253 -0.1374 -0.1580 -0.4331
 6481W        W19895   7.702  11.630  10.685  0.4463  0.1152 -0.0074
 6482W        W19896   6.390   8.689  14.483  0.1092 -0.1138 -0.0596
 6483W        W19897  12.192   5.227  12.659 -0.1589  0.1490 -0.0779
 6484W        W19898   2.617   8.374  13.922  0.0977  0.0173 -0.0058
 6485W        W19899  16.647  13.182  15.431  0.1268 -0.0974 -0.0016
 6486W        W19900  17.723  18.148   2.264 -0.2243 -0.0242 -0.3044
 6487W        W19901  17.463   7.175  10.948  0.1083 -0.4197  0.1109
 6488W        W19902  15.540  16.058  12.620 -0.0545  0.1378 -0.0007
 6489W        W19903  11.109   4.651  11.784 -0.0763 -0.1933  0.1103
 6490W        W19904   7.050   8.713  16.194 -0.0190 -0.1564  0.0683
 6491W        W19905  12.085   4.643  16.353  0.3809 -0.1263  0.3401
 6492W        W19906   2.721   3.018   3.082  0.3294  0.2338  0.0555
 6493W        W19907   0.942  16.122  14.756 -0.0630  0.0446 -0.3009
 6494W        W19908   2.014   0.175  16.020  0.1858 -0.2179 -0.1783
 6495W        W19909   3.376   2.580  13.913  0.0463  0.0926 -0.2118
 6496W        W19910  12.725  17.731   2.057 -0.0865  0.1400 -0.1158
 6497W        W19911   1.600   2.137   2.960 -0.2911 -0.1856 -0.1147
 6498W        W19912  10.393  11.966  15.280  0.0540 -0.0291 -0.1004
 6499W        W19913   5.561   6.404  12.395 -0.2301  0.2653 -0.1562
 6500W        W19914  10.601   9.142  15.702 -0.1624 -0.0277  0.1616
 6501W        W19915   4.672  10.654  16.128  0.1725 -0.2649 -0.1223
 6502W        W19916   3.915   3.148  12.620 -0.1878 -0.1528  0.1576
 6503W        W19917  12.018   1.713  11.984  0.0192  0.0680 -0.5038
 6504W        W19918   0.636  11.856  13.282  0.2018  0.0988  0.2026
 6505W        W19919   4.697   9.117  11.859 -0.4060  0.0085  0.2339
 6506W        W19920  10.581   2.931  12.189 -0.1016 -0.1599 -0.0581
 6507W        W19921  16.201  11.397   0.033  0.0666  0.0414  0.4670
 6508W        W19922   5.438  12.055  16.094 -0.0818 -0.0336 -0.1145
 6509W        W19923  10.702  16.698  13.381  0.2050  0.0520 -0.2359
 6510W        W19924   1.987  13.315   1.548 -0.2586  0.3284 -0.3376
 6511W        W19925  12.423  16.594   0.706 -0.0675  0.2257 -0.2942
 6512W        W19926  15.105   4.033   4.654 -0.1260  0.0407 -0.0933
 6513W        W19927  14.385   1.703   5.058 -0.1185  0.0517 -0.2395
 6514W        W19928   1.995   8.463  14.980 -0.1595 -0.0919 -0.1712
 6515W        W19929   7.023   1.412  14.674  0.0026  0.0092 -0.0640
 6516W        W19930   7.517   4.983   2.977  0.4198 -0.0624 -0.0271
 6517W        W19931  15.487   9.551   0.593 -0.3169  0.0790  0.2097
 6518W        W19932   1.159   3.701   2.765  0.0578 -0.3178 -0.0533
 6519W        W19933   0.567  14.595  10.699  0.1592 -0.2637  0.1452
 6520W        W19934  10.899   1.508  12.442  0.1325  0.1427 -0.0587
 6521W        W19935  14.328  10.090  16.153  0.0266 -0.0182 -0.0447
 6522W        W19936  15.157   9.442  13.244  0.0481  0.0161 -0.0488
 6523W        W19937   3.836   0.062  12.273 -0.2482  0.0463  0.2762
 6524W        W19938  11.046   8.486  16.340  0.2117 -0.0995 -0.0114
 6525W        W19939  11.269   9.966   0.611 -0.0136  0.0223  0.0660
 6526W        W19940   5.374  12.516  11.452  0.1377  0.1734  0.3296
 6527W        W19941   7.924   8.065  13.707  0.0951 -0.0913  0.4125
 6528W        W19942   5.914  15.682   5.641 -0.2755 -0.3558 -0.0531
 6529W        W19943  13.359   8.005   2.890  0.1344 -0.2181 -0.1891
 6530W        W19944  15.721   6.711   3.211 -0.1323 -0.2041 -0.1628
 6531W        W19945  16.554   3.843  15.250  0.0541  0.0018  0.0569
 6532W        W19946  16.890  13.187  12.424 -0.3031  0.0407  0.0488
 6533W        W19947   9.121   0.624  13.601 -0.3236 -0.1989  0.6992
 6534W        W19948   9.379   3.948   3.385 -0.0903 -0.1265 -0.2145
 6535W        W19949  15.915   9.497  16.294 -0.0431 -0.2972 -0.1822
 6536W        W19950  15.125   8.464   3.632 -0.2349 -0.2594 -0.1258
 6537W        W19951  12.180  15.531  12.167 -0.1352  0.2507  0.0096
 6538W        W19952   2.476  17.815   4.984 -0.0921  0.1565  0.0876
 6539W        W19953   6.718   1.426  15.736  0.0316 -0.1073  0.1384
 6540W        W19954  18.166  15.537  14.777  0.1877 -0.0282  0.0327
 6541W        W19955   9.592  13.956  10.554 -0.0342 -0.1619 -0.0135
 6542W        W19956  10.534   8.764   3.609  0.0345 -0.1992 -0.0362
 6543W        W19957   2.607  12.530   5.850 -0.2172  0.1474 -0.3344
 6544W        W19958  16.207   6.944  10.138  0.0690  0.2546 -0.0212
 6545W        W19959  11.802   2.986   0.349 -0.1011  0.4097  0.1968
 6546W        W19960  14.616   7.389   4.395 -0.0760  0.3039 -0.2432
 6547W        W19961   6.016  13.181  10.853 -0.0494  0.0337  0.1002
 6548W        W19962   7.928   1.118  10.809  0.1476 -0.1226  0.1240
 6549W        W19963  14.953   8.336   1.868 -0.0505 -0.1859 -0.1639
 6550W        W19964   0.095  11.880  13.414 -0.4240  0.0183  0.1600
 6551W        W19965   4.890   4.225  10.847  0.2845  0.1791  0.0111
 6552W        W19966  15.921   3.856  16.107 -0.0901 -0.1407 -0.0387
 6553W        W19967  16.926   5.947   4.893 -0.2124  0.0757 -0.1445
 6554W        W19968  15.470   7.359  10.113 -0.0694  0.1526 -0.0337
 6555W        W19969   3.460   7.292   3.724  0.0086  0.1333 -0.1087
 6556W        W19970   6.130   5.112  14.683  0.2033 -0.0430 -0.0202
 6557W        W19971   7.404  10.717  15.150 -0.0000 -0.3004  0.1366
 6558W        W19972  13.107   2.727   4.080  0.1207 -0.0685  0.0503
 6559W        W19973   1.561   6.878  12.414  0.0697  0.2074 -0.0304
 6560W        W19974   2.077  11.603  10.760  0.0954 -0.1930  0.0034
 6561W        W19975  10.707  15.905  13.520 -0.1427 -0.2435  0.1264
 6562W        W19976   8.106   1.698  15.759 -0.2919  0.1185  0.0717
 6563W        W19977   2.719   3.503   5.418  0.2006 -0.0607 -0.0275
 6564W        W19978  17.240   6.286   3.737  0.0028  0.1831 -0.0054
 6565W        W19979   8.306   5.821   4.954  0.0084 -0.0404 -0.1239
 6566W        W19980   9.622   9.057   2.160  0.3535 -0.0623 -0.2883
 6567W        W19981   2.659   5.200   4.033 -0.3011  0.1254 -0.2589
 6568W        W19982   9.084  17.698   2.908  0.1665 -0.0088  0.2509
 6569W        W19983  13.113  12.705  13.992 -0.1941  0.1426 -0.4062
 6570W        W19984  15.097  10.721  14.966 -0.3487  0.2896  0.2946
 6571W        W19985  11.326   7.642  10.776  0.0081  0.0717 -0.2174
 6572W        W19986   5.560  18.257   0.873 -0.0212  0.2963  0.0172
 6573W        W19987   5.063  13.622  13.550  0.0186 -0.3252 -0.3016
 6574W        W19988   9.342   0.984  14.681 -0.1232  0.1731  0.0319
 6575W        W19989  17.827  13.490  12.377 -0.1188 -0.0055 -0.1801
 6576W        W19990  17.479  12.788  14.749 -0.0377 -0.0102 -0.2136
 6577W        W19991  12.957   0.275   4.237  0.0430  0.0161 -0.2457
 6578W        W19992  18.087   1.569  12.791  0.1406  0.2269 -0.0587
 6579W        W19993   2.602   3.950  12.673 -0.2277  0.1411 -0.1174
 6580W        W19994   6.439  14.825  11.335 -0.2223  0.2392  0.0623
 6581W        W19995  17.102   5.120  11.459  0.5034  0.1632 -0.1012
 6582W        W19996  13.172   2.923   1.524  0.2219 -0.0889 -0.3032
 6583W        W19997   6.990   5.826   0.147 -0.1008 -0.0867  0.0803
 6584W        W19998   4.953   7.332  14.756  0.1820 -0.0681  0.0536
 6585W        W19999   0.734  11.663   1.582 -0.3394 -0.0093 -0.0147
 6586W        W20000   6.089  13.232  14.352  0.0119  0.0920  0.1481
 6587W        W20001  11.382   4.112  13.704  0.0323 -0.2119  0.3665
 6588W        W20002  13.350   2.062  10.647 -0.0849  0.1764  0.3686
 6589W        W20003   7.275   3.850  15.137  0.1746 -0.1305 -0.1363
 6590W        W20004   7.307   6.472   4.631  0.1495  0.2444  0.1406
 6591W        W20005  11.079  14.728   4.381  0.0087  0.1308 -0.0660
 6592W        W20006   2.614  18.094   1.482 -0.2810 -0.2970  0.0485
 6593W        W20007  11.404   9.853   4.329 -0.1407 -0.2367 -0.1292
 6594W        W20008  17.571   5.869  11.013  0.0093 -0.3335  0.2153
 6595W        W20009  12.573   1.503  12.055 -0.0496 -0.2390  0.4794
 6596W        W20010   2.222   3.054  14.222  0.0273 -0.1532  0.0023
 6597W        W20011   4.105   7.424   3.110  0.0229  0.2244  0.0176
 6598W        W20012   2.804  13.688   3.262 -0.1799 -0.0008 -0.0524
 6599W        W20013  12.722   8.464   3.354 -0.2090  0.0808 -0.2149
 6600W        W20014   4.147  14.761   1.443 -0.1984 -0.2644 -0.2153
 6601W        W20015  12.707  15.349  12.643 -0.4101 -0.1653 -0.0812
 6602W        W20016  15.402   0.900  15.635  0.1725 -0.0266  0.2519
 6603W        W20017  12.933  15.333   0.355  0.2604 -0.1101  0.2637
 6604W        W20018   3.732   5.886   2.323 -0.2483  0.3508 -0.0930
 6605W        W20019  11.858   2.288  14.446  0.0805  0.2453 -0.0967
 6606W        W20020   7.470  11.702  14.490  0.0762  0.3745 -0.0218
 6607W        W20021   3.673   4.668   2.918 -0.1582 -0.1772 -0.3274
 6608W        W20022   3.655  13.899  15.890 -0.1428 -0.0823  0.0247
 6609W        W20023  18.193   9.652  11.169 -0.1919  0.0478 -0.4051
 6610W        W20024  11.652   6.002   6.265 -0.1175 -0.0443 -0.0646
 6611W        W20025   3.022   3.557  15.009 -0.0722  0.2052 -0.0844
 6612W        W20026   1.795  15.654  11.475  0.3660  0.0219 -0.1433
 6613W        W20027  12.503   9.650  11.305  0.2933  0.3586 -0.1622
 6614W        W20028   6.586   4.957  15.534  0.0242  0.3350  0.2661
 6615W        W20029  12.348  13.854   1.773 -0.0405  0.1052 -0.0735
 6616W        W20030  14.043  17.615   1.244 -0.0783 -0.0280 -0.0457
 6617W        W20031  16.041   7.027   2.614 -0.0400  0.1950 -0.4358
 6618W        W20032   5.785  12.275   4.117 -0.2806  0.0825 -0.1661
 6619W        W20033   8.640   2.439  14.531  0.0774 -0.0336 -0.2488
 6620W        W20034  15.713  11.156   4.285  0.0457  0.1300 -0.1162
 6621W        W20035   5.804   3.182   5.116 -0.0352 -0.1228 -0.0557
 6622W        W20036   1.858   2.988  12.525 -0.0194 -0.1221  0.0202
 6623W        W20037  18.038  16.423  14.405 -0.2003 -0.1171 -0.1820
 6624W        W20038  13.075  15.734  15.144  0.2977 -0.0388  0.0462
 6625W        W20039  13.880   4.050   2.719 -0.2656 -0.2254 -0.0838
 6626W        W20040  14.978  14.890   0.295  0.0616 -0.1572  0.3077
 6627W        W20041   8.899  14.983  15.659  0.0520 -0.0351  0.0580
 6628W        W20042   8.276   3.882  16.139  0.3169 -0.3435 -0.0149
 6629W        W20043   8.287  12.951  13.069  0.0678  0.3792  0.1305
 6630W        W20044  15.556   0.545   3.242  0.0787 -0.0478  0.0590
 6631W        W20045  10.542   8.441  10.789  0.0906  0.0715  0.0641
 6632W        W20046  15.790  12.571   5.820 -0.1485 -0.0121 -0.0928
 6633W        W20047  15.423  16.999  12.675 -0.3954  0.0149  0.0626
 6634W        W20048   3.189   5.236   4.350  0.0105 -0.1380 -0.0830
 6635W        W20049  10.875  17.749   3.512 -0.0526 -0.0488 -0.1304
 6636W        W20050  12.241   4.511  13.227  0.1490 -0.0189 -0.0282
 6637W        W20051   2.068   8.305  11.641  0.0764 -0.0361 -0.0338
 6638W        W20052   6.793   1.628   6.084  0.0023 -0.1428  0.2184
 6639W        W20053  16.236  11.818  11.803 -0.1843 -0.1511  0.1639
 6640W        W20054  14.759  10.143  12.454  0.0489 -0.1357 -0.0555
 6641W        W20055   9.093  17.938  15.471  0.1679 -0.3854 -0.1221
 6642W        W20056  13.165  14.049  11.730 -0.1648  0.2605  0.0064
 6643W        W20057   8.441   4.846  11.113 -0.2743 -0.1467 -0.0998
 6644W        W20058  11.034   6.582  12.438  0.0669  0.1882  0.0382
 6645W        W20059  14.776   1.003   6.685 -0.1760 -0.0198 -0.2525
 6646W        W20060   0.144  11.729   5.556 -0.0011  0.1247 -0.3720
 6647W        W20061   6.927  12.947  14.234 -0.1322  0.0003  0.2393
 6648W        W20062   2.395  10.535  11.314 -0.1371  0.2252  0.1426
 6649W        W20063  16.747   7.448   4.149  0.3620  0.0004  0.1143
 6650W        W20064  12.720   7.616   1.229 -0.0296  0.0128  0.0386
 6651W        W20065   6.029   9.916   7.112  0.2111  0.1170  0.0739
 6652W        W20066  17.326  13.781  13.647 -0.0044 -0.0278 -0.0912
 6653W        W20067  11.383   6.305  16.022 -0.4417  0.1766 -0.1007
 6654W        W20068   8.499  12.355  13.964  0.0814  0.0765 -0.0875
 6655W        W20069   4.483  13.432   5.623  0.2606  0.0275 -0.3385
 6656W        W20070   7.877   8.804   2.772  0.2479 -0.2403 -0.0541
 6657W        W20071  16.284  14.457   0.663 -0.1257 -0.2140  0.1458
 6658W        W20072  17.402  15.532   2.218 -0.1085  0.3994  0.1251
 6659W        W20073  15.835   4.262   3.978 -0.3677  0.1728  0.1247
 6660W        W20074   1.228   1.668   3.169 -0.3411  0.1059  0.3172
 6661W        W20075  16.928   2.782   3.216  0.5532  0.1268  0.2618
 6662W        W20076   7.439  16.961  13.024  0.2402 -0.1474 -0.0091
 6663W        W20077  12.722   7.994  14.830 -0.1866  0.2715 -0.0172
 6664W        W20078   5.278  13.931   1.416 -0.0808  0.2272  0.0278
 6665W        W20079   6.426   1.348  16.298 -0.0809  0.2722  0.1845
 6666W        W20080   1.156   3.569   0.778  0.0129 -0.0615  0.0111
 6667W        W20081  10.435  17.947   1.768  0.0197  0.0198  0.1462
 6668W        W20082   8.987   0.813   4.982 -0.0633 -0.0328 -0.1050
 6669W        W20083   6.999  11.089   5.142 -0.1977 -0.0670  0.3812
 6670W        W20084   3.837  15.098  15.733  0.1746 -0.0651 -0.2063
 6671W        W20085  12.718  11.415  10.885 -0.2670  0.1276  0.1507
 6672W        W20086   5.019  12.454  11.832 -0.0126  0.1569  0.0404
 6673W        W20087  10.069   1.831   1.574 -0.1852  0.2030  0.1050
 6674W        W20088  10.066   1.163   2.046  0.1567 -0.0126 -0.2205
 6675W        W20089  18.241   1.411  15.115  0.3129 -0.2209  0.1258
 6676W        W20090  16.039  17.589  11.960  0.0908 -0.0538 -0.1128
 6677W        W20091   3.987   7.413   0.258 -0.0351  0.0117 -0.1437
 6678W        W20092   1.881   3.958   4.549 -0.0552 -0.1461  0.3013
 6679W        W20093   1.596  11.780  16.362  0.1277 -0.0483  0.0238
 6680W        W20094  16.864  17.296   6.279  0.1544  0.4041 -0.1730
 6681W        W20095   0.296   6.659  12.913  0.1688 -0.0978  0.2443
 6682W        W20096  13.949   3.148  11.579 -0.0529  0.0399 -0.0986
 6683W        W20097   0.601  12.045   4.230  0.2813 -0.2611 -0.1601
 6684W        W20098  12.778   0.901  14.756  0.0387 -0.1073  0.2266
 6685W        W20099  17.435   3.776  10.825 -0.0301  0.1048 -0.1139
 6686W        W20100  11.457   6.531   1.470  0.1649 -0.0560 -0.1366
 6687W        W20101  14.529   7.119   1.940 -0.2724 -0.1878  0.0778
 6688W        W20102  17.344   6.340  11.187  0.1758  0.0634  0.3320
 6689W        W20103   4.019   6.054   4.902 -0.1658 -0.0431  0.1091
 6690W        W20104   9.544  13.521  14.236  0.3049 -0.0771 -0.0084
 6691W        W20105  14.999   7.373   3.986  0.0654 -0.0670  0.3914
 6692W        W20106  18.030   7.978  12.177  0.4392 -0.1276  0.1116
 6693W        W20107  11.745   9.609  14.903 -0.1564 -0.1017 -0.1705
 6694W        W20108   9.682  12.770  11.685  0.1506  0.0316  0.3951
 6695W        W20109   7.060  10.015   0.355  0.0907 -0.1600  0.0408
 6696W        W20110   4.585  17.141  10.950 -0.0702  0.2097  0.0853
 6697W        W20111  16.221   9.426   2.960  0.0022  0.1424  0.0828
 6698W        W20112  14.209   1.971   1.274 -0.1122  0.0564 -0.1211
 6699W        W20113   6.424   8.923   2.416  0.0784  0.0463 -0.2481
 6700W        W20114  14.819  10.665  11.265 -0.0427 -0.1909 -0.0438
 6701W        W20115  17.012   0.260   0.530  0.1971 -0.1384  0.2573
 6702W        W20116   5.923  17.323   5.390  0.2107  0.1218 -0.1549
 6703W        W20117   5.320   4.941  16.175 -0.2488  0.0021 -0.4521
 6704W        W20118  12.076  12.874   5.323  0.0999  0.1374  0.1597
 6705W        W20119  17.259  14.115  11.325  0.0258  0.1587 -0.1407
 6706W        W20120   5.369   9.114   0.152 -0.1132 -0.0762 -0.3625
 6707W        W20121   6.399  16.670   1.809  0.1733 -0.0438  0.0465
 6708W        W20122   5.867   8.413  14.411  0.3947 -0.0593 -0.2829
 6709W        W20123   4.672   1.832  12.197 -0.1316 -0.1581  0.2135
 6710W        W20124   5.415  13.689  14.784 -0.1975 -0.3542  0.0460
 6711W        W20125   6.984  12.806  15.291 -0.0453 -0.3146 -0.3744
 6712W        W20126  17.985  10.994   5.353  0.0767  0.3461 -0.0328
 6713W        W20127   0.437   7.557  13.311  0.0971  0.0647  0.1376
 6714W        W20128  10.069  11.062  16.142 -0.1680  0.1525  0.0472
 6715W        W20129   7.424   4.385   3.832  0.3426  0.2803  0.2392
 6716W        W20130  11.312  11.331  13.004 -0.0282 -0.0191 -0.1592
 6717W        W20131  12.397  14.835  14.061 -0.2351  0.0360  0.3655
 6718W        W20132   2.863  11.452  11.171  0.2250 -0.0434  0.2203
 6719W        W20133  15.141   9.350   5.651  0.0778 -0.0768 -0.1010
 6720W        W20134   9.171   7.433  11.290  0.0436  0.1423  0.1198
 6721W        W20135   6.972  14.643  13.539 -0.2750  0.2732 -0.0372
 6722W        W20136  18.094  14.585   3.914 -0.1251 -0.1878  0.1065
 6723W        W20137  17.308  10.314  15.352 -0.0985  0.0878 -0.1562
 6724W        W20138   3.263   0.613  14.500 -0.1060  0.0706  0.1650
 6725W        W20139  15.617   3.658  11.264  0.1442  0.0860 -0.0394
 6726W        W20140  16.649  16.992  16.100  0.0392 -0.0337 -0.1598
 6727W        W20141  12.016   1.897  15.890  0.0819 -0.0443  0.2930
 6728W        W20142   7.024   5.710   5.127  0.2307  0.0665  0.0788
 6729W        W20143   1.288  14.448  15.753  0.0992  0.2564 -0.1513
 6730W        W20144  10.901  10.565   2.744  0.2701 -0.0869 -0.0112
 6731W        W20145   3.899   6.492  10.679  0.1042 -0.0702  0.0403
 6732W        W20146   2.461   6.063   3.550  0.2798 -0.0774  0.0613
 6733W        W20147  11.344  16.088   2.271 -0.1732  0.1053 -0.0898
 6734W        W20148  17.170   1.876  15.118 -0.1296 -0.0898 -0.0655
 6735W        W20149   4.277  11.424  13.016  0.1290  0.2840 -0.0777
 6736W        W20150  11.874   5.047   6.096  0.1453  0.3203  0.1119
 6737W        W20151   3.067   0.211   2.241  0.2366 -0.0462 -0.0344
 6738W        W20152   5.142  10.313  12.556 -0.1321  0.1362  0.2018
 6739W        W20153  18.114   0.457  10.906 -0.0113 -0.1314  0.0897
 6740W        W20154  14.314  14.704   2.255  0.0717 -0.1103  0.0951
 6741W        W20155   7.691  17.441  12.181  0.0637  0.0144  0.0244
 6742W        W20156  17.135  16.615  14.709  0.1020 -0.0916  0.1610
 6743W        W20157   2.339   6.734  15.826  0.5475  0.1588 -0.2560
 6744W        W20158  12.781   3.434   1.956  0.1255 -0.0681  0.5391
 6745W        W20159  13.789   2.926  13.228 -0.0605 -0.1335 -0.3712
 6746W        W20160   7.091   9.221   6.686 -0.0516  0.1541 -0.0190
 6747W        W20161  17.716  14.271  13.246  0.0978 -0.4106  0.2488
 6748W        W20162  12.695   0.009   6.537 -0.2680  0.0188  0.2494
 6749W        W20163   5.801   2.658  13.739 -0.1079 -0.0378  0.0075
 6750W        W20164  10.524  13.648   2.589 -0.1229 -0.0928 -0.2319
 6751W        W20165   5.678  15.754  14.665  0.0908  0.0551  0.1786
 6752W        W20166   4.844  17.994   6.318 -0.0279  0.0208  0.3340
 6753W        W20167  16.145   3.321  13.093  0.0328 -0.0728 -0.2455
 6754W        W20168   0.510   3.905   3.239  0.0006 -0.0558 -0.0196
 6755W        W20169   6.851  16.407   3.280  0.0837  0.2462 -0.0697
 6756W        W20170   4.656   7.086   4.885  0.0323  0.0824  0.1217
 6757W        W20171   1.293   0.412   2.178 -0.0230  0.1231  0.2619
 6758W        W20172  13.947   6.804  14.055  0.0392  0.2269 -0.1015
 6759W        W20173  11.386   7.512  12.156 -0.0548 -0.2257  0.0308
 6760W        W20174   1.878   6.081  11.123  0.0437  0.2158 -0.1421
 6761W        W20175   5.841  12.964  13.702 -0.3145 -0.1352 -0.1964
 6762W        W20176  16.705   1.390  10.129  0.1230 -0.2835  0.1640
 6763W        W20177  11.079  14.757  10.498 -0.1060  0.1284  0.1165
 6764W        W20178  14.327   7.741   4.182  0.0692  0.0370  0.0560
 6765W        W20179   7.687  18.107   2.941  0.0763  0.0436  0.2645
 6766W        W20180  15.892  11.679  13.358 -0.1020  0.0230  0.0063
 6767W        W20181   1.198  14.954   3.146  0.1429 -0.0244  0.0087
 6768W        W20182   8.111   3.282   4.248 -0.1586 -0.0598 -0.1472
 6769W        W20183  10.671  17.632   4.007 -0.0823  0.1454  0.0429
 6770W        W20184   3.008  16.737   3.140  0.2844 -0.1654 -0.0157
 6771W        W20185   1.523  13.187  14.869 -0.2825  0.0891 -0.0714
 6772W        W20186   7.024  13.844   3.758 -0.1958 -0.0190 -0.0837
 6773W        W20187  18.219   1.455  15.783 -0.1282  0.1272  0.0650
 6774W        W20188   9.151   1.675  14.276 -0.1618 -0.0208 -0.1613
 6775W        W20189   1.248  10.350   1.024 -0.1712  0.0602  0.1274
 6776W        W20190   0.645   0.831   1.614 -0.2857  0.1841  0.0685
 6777W        W20191   8.409  17.592   0.817 -0.0293  0.2064  0.1926
 6778W        W20192  16.424   9.170  12.696 -0.3230  0.1473  0.1232
 6779W        W20193   1.859   6.928  10.321  0.0229 -0.1013 -0.2648
 6780W        W20194   0.305   9.663  13.841 -0.0559  0.0245  0.2092
 6781W        W20195  17.989  16.058   4.328  0.1708 -0.0537 -0.0006
 6782W        W20196   0.369  16.987  15.333  0.0556 -0.0563 -0.1820
 6783W        W20197  14.024  17.915   4.421 -0.0435  0.1858  0.0856
 6784W        W20198   1.265  15.394   1.652  0.4591  0.2556  0.1258
 6785W        W20199   4.700   9.357   0.813 -0.0288  0.2216 -0.1237
 6786W        W20200  17.204   0.004  15.041 -0.1919  0.1280 -0.0653
 6787W        W20201  12.913  12.157  11.363 -0.0913  0.0707  0.0848
 6788W        W20202  16.286  15.581   2.897  0.0293 -0.2473  0.2578
 6789W        W20203   7.245  17.878   2.808 -0.1914 -0.1100 -0.2410
 6790W        W20204   6.832  10.133  10.575 -0.1748  0.0179  0.0507
 6791W        W20205   9.649  16.771   0.986  0.1684  0.3442 -0.2142
 6792W        W20206   6.453   3.770   5.125 -0.1284  0.1336  0.1553
 6793W        W20207  17.714   4.697   0.874 -0.0440 -0.0715 -0.2489
 6794W        W20208   4.439  10.302  11.916 -0.0261 -0.2809  0.1039
 6795W        W20209   7.237   6.624   5.633 -0.0029 -0.3191 -0.1394
 6796W        W20210   6.259   9.034  13.379 -0.2686  0.0319 -0.0074
 6797W        W20211   9.073  11.143   4.444 -0.1471  0.1085 -0.1872
 6798W        W20212   3.591  10.641   3.074 -0.0942 -0.0365  0.0700
 6799W        W20213  15.796   1.196  13.924  0.2445 -0.0040  0.0860
 6800W        W20214  14.900   5.257   1.226  0.1708 -0.2012  0.0779
 6801W        W20215  16.916  13.754  12.407  0.2077 -0.0691 -0.2716
 6802W        W20216  15.373  16.041   5.582  0.0419  0.1565 -0.0164
 6803W        W20217   3.221   8.022   0.778 -0.0001  0.2801  0.2013
 6804W        W20218   0.715   1.210  10.080  0.2376 -0.1968  0.3370
 6805W        W20219  13.971  16.981  10.759 -0.0090 -0.2577 -0.0829
 6806W        W20220   0.510   6.113  12.767 -0.3064 -0.3370  0.2235
 6807W        W20221  14.508  15.927  14.649  0.1094 -0.0270  0.0064
 6808W        W20222  16.778   9.084   0.490  0.2847  0.2237 -0.1484
 6809W        W20223  17.915   8.624  13.421  0.2581 -0.0967 -0.0344
 6810W        W20224   4.538   0.307   4.815  0.1583 -0.2212  0.1670
 6811W        W20225   5.398   0.624   3.004 -0.2262 -0.0375 -0.0383
 6812W        W20226  10.807  17.403   0.475 -0.1591 -0.0325 -0.1469
 6813W        W20227  15.075   6.061   5.150  0.1418 -0.0805 -0.0211
 6814W        W20228   6.462  11.766   5.095  0.0641  0.2367 -0.1987
 6815W        W20229   5.094  16.063  13.957 -0.0747 -0.0602  0.0767
 6816W        W20230  13.513  14.659  13.517  0.2932  0.0456 -0.0370
 6817W        W20231  13.302   0.871   2.145  0.3514 -0.0409 -0.0447
 6818W        W20232  17.133   7.572   0.179  0.0336  0.3729 -0.1428
 6819W        W20233  14.620  13.008  13.884  0.1091 -0.1324 -0.0121
 6820W        W20234  17.412   8.428  16.104 -0.0720 -0.0438  0.3084
 6821W        W20235   4.166   7.327  11.908 -0.1109  0.1771 -0.1031
 6822W        W20236  10.817   6.909   3.057 -0.1290  0.4397 -0.1215
 6823W        W20237   5.849   7.105   0.183  0.1945  0.1597  0.1311
 6824W        W20238  10.227   8.628   4.417 -0.1395 -0.1678 -0.3192
 6825W        W20239   8.830   4.279  11.654  0.0308  0.2627  0.2929
 6826W        W20240   8.612   5.487  14.839 -0.1711 -0.1681 -0.1339
 6827W        W20241  14.135  15.256   3.070 -0.0116 -0.0378  0.0310
 6828W        W20242   2.877  16.668   2.679  0.1649 -0.1156 -0.1532
 6829W        W20243   5.831  15.905  11.640  0.0671  0.1487 -0.1848
 6830W        W20244  11.953   8.877  15.576  0.3405  0.2079  0.0141
 6831W        W20245  12.131   3.772   2.278  0.1442  0.1651 -0.2106
 6832W        W20246   6.815  13.484  13.941  0.1561  0.1697 -0.0175
 6833W        W20247  14.310   6.347  12.730  0.0295  0.2723  0.2592
 6834W        W20248   9.748   2.152  14.940  0.0724 -0.0360  0.1770
 6835W        W20249   7.152   5.168   5.257 -0.0556 -0.1906  0.3180
 6836W        W20250  16.562   5.700  12.704 -0.0105 -0.1498  0.0101
 6837W        W20251   8.204   4.779  13.727 -0.1544 -0.0292  0.1763
 6838W        W20252   7.576   3.634  12.228  0.0293 -0.1164 -0.4875
 6839W        W20253  17.395  13.657   2.280  0.1584 -0.0487  0.2652
 6840W        W20254  11.054   1.809  16.095 -0.1366  0.0377 -0.2221
 6841W        W20255   3.818  11.232  13.401 -0.2099  0.2152 -0.0473
 6842W        W20256   1.413   1.656   1.592  0.1047 -0.3779 -0.1169
 6843W        W20257   0.473   1.061  15.047 -0.0847  0.0948  0.2162
 6844W        W20258   4.020  11.504   3.761 -0.0017 -0.2368  0.0831
 6845W        W20259   1.161  11.490   5.265  0.1611 -0.0795 -0.0835
 6846W        W20260   6.288   5.946   3.507  0.0272  0.0455  0.0729
 6847W        W20261   9.401  17.196  14.369 -0.0746 -0.3884 -0.0847
 6848W        W20262  18.233  11.188  12.449 -0.0899 -0.2187  0.1355
 6849W        W20263   2.897  14.261  12.750 -0.1509 -0.3659  0.1941
 6850W        W20264   2.489   8.022  11.486 -0.2434  0.1403 -0.0709
 6851W        W20265  17.676   2.619   4.391  0.1213  0.1500 -0.3485
 6852W        W20266  11.943   6.770  11.943 -0.2649  0.1234  0.2416
 6853W        W20267   8.861  16.875  10.863  0.0887  0.2336  0.1888
 6854W        W20268   6.649   7.602  15.927 -0.0858  0.0199  0.0829
 6855W        W20269   5.494  18.187  11.132 -0.0051 -0.2545  0.0345
 6856W        W20270   4.529  13.975   1.692 -0.1254 -0.1189  0.1906
 6857W        W20271   8.781  16.821   1.067 -0.0473 -0.5289 -0.0323
 6858W        W20272   6.043  12.737   2.664  0.2019  0.1303  0.0707
 6859W        W20273   6.803   2.029   3.059  0.0979  0.2486  0.0329
 6860W        W20274  13.376  12.551  14.901 -0.1388  0.0484  0.2426
 6861W        W20275  18.137  14.095  11.879 -0.2996 -0.0110 -0.0370
 6862W        W20276   4.372   5.568   4.488 -0.2150  0.2677 -0.1071
 6863W        W20277  18.072  11.908  16.022 -0.1259 -0.0450 -0.2493
 6864W        W20278   0.266   7.180   1.255  0.1720  0.0468  0.0356
 6865W        W20279  14.532   2.377  15.803 -0.0186  0.0195  0.1393
 6866W        W20280  17.229   8.218  12.626 -0.0729  0.0151 -0.3666
 6867W        W20281  14.619   3.029   3.032 -0.2931 -0.2728 -0.0906
 6868W        W20282   4.309   7.892   3.331  0.2499  0.0714  0.4568
 6869W        W20283   8.616  13.670   6.092 -0.0912  0.2547  0.0207
 6870W        W20284   6.549  11.661  15.451 -0.0154 -0.2067  0.0212
 6871W        W20285   4.864  11.958   2.370 -0.0560 -0.0737  0.1362
 6872W        W20286  10.371   5.867   0.058  0.2339  0.1981  0.1756
 6873W        W20287   7.989   0.247  11.213 -0.0328  0.1165 -0.1711
 6874W        W20288   9.019   5.706   3.801 -0.0520 -0.0719 -0.3954
 6875W        W20289   9.104   5.954   2.837 -0.3390 -0.0687  0.0702
 6876W        W20290   9.058   5.500   2.607 -0.0747 -0.3483  0.0791
 6877W        W20291  14.842  11.113  14.147  0.2614  0.2277  0.1415
 6878W        W20292  15.508  15.474  10.510  0.0898 -0.2746  0.1344
 6879W        W20293   7.748  10.045   4.506  0.2353 -0.2211 -0.1368
 6880W        W20294   2.634  10.343  16.057  0.1589  0.0698  0.1956
 6881W        W20295   7.322  11.890   3.036 -0.0439  0.0175  0.2558
 6882W        W20296   8.082  15.022  13.242 -0.1340 -0.1823 -0.1914
 6883W        W20297  12.087   7.822   1.817  0.0939  0.1983 -0.0894
 6884W        W20298  10.501  13.973   0.107  0.0078  0.0419 -0.1021
 6885W        W20299   4.019   6.441  13.788  0.1730  0.3093 -0.2742
 6886W        W20300  18.039   1.799  11.216 -0.3273 -0.0115 -0.3072
 6887W        W20301  17.807  13.785  13.459  0.0491 -0.0777  0.0001
 6888W        W20302  16.509   8.036   4.964 -0.4664 -0.3534  0.0822
 6889W        W20303  17.215  16.629   4.451 -0.1000 -0.2071  0.0410
 6890W        W20304   2.964  10.279  15.292 -0.1510  0.3434 -0.2701
 6891W        W20305  10.120   2.006   4.737  0.2391  0.0637  0.2327
 6892W        W20306   8.628  10.489  13.757  0.1377  0.0919  0.1463
 6893W        W20307   9.819  10.663  11.532 -0.3328  0.2336  0.0901
 6894W        W20308  15.116   6.093   3.120  0.1471 -0.3473  0.1171
 6895W        W20309   2.178  11.214   4.216  0.3178 -0.2161 -0.1053
 6896W        W20310  13.988  17.242  15.341 -0.0432 -0.0814  0.0395
 6897W        W20311   2.240   7.694   1.963 -0.0413 -0.3782  0.1362
 6898W        W20312  13.181   5.033   9.779 -0.1444 -0.0863 -0.0055
 6899W        W20313   9.482   1.276   2.078  0.0428  0.1698  0.1125
 6900W        W20314   9.945   7.748  15.428  0.3054 -0.0728 -0.3455
 6901W        W20315  11.666   2.050   3.992 -0.1528  0.2196 -0.1327
 6902W        W20316   7.906  17.017  16.370 -0.3641  0.0933 -0.0643
 6903W        W20317  17.408   9.094   4.222  0.1219  0.2076 -0.1802
 6904W        W20318   6.902   1.732  11.130  0.1783 -0.0526  0.1965
 6905W        W20319  16.934   7.674  13.924  0.1336  0.1678  0.0070
 6906W        W20320  13.067   9.932   2.368  0.1565  0.0396 -0.1181
 6907W        W20321   3.319   9.025   4.171  0.1160  0.2645  0.0676
 6908W        W20322   0.722  16.965   2.049 -0.1160 -0.2090 -0.0598
 6909W        W20323  12.280  17.910  13.999 -0.2557  0.0745  0.1538
 6910W        W20324   8.513  10.769   5.025 -0.1394 -0.1466 -0.2667
 6911W        W20325  12.028  15.675   0.530 -0.1493  0.0577 -0.3003
 6912W        W20326   4.733   8.316   4.949  0.0393 -0.0071 -0.0273
 6913W        W20327  13.407   9.357  13.973 -0.0387 -0.0768  0.1743
 6914W        W20328  17.044  10.232  10.141  0.0922  0.1720  0.0646
 6915W        W20329   0.038  18.179  14.164 -0.2569  0.1083  0.1547
 6916W        W20330   4.309  16.863   3.136 -0.0176  0.2949  0.1070
 6917W        W20331   7.712  17.779  11.685 -0.0832  0.2206 -0.1241
 6918W        W20332  16.879   5.403  16.429 -0.0885 -0.1859 -0.0007
 6919W        W20333   1.142  16.088   0.619  0.0808 -0.0964 -0.2763
 6920W        W20334   3.546   2.928  11.863  0.2436 -0.0076 -0.0433
 6921W        W20335   3.806   6.617  11.169 -0.0715 -0.0274 -0.1910
 6922W        W20336  11.530   5.069   3.510 -0.0984  0.1176  0.2482
 6923W        W20337  17.365  16.334   4.801 -0.2551 -0.4780  0.0718
 6924W        W20338   1.905   5.966  12.950 -0.2314 -0.0682 -0.0288
 6925W        W20339  12.019   4.245  11.824  0.0041 -0.0226  0.2165
 6926W        W20340   8.562   3.514   5.015 -0.2508  0.1077 -0.2092
 6927W        W20341   4.228  10.959  13.347 -0.2987  0.0082  0.3409
 6928W        W20342  10.624  11.164   3.987 -0.1738 -0.0064  0.1178
 6929W        W20343  12.632   1.307  12.740  0.0134  0.1787  0.0387
 6930W        W20344  18.094  15.465  13.869 -0.1664 -0.0758 -0.4725
 6931W        W20345  17.346   2.248  14.106 -0.0735  0.0909 -0.1810
 6932W        W20346  10.028   6.685   1.332  0.0086 -0.2565 -0.3477
 6933W        W20347  13.272  17.307   2.736 -0.0766 -0.1632  0.1857
 6934W        W20348   2.120  12.148  15.019  0.2441 -0.0672 -0.0486
 6935W        W20349  13.460  15.836   0.282  0.3618  0.5936  0.1807
 6936W        W20350   9.373  12.688  13.888  0.0349  0.1417  0.2031
 6937W        W20351   4.860   0.064   2.005 -0.1612  0.1819  0.1418
 6938W        W20352  12.755  14.348  15.156  0.0959  0.0641  0.1381
 6939W        W20353  16.068   7.672   5.907 -0.1604 -0.2404 -0.0336
 6940W        W20354  15.707  16.634  15.582 -0.0785  0.1952  0.4495
 6941W        W20355   4.186   3.610  16.485 -0.0956  0.2908 -0.4214
 6942W        W20356   2.048   3.629  15.736  0.1888  0.2835 -0.2042
 6943W        W20357   7.743   6.590   2.855  0.0119  0.1691  0.0102
 6944W        W20358   1.521  11.337  16.110 -0.0652  0.1952 -0.1429
 6945W        W20359   1.682   1.526   3.415  0.1560  0.0720 -0.0440
 6946W        W20360  17.171   3.303   0.598  0.0165  0.0010 -0.0618
 6947W        W20361   0.363   4.270  10.557  0.0438  0.1010  0.1368
 6948W        W20362  12.056   5.254  13.767  0.0388  0.3133 -0.3562
 6949W        W20363   3.323  14.120  14.994  0.2090  0.1720 -0.0091
 6950W        W20364  12.810   6.931  12.295  0.1155  0.1914  0.0292
 6951W        W20365  14.041  13.058  15.030  0.0798  0.0397 -0.2293
 6952W        W20366  11.970   5.896  12.672  0.5881 -0.2141 -0.0743
 6953W        W20367   2.242   5.270  12.026  0.4969  0.0399  0.0508
 6954W        W20368  13.982   7.630  11.920 -0.1641 -0.1477 -0.0100
 6955W        W20369   6.496  10.401   0.190  0.0013 -0.2743 -0.2868
 6956W        W20370  14.801   2.956  11.960  0.0737 -0.0726 -0.1747
 6957W        W20371  17.099   3.539  13.451  0.1297  0.3916  0.2311
 6958W        W20372   4.990  12.417  10.598  0.2313  0.0315  0.0010
 6959W        W20373  18.031  14.506  13.582 -0.0812  0.1982 -0.2579
 6960W        W20374  12.574  11.183   3.020  0.1134 -0.1472  0.1965
 6961W        W20375  16.494   2.826  14.394 -0.0774 -0.0725 -0.1498
 6962W        W20376  14.168   2.917  14.709 -0.0696 -0.2700  0.1366
 6963W        W20377   8.334   0.025  13.989  0.0025 -0.2701 -0.3031
 6964W        W20378  15.560   9.783   2.058 -0.1446 -0.0201 -0.0919
 6965W        W20379  10.821   1.213  12.020 -0.3128 -0.0776 -0.3303
 6966W        W20380  17.964  17.345  12.981 -0.1296 -0.0200  0.0120
 6967W        W20381  17.887   3.159  15.152 -0.0010  0.1496  0.1674
 6968W        W20382   1.308   2.326  11.475 -0.0560  0.0478 -0.0108
 6969W        W20383   7.073  16.643   4.429  0.2935 -0.0166  0.2023
 6970W        W20384  15.767  12.653   0.598  0.0535 -0.0605 -0.0822
 6971W        W20385   6.870   8.930   2.604  0.0947  0.2272  0.1065
 6972W        W20386  11.989  15.429  11.681  0.0231 -0.0348 -0.1747
 6973W        W20387  12.523   2.944  14.266  0.2052  0.1779  0.0386
 6974W        W20388  16.756  17.860  14.972 -0.1704 -0.0068  0.1233
 6975W        W20389  11.117  10.145  11.095  0.0191 -0.2499  0.0412
 6976W        W20390  13.676   6.797   1.587  0.1041  0.1201 -0.1398
 6977W        W20391   3.034  14.646  13.926 -0.1425  0.1962  0.2132
 6978W        W20392  17.936   4.099   2.340  0.0138 -0.1328  0.0032
 6979W        W20393   4.934   7.453   2.750 -0.4190  0.0167  0.2305
 6980W        W20394   9.782   3.144   3.467  0.2493 -0.1305  0.0523
 6981W        W20395   7.378   3.969   2.806  0.0875 -0.1677  0.6618
 6982W        W20396  13.487  15.931   6.394 -0.1306  0.0349  0.0497
 6983W        W20397   0.662   7.903   1.743  0.0376  0.1610  0.3664
 6984W        W20398  11.245   4.412  12.975  0.1852  0.1806 -0.0247
 6985W        W20399  11.469  15.180   2.264  0.0039 -0.0110  0.1288
 6986W        W20400  17.339  14.763   1.998 -0.3365  0.0128 -0.3205
 6987W        W20401   9.163   3.237   5.586  0.1907  0.0929  0.0481
 6988W        W20402  16.759   1.262   3.495  0.5208 -0.0512 -0.3506
 6989W        W20403  12.249  14.844  11.215  0.0687 -0.2440  0.2699
 6990W        W20404  14.750   3.533   3.049  0.0025 -0.1524 -0.3651
 6991W        W20405  14.247   9.615  14.543  0.0345  0.0470  0.0203
 6992W        W20406  14.923  16.822   4.098  0.1819 -0.1371  0.2566
 6993W        W20407   2.910  16.473   1.192 -0.2297  0.1168  0.2052
 6994W        W20408   1.571  12.609  15.616  0.1081  0.0206 -0.2329
 6995W        W20409   5.051   0.295   5.117 -0.2043 -0.1304  0.2610
 6996W        W20410   7.203   6.259  15.265 -0.2009 -0.1958  0.0022
 6997W        W20411  12.323   6.982  12.790  0.0062 -0.2461  0.0758
 6998W        W20412   6.798  14.487  12.994  0.2361 -0.0712 -0.0845
 6999W        W20413  15.901   6.034  13.753  0.0020  0.3379  0.0285
 7000W        W20414   0.392   3.705  12.054  0.1884  0.2282  0.0940
 7001W        W20415  17.351   2.947  15.181  0.1903 -0.2599  0.0298
 7002W        W20416  13.833  14.621  15.439  0.0348 -0.1891  0.2374
 7003W        W20417   1.103   2.862   3.602  0.1753 -0.0638 -0.4258
 7004W        W20418   5.250  10.685  11.857  0.5824  0.0562 -0.0718
 7005W        W20419   0.972  16.598  13.369 -0.1231 -0.2874  0.1348
 7006W        W20420  13.316  14.875  11.416  0.0882 -0.2231 -0.2017
 7007W        W20421  12.387  15.385  14.084  0.1152  0.2347  0.0119
 7008W        W20422   4.457   2.288  11.382 -0.3210  0.3429 -0.2647
 7009W        W20423  11.042   3.289   5.391 -0.1536  0.0568  0.0666
 7010W        W20424   9.787  13.316  11.623 -0.0959 -0.3172 -0.2008
 7011W        W20425  10.890   8.285   2.172 -0.1624 -0.0010 -0.0231
 7012W        W20426  14.289  10.103  11.091  0.0331  0.0856  0.2729
 7013W        W20427  11.973  10.021   4.797  0.1589  0.3824  0.0682
 7014W        W20428   3.413  14.377  10.631 -0.1193  0.1164 -0.0099
 7015W        W20429  16.959  14.256  12.516  0.3224  0.1128  0.0231
 7016W        W20430  16.928   6.971   3.064 -0.1444  0.1226  0.3711
 7017W        W20431  10.434   5.651  15.081 -0.0503 -0.0605 -0.2498
 7018W        W20432   7.447   6.600   3.335  0.4873  0.0169 -0.1219
 7019W        W20433   3.827   9.463   3.106 -0.1053  0.1082 -0.0341
 7020W        W20434  16.409  12.156   5.894  0.2537  0.2502 -0.4101
 7021W        W20435   4.040   1.320   2.810  0.0323  0.2998 -0.0145
 7022W        W20436   8.084  10.604  14.432  0.0260 -0.3354 -0.2246
 7023W        W20437   3.227   7.379  11.601 -0.2817  0.0250  0.0564
 7024W        W20438  12.916  17.179   9.971  0.1403  0.1229 -0.1113
 7025W        W20439  17.553   3.478   3.043  0.3164  0.0158 -0.1012
 7026W        W20440  11.135   0.150   5.051 -0.1003  0.1234  0.0777
 7027W        W20441  10.500   9.007  12.334 -0.0346 -0.1741 -0.0531
 7028W        W20442  12.212   2.595   0.929  0.0499  0.1807  0.0392
 7029W        W20443  13.910  16.801  13.514 -0.0977  0.0807 -0.1476
 7030W        W20444   0.082  18.168   2.176  0.2118 -0.2458 -0.2317
 7031W        W20445   4.110  14.462  11.058  0.1516 -0.0973  0.0050
 7032W        W20446  11.228  16.015   3.503 -0.2872  0.4125  0.0114
 7033W        W20447   0.978   0.683   4.796 -0.0364 -0.1350  0.3070
 7034W        W20448   5.142   8.336   4.551 -0.2215  0.1402  0.2814
 7035W        W20449   7.079   3.034  14.130  0.0756 -0.2593  0.0177
 7036W        W20450  13.421  12.488  11.961  0.1779  0.1444 -0.2628
 7037W        W20451   3.145   5.525  16.331 -0.1996  0.1914 -0.0622
 7038W        W20452  14.845  10.248  13.914  0.2669  0.0500 -0.0928
 7039W        W20453  16.436   4.255   0.926 -0.0765  0.1170  0.0578
 7040W        W20454  11.074  12.691   5.508 -0.2750 -0.1213 -0.2465
 7041W        W20455   2.967   2.426  11.529 -0.1013 -0.2820 -0.0126
 7042W        W20456   6.518   0.353  15.959 -0.0117 -0.1060 -0.2110
 7043W        W20457  11.971   2.666  11.739 -0.0454  0.2458 -0.1846
 7044W        W20458  13.064   3.994  12.970 -0.0392  0.1136  0.0452
 7045W        W20459  16.171  13.051  15.653 -0.0996  0.1203  0.0434
 7046W        W20460   8.341  10.426  11.234 -0.1548  0.1269 -0.1964
 7047W        W20461   2.677   8.899   1.820 -0.1304 -0.1348 -0.1389
 7048W        W20462   9.981  15.643  10.151 -0.0052  0.0164 -0.0920
 7049W        W20463   1.625   7.117   6.605 -0.3007 -0.1201 -0.3308
 7050W        W20464  13.431   2.080   1.540  0.1398 -0.0373  0.2714
 7051W        W20465   3.708   1.427  12.836 -0.2134 -0.3733 -0.0011
 7052W        W20466  14.658   3.982  14.719  0.2778 -0.2946  0.2074
 7053W        W20467   1.949   1.690  10.881 -0.1079  0.0111  0.2878
 7054W        W20468   7.153  17.247  14.430 -0.0944 -0.3207 -0.2367
 7055W        W20469   9.638   5.600  12.351 -0.1507 -0.1682  0.0890
 7056W        W20470   6.301   9.052   3.249 -0.0202  0.3145 -0.2582
 7057W        W20471  13.684   8.954   5.688  0.2458  0.0705  0.0132
 7058W        W20472  12.656   8.707   9.409  0.2323 -0.0984  0.2303
 7059W        W20473  11.502   5.290  15.926 -0.0748 -0.0472 -0.0860
 7060W        W20474   1.371   2.799   6.636  0.0929 -0.0818  0.3932
 7061W        W20475   4.843   0.306  13.678  0.0516  0.1809  0.3548
 7062W        W20476   5.261   7.552  12.996  0.1914 -0.0282  0.1906
 7063W        W20477   9.987   9.046   1.312  0.1806 -0.0601 -0.2763
 7064W        W20478  18.015  18.124  10.962 -0.0224 -0.1649  0.2285
 7065W        W20479   9.825   7.809  13.377 -0.0346 -0.0258  0.0575
 7066W        W20480  13.969   0.055  10.414  0.1351  0.1232 -0.0794
 7067W        W20481   1.001   4.570  16.065 -0.0647 -0.1690 -0.3185
 7068W        W20482   7.115   6.484   0.899  0.1902 -0.0393  0.2655
 7069W        W20483   1.276   0.146  14.507  0.0606  0.1330 -0.2079
 7070W        W20484   9.709  16.384   5.120 -0.1232  0.2207 -0.1805
 7071W        W20485   0.047  11.111   2.722  0.2026  0.0978  0.1252
 7072W        W20486   5.923   4.869  14.077  0.0202  0.1058 -0.0732
 7073W        W20487   1.540  14.972   1.779  0.2194  0.0021  0.4211
 7074W        W20488   7.298  15.833   5.282  0.2680 -0.0782  0.0228
 7075W        W20489   5.007   4.046   1.982 -0.0939 -0.4079 -0.0857
 7076W        W20490  17.597   9.681  12.003 -0.1078 -0.1455 -0.3236
 7077W        W20491   9.761  12.148   3.567  0.0877  0.1627  0.1347
 7078W        W20492  18.178  13.857  15.306  0.3163 -0.2058  0.0858
 7079W        W20493   7.444  14.329   2.393  0.0618 -0.2054  0.2981
 7080W        W20494   7.411   0.214   1.649 -0.0528 -0.2247  0.0203
 7081W        W20495   6.743  11.942   1.603 -0.1690  0.2559  0.2095
 7082W        W20496   6.407  14.451   3.287  0.1596  0.1048  0.0476
 7083W        W20497  13.581   6.883   4.919 -0.3874  0.0303  0.3478
 7084W        W20498   0.221   3.779   4.396 -0.2277  0.0606 -0.1806
 7085W        W20499  12.776   9.514   2.533 -0.0267  0.1189  0.3504
 7086W        W20500   4.304   3.105  14.077 -0.0435  0.0700  0.0072
 7087W        W20501   7.812   9.165   4.942  0.0192 -0.2349  0.1539
 7088W        W20502   0.850  10.581  16.226 -0.0680  0.1664  0.0962
 7089W        W20503   8.820   3.724  10.896  0.2570  0.1282 -0.2365
 7090W        W20504  15.291  10.529   1.076  0.0550  0.0289 -0.3652
 7091W        W20505  12.139   4.193   1.937  0.0394  0.0671 -0.1812
 7092W        W20506  10.107  12.282   2.100  0.0600 -0.0320 -0.0597
 7093W        W20507   1.465   6.406   4.893  0.3019 -0.0029  0.0413
 7094W        W20508  15.244   6.077  10.632  0.1355 -0.3942 -0.0252
 7095W        W20509   3.897   3.233   4.017 -0.1589 -0.2412 -0.1655
 7096W        W20510   1.414  11.380  13.635 -0.2174 -0.3543  0.0094
 7097W        W20511   0.187   4.813  13.799  0.2743  0.1780  0.2189
 7098W        W20512   9.327   0.817  11.228  0.4515  0.0068  0.2182
 7099W        W20513   9.721   9.441  15.300  0.0937 -0.3756 -0.1176
 7100W        W20514   4.903  11.909   3.918  0.0595 -0.1804 -0.1098
 7101W        W20515  10.419   9.965   1.550  0.0273 -0.2044 -0.1262
 7102W        W20516  13.570   4.917  12.313  0.0359  0.2957 -0.0947
 7103W        W20517   8.312   2.503   2.232 -0.0433 -0.2198 -0.1500
 7104W        W20518   7.155  17.919  12.783  0.0971 -0.0452  0.1328
 7105W        W20519   9.034  12.619  12.293 -0.1443 -0.1604  0.2878
 7106W        W20520  12.447   4.057  10.968 -0.0349  0.0317  0.1155
 7107W        W20521   2.055  16.112  14.126  0.2309  0.1842 -0.1265
 7108W        W20522   6.698   1.779   0.403 -0.1450 -0.0111  0.0657
 7109W        W20523   4.199  16.168   1.966  0.3662  0.1430 -0.2251
 7110W        W20524  16.236  16.859   4.252  0.3024 -0.3063 -0.1367
 7111W        W20525  11.116  12.539  11.628 -0.2108 -0.3760 -0.1024
 7112W        W20526  13.784   9.501   2.271 -0.2172  0.0361 -0.1537
 7113W        W20527   8.614   7.018  14.232 -0.2184  0.1938  0.1602
 7114W        W20528   2.536   0.564   2.311 -0.3318 -0.0164  0.1375
 7115W        W20529  13.306  14.531  11.790 -0.1320  0.0005  0.2996
 7116W        W20530  17.768  17.587   1.600  0.1238  0.0822  0.0573
 7117W        W20531   4.470  15.691   2.640 -0.0194 -0.0929  0.0898
 7118W        W20532   3.844  13.138   2.861  0.1642 -0.1427 -0.2060
 7119W        W20533   4.132   9.998  14.160 -0.0468  0.1799  0.1846
 7120W        W20534  11.307   9.233   0.855  0.2429 -0.0749  0.1178
 7121W        W20535   7.988  18.188  14.399  0.0071  0.0449  0.0811
 7122W        W20536   4.828  13.376  13.881  0.0086  0.2180  0.3945
 7123W        W20537  14.521  15.055  10.194 -0.0380  0.2212 -0.1096
 7124W        W20538  17.972   6.316   5.095  0.2862  0.1693  0.0078
 7125W        W20539  15.213  14.161  14.550 -0.2383  0.0323 -0.0184
 7126W        W20540  17.009  15.257   6.157  0.1641 -0.0698 -0.1191
 7127W        W20541  16.718   3.241   5.811  0.0424  0.1678  0.0817
 7128W        W20542   8.248   7.161   3.495  0.0526 -0.0950  0.3120
 7129W        W20543  11.014  14.755  15.890 -0.2107 -0.2314 -0.0499
 7130W        W20544   4.162  11.338  16.006 -0.1637  0.0538 -0.0502
 7131W        W20545  11.875   0.694   5.407 -0.3081 -0.0136 -0.2198
 7132W        W20546   4.972   7.828  14.687  0.1459  0.1491  0.2523
 7133W        W20547   9.242   1.974   5.049  0.1519  0.1427  0.0160
 7134W        W20548  16.605  15.104  16.294 -0.1348 -0.2238 -0.3616
 7135W        W20549  16.452   6.595  10.463 -0.1650  0.0641  0.2702
 7136W        W20550   1.473  12.497   4.184  0.1676  0.1503 -0.1631
 7137W        W20551   9.750  11.923   5.356 -0.3118 -0.0691  0.4000
 7138W        W20552   8.881   2.052  13.653 -0.1909 -0.1090  0.1605
 7139W        W20553   8.841   4.098  14.725 -0.0267  0.0515 -0.0711
 7140W        W20554  11.921  15.196  11.253  0.0295 -0.3107 -0.0967
 7141W        W20555   5.551   3.232  13.855 -0.0376  0.0513  0.1159
 7142W        W20556   7.575   0.306  10.496  0.1893 -0.0372 -0.0740
 7143W        W20557  10.516  11.603   5.996 -0.0897 -0.0305  0.0656
 7144W        W20558   1.166   1.744  12.120  0.2331  0.1984  0.2388
 7145W        W20559   9.761   4.434   1.097  0.0872 -0.0463  0.1707
 7146W        W20560  17.374   9.462   5.919  0.0409 -0.1217 -0.1030
 7147W        W20561  13.180   6.238   0.854 -0.0774 -0.0443 -0.2263
 7148W        W20562  11.388   8.675  12.355  0.1214 -0.1126  0.0386
 7149W        W20563  12.015  15.950   3.162 -0.2009 -0.1324 -0.4039
 7150W        W20564   2.509   0.991   0.912 -0.0600  0.2307  0.0928
 7151W        W20565  11.691   6.677   3.649 -0.0941 -0.0736 -0.0062
 7152W        W20566  13.154   1.195  14.637  0.0711  0.0467 -0.1450
 7153W        W20567  14.362  10.820   0.425 -0.3883 -0.1372  0.1156
 7154W        W20568   3.085  13.531  13.942 -0.0632 -0.1135 -0.0732
 7155W        W20569  10.748  17.330  12.223  0.2627  0.2153 -0.1263
 7156W        W20570   2.342   2.624   5.811  0.1847  0.0123 -0.1170
 7157W        W20571  12.863   0.503   6.531 -0.2767 -0.0307 -0.0959
 7158W        W20572   5.010   7.141  15.700 -0.0968 -0.0110 -0.1548
 7159W        W20573   8.958   3.929  10.352  0.0150 -0.0301 -0.1952
 7160W        W20574  13.111  14.093   1.627  0.2680  0.1203  0.0507
 7161W        W20575   5.308   9.706   5.528  0.0872  0.0565 -0.0807
 7162W        W20576   6.254  16.620  11.191  0.1622 -0.2341  0.2982
 7163W        W20577  14.011   6.200   5.063 -0.2217 -0.1212 -0.1589
 7164W        W20578   2.521  17.405  11.397  0.2125 -0.1177 -0.0027
 7165W        W20579  14.197   1.525   0.899  0.1531  0.0223  0.0265
 7166W        W20580  17.853   6.163  14.804  0.2578  0.2936 -0.2201
 7167W        W20581   3.486   8.474   5.069  0.0698  0.1093 -0.1643
 7168W        W20582  12.321   7.022   1.637 -0.1465  0.0307 -0.0079
 7169W        W20583   2.462  14.084   1.499 -0.2097 -0.2746 -0.1865
 7170W        W20584   1.984  11.067   5.932 -0.1993  0.2224 -0.0019
 7171W        W20585  11.557   2.298  10.077 -0.1643 -0.1686 -0.2004
 7172W        W20586  17.499  17.814   5.762 -0.1621  0.3132 -0.1294
 7173W        W20587  16.313  15.085   2.560 -0.1804  0.2017  0.2417
 7174W        W20588  17.535   6.816   2.271  0.2014  0.2047  0.0207
 7175W        W20589   1.530  14.906  16.127  0.3115 -0.1192 -0.2870
 7176W        W20590   0.468   6.813  15.031 -0.0455  0.2415 -0.2074
 7177W        W20591  16.883   0.212   1.134  0.2343 -0.0226  0.0577
 7178W        W20592  11.052  16.715   4.642  0.0470 -0.4181  0.2461
 7179W        W20593   3.759  15.889   5.110 -0.2151  0.0612  0.0984
 7180W        W20594  17.156  10.690  15.015 -0.1467  0.1706 -0.1672
 7181W        W20595  12.628  16.581   6.501 -0.0666  0.0396  0.0791
 7182W        W20596  14.973  11.566   1.227 -0.1669  0.1028 -0.2012
 7183W        W20597  12.505  12.979  14.968  0.0016  0.2674 -0.1240
 7184W        W20598  17.913   2.291   4.125 -0.0523  0.0363  0.0286
 7185W        W20599  10.425   4.661  10.492  0.0794  0.1578  0.2189
 7186W        W20600   5.058   8.825  14.728 -0.2336  0.1356 -0.0756
 7187W        W20601  16.500  17.279  14.117 -0.0741  0.0436  0.1866
 7188W        W20602   8.349  10.686   3.754  0.0753  0.0171 -0.0038
 7189W        W20603   0.346  12.412   0.702 -0.1186 -0.2522  0.1409
 7190W        W20604   0.896  13.520  13.270  0.0192 -0.2930  0.0570
 7191W        W20605  13.502   3.494  15.502 -0.1145  0.0370 -0.1565
 7192W        W20606  15.835   0.153  13.842  0.0600 -0.2147  0.0556
 7193W        W20607  16.289  16.937   1.502 -0.0713  0.1090  0.1096
 7194W        W20608  11.102   6.018   0.942 -0.1889 -0.2023 -0.2324
 7195W        W20609   4.673   4.180   3.789 -0.0083 -0.0557 -0.0870
 7196W        W20610  14.485  17.334   1.192 -0.0544 -0.0605  0.0538
 7197W        W20611   9.529  13.311   1.383  0.4821  0.2405 -0.2539
 7198W        W20612  10.197  14.734   4.792  0.2624  0.3448  0.0144
 7199W        W20613   3.220   8.679   5.562 -0.1894  0.1126 -0.2417
 7200W        W20614  11.097   3.361  12.725  0.1433 -0.0916 -0.0194
 7201W        W20615   2.672  14.002  11.581  0.3810 -0.1632 -0.0924
 7202W        W20616   9.473   4.442   0.169 -0.2022 -0.0550  0.1436
 7203W        W20617  16.058   8.146  11.201  0.0770  0.1589 -0.1488
 7204W        W20618   8.082  17.513  12.570  0.0698 -0.2406  0.2949
 7205W        W20619   9.013   4.488  12.059  0.3074  0.1348 -0.0143
 7206W        W20620   3.183  15.442   2.569  0.0060 -0.1016  0.3564
 7207W        W20621   2.399   8.176   2.087  0.0102  0.0894 -0.0152
 7208W        W20622  16.025  17.670  16.003  0.0297  0.0431 -0.0373
 7209W        W20623   1.032   9.436  15.442  0.0225  0.0428 -0.1878
 7210W        W20624   3.616   7.511  10.712  0.1241  0.2077  0.1059
 7211W        W20625  16.282  11.628   1.458 -0.0657 -0.0761 -0.0547
 7212W        W20626   4.386   1.547  11.341  0.2367 -0.1858 -0.2248
 7213W        W20627  15.707  18.179   5.494 -0.0739 -0.0127  0.2724
 7214W        W20628  18.193   7.020   0.933 -0.0309  0.0423 -0.3118
 7215W        W20629   0.634   8.657  13.701  0.1310 -0.2877 -0.0235
 7216W        W20630   7.006  12.144   5.413 -0.0348 -0.1867  0.1208
 7217W        W20631   4.014  14.676  11.965 -0.0929 -0.3590 -0.1648
 7218W        W20632   6.632  18.145   2.105  0.1461  0.0051 -0.1399
 7219W        W20633   8.733  10.933  16.466 -0.1300 -0.1007 -0.1661
 7220W        W20634  18.221   3.161  14.134  0.1287 -0.0084 -0.1851
 7221W        W20635   9.821   5.976  15.058 -0.0488 -0.1295  0.3396
 7222W        W20636  16.490   8.780  14.191 -0.0392 -0.1694 -0.0990
 7223W        W20637   5.834   8.185  13.252 -0.2346  0.0104  0.0710
 7224W        W20638  12.067  10.416  10.556  0.0749 -0.3216  0.0850
 7225W        W20639  15.491  18.044  16.034 -0.0401 -0.2277 -0.1136
 7226W        W20640  14.336  17.961  10.987  0.2048 -0.0329  0.0052
 7227W        W20641   8.014  10.544  14.939 -0.0824 -0.2056 -0.2805
 7228W        W20642  13.434   2.282   2.224  0.4675 -0.0044 -0.0260
 7229W        W20643  10.525  10.277   3.402 -0.1914  0.2605  0.1258
 7230W        W20644  12.845  11.179   0.391  0.2445  0.0873  0.2313
 7231W        W20645  10.075  11.847  13.082  0.1964 -0.0236 -0.0024
 7232W        W20646   0.885   1.104   0.495  0.0862  0.3308 -0.1792
 7233W        W20647   0.011  14.916  12.149  0.1925  0.0558 -0.0966
 7234W        W20648  10.189   8.059   0.153  0.1407 -0.2202 -0.0703
 7235W        W20649  12.372  11.247   1.865 -0.1421 -0.1784  0.1176
 7236W        W20650  17.142   4.377  10.223 -0.1036  0.0111  0.1028
 7237W        W20651  17.773   3.123   2.756  0.2946  0.1106  0.2488
 7238W        W20652  17.773   7.264   1.532  0.1161  0.4200 -0.2226
 7239W        W20653  13.120   6.093  13.357 -0.2085 -0.0156 -0.2054
 7240W        W20654  17.610  10.092   1.201  0.1887  0.0035 -0.0520
 7241W        W20655  10.395   0.020   2.137  0.0979  0.1088  0.2456
 7242W        W20656   7.993  17.697  14.438 -0.0316  0.2431  0.0981
 7243W        W20657  16.247   1.965   5.603  0.0063 -0.0826 -0.1138
 7244W        W20658   2.916   6.466  15.831 -0.0149  0.1969  0.1825
 7245W        W20659  16.290  17.164   3.879  0.2642  0.0823 -0.0428
 7246W        W20660  14.448   4.966  10.322  0.0389 -0.0410  0.3306
 7247W        W20661   2.858   5.755   2.681 -0.1682 -0.1410 -0.1293
 7248W        W20662  13.671   9.275   0.062  0.3645  0.1122  0.1322
 7249W        W20663   1.387  14.539   2.026 -0.1513 -0.3150 -0.0423
 7250W        W20664   0.383   7.793   3.058  0.1396  0.3744 -0.1268
 7251W        W20665  18.097   0.266   3.123  0.0232  0.0740  0.2626
 7252W        W20666  18.073   5.998   0.947 -0.0996  0.0710 -0.2712
 7253W        W20667  14.748  12.948  15.744  0.0895  0.1347 -0.0473
 7254W        W20668   7.637   5.002  11.620 -0.4020  0.1137 -0.0419
 7255W        W20669   2.413   1.837   2.916  0.0335  0.2827 -0.1609
 7256W        W20670   5.055   8.996  12.354 -0.1481  0.5131  0.0272
 7257W        W20671   2.982  16.718  14.443  0.1175  0.1193 -0.1027
 7258W        W20672  13.379   8.154   2.335 -0.0583 -0.1398  0.0180
 7259W        W20673   2.741  13.307   4.142  0.1988 -0.0977  0.6099
 7260W        W20674  17.182  12.391   0.864  0.1098 -0.2456 -0.1789
 7261W        W20675   9.502  12.650   4.187 -0.0633  0.0183  0.0746
 7262W        W20676  16.223  16.270   0.634  0.1260 -0.1542 -0.0838
 7263W        W20677  17.966  14.639  11.916  0.0612 -0.1329 -0.1757
 7264W        W20678  15.391   3.945   3.902 -0.0029  0.0659  0.3230
 7265W        W20679  10.093   0.622  15.095 -0.0219  0.2239 -0.2325
 7266W        W20680   9.200   2.074   1.422  0.0031 -0.0595  0.1604
 7267W        W20681  13.243   9.012  13.628  0.1605  0.0665 -0.0023
 7268W        W20682  12.360  11.944   4.606  0.2827 -0.1911 -0.3141
 7269W        W20683   0.616  14.129   3.500 -0.0070 -0.3637 -0.4586
 7270W        W20684   0.499   5.568   2.362 -0.2052 -0.0194  0.0865
 7271W        W20685   6.726   5.722  13.554  0.1502 -0.3836 -0.0461
 7272W        W20686  11.150  12.044   0.206  0.3474  0.1083 -0.1312
 7273W        W20687   0.617   2.726   4.773 -0.1963  0.0014 -0.1323
 7274W        W20688   8.115  16.856   5.689 -0.1724 -0.2391 -0.1535
 7275W        W20689   3.175   2.206   4.587 -0.0156  0.1480 -0.3485
 7276W        W20690   3.402  14.249   5.549  0.1969 -0.1395  0.0592
 7277W        W20691  16.470   0.267  12.653  0.3045  0.0241  0.1411
 7278W        W20692   4.848   3.349   3.134  0.1122  0.0911  0.0355
 7279W        W20693  13.565  15.339   1.427 -0.0774  0.1321 -0.1762
 7280W        W20694  14.136  12.869  12.962 -0.1721  0.0718  0.2621
 7281W        W20695  13.606   5.749   3.585  0.0909 -0.2501 -0.0510
 7282W        W20696   4.302  11.202   5.956  0.1539  0.2223  0.0609
 7283W        W20697   1.744   7.141   2.152 -0.0460 -0.2254 -0.1569
 7284W        W20698  13.560   0.376   4.757  0.0745 -0.2148 -0.1953
 7285W        W20699   4.837  18.040  15.144 -0.0113  0.2586  0.1554
 7286W        W20700   1.893   8.072  13.389  0.2232  0.2240  0.2033
 7287W        W20701  13.814  15.949   5.975  0.0833 -0.1708 -0.4271
 7288W        W20702  11.979  16.827  16.040  0.3323  0.0226  0.0783
 7289W        W20703   1.660  15.500   1.888 -0.1683 -0.3631 -0.2171
 7290W        W20704   9.658   9.134  15.709  0.0790  0.2325 -0.3213
 7291W        W20705   2.957   7.532   1.652 -0.0554 -0.0172 -0.0463
 7292W        W20706  14.779   5.268  16.365 -0.3135 -0.0070  0.0346
 7293W        W20707   8.387   7.390  15.385 -0.1947 -0.1804 -0.0901
 7294W        W20708  12.940   6.676   3.673  0.4193 -0.2588  0.0514
 7295W        W20709  15.148   7.846   1.857 -0.4346 -0.4961  0.3976
 7296W        W20710  10.966   6.849  12.884  0.0937 -0.0433 -0.0813
 7297W        W20711  15.070  17.095   0.270  0.0923  0.2839 -0.0113
 7298W        W20712  17.824  15.431   1.451 -0.2651  0.1629  0.0931
 7299W        W20713  12.693  10.131  10.718 -0.1431  0.0650  0.2749
 7300W        W20714   8.330  15.651   1.671  0.2334  0.0547 -0.0706
 7301W        W20715   4.644  11.101   3.873  0.0673 -0.1882 -0.1551
 7302W        W20716   7.402   1.831  16.484 -0.1599  0.1934  0.0152
 7303W        W20717  18.146   0.238   4.100  0.1872  0.2573 -0.2362
 7304W        W20718  17.568  16.754   0.943 -0.2563  0.0578  0.0043
 7305W        W20719  18.142   7.432   2.121  0.1829  0.0840  0.1770
 7306W        W20720  14.336   8.751   1.157 -0.0285 -0.0956  0.2570
 7307W        W20721  14.233   4.810  14.848 -0.2770 -0.3760  0.1666
 7308W        W20722   8.735   0.775   2.499 -0.0071  0.2431 -0.1878
 7309W        W20723   4.799   8.504  15.672  0.1114 -0.3138  0.1785
 7310W        W20724  10.238   0.401  14.681 -0.1272  0.2461 -0.3566
 7311W        W20725  16.878   3.559  12.981 -0.1073  0.0497  0.1158
 7312W        W20726  14.276  14.335   3.430  0.0551  0.0639  0.2678
 7313W        W20727  11.277  12.341   5.101 -0.1669 -0.1434 -0.4050
 7314W        W20728   8.631  16.948  10.442  0.3860  0.0024  0.1519
 7315W        W20729   4.370  13.257  16.306  0.0173 -0.0761  0.0603
 7316W        W20730  18.255   7.849   4.073  0.0015  0.0449 -0.2805
 7317W        W20731   6.051   0.428   1.371  0.2770  0.0997 -0.2355
 7318W        W20732  16.934   5.239   6.210  0.1560  0.1762  0.0349
 7319W        W20733   2.686  10.842  12.531 -0.1285 -0.1990 -0.0375
 7320W        W20734   4.076  10.424  13.173  0.2131 -0.0499  0.0633
 7321W        W20735  16.114   0.599   0.373 -0.1534 -0.0436 -0.0378
 7322W        W20736  10.516   0.254  11.783 -0.2722 -0.0407  0.1482
 7323W        W20737   3.434   3.357  12.723  0.0563  0.2133 -0.0899
 7324W        W20738  14.058  17.003  12.845 -0.1312  0.0208  0.1560
 7325W        W20739   2.150   3.704   3.749  0.0262  0.3060 -0.2344
 7326W        W20740   9.623  13.894  11.147 -0.1502  0.1599  0.1715
 7327W        W20741   9.314  15.868   0.075 -0.4782 -0.1327  0.2664
 7328W        W20742  11.627   4.070  13.227 -0.0247 -0.0255 -0.0534
 7329W        W20743   8.658   1.602   4.533  0.2526 -0.3005 -0.2130
 7330W        W20744   8.847   4.729   1.305  0.0059 -0.0483  0.1461
 7331W        W20745   4.174   4.596  12.974  0.1118  0.1753  0.1054
 7332W        W20746  10.490   2.486  11.824 -0.0833  0.0180  0.2643
 7333W        W20747  15.548  11.006  15.352  0.4168  0.2100 -0.0463
 7334W        W20748   9.562  11.732  14.692  0.0018  0.2779 -0.1053
 7335W        W20749   7.566   5.911   3.867  0.2383 -0.5144 -0.2744
 7336W        W20750   6.876   7.354   3.482  0.0016 -0.0422 -0.3870
 7337W        W20751   0.998   8.759   2.119  0.0416 -0.2747 -0.2122
 7338W        W20752  13.424  17.188  14.366 -0.1663 -0.0970 -0.4595
 7339W        W20753   9.949  18.076  12.616 -0.0224 -0.4046  0.4228
 7340W        W20754   4.453  16.645  10.926  0.0869  0.2139  0.2936
 7341W        W20755   8.198   4.226   9.807  0.4006 -0.0643  0.0017
 7342W        W20756  13.401  12.829  11.618 -0.0661  0.1961  0.1750
 7343W        W20757   1.458   6.529   2.847  0.0232 -0.1256 -0.1030
 7344W        W20758   1.545   5.396  14.917  0.1978 -0.1268  0.1075
 7345W        W20759   1.245   8.094   0.974  0.1052 -0.1679  0.0872
 7346W        W20760   1.071  16.597   1.363  0.1319  0.1638 -0.0565
 7347W        W20761   7.059   7.845   5.950 -0.0320 -0.1284  0.0961
 7348W        W20762   3.032   3.648  13.977 -0.4130  0.0508 -0.0308
 7349W        W20763  13.919  13.380   2.653  0.1719  0.0612  0.2657
 7350W        W20764   1.042   3.296   1.313  0.1502 -0.1054 -0.0656
 7351W        W20765  14.517  17.903   5.883  0.0778 -0.0216  0.1089
 7352W        W20766  16.398   2.859   3.395  0.0488 -0.0299 -0.0273
 7353W        W20767   4.437   9.382  14.810 -0.2239  0.1442 -0.1834
 7354W        W20768   4.470  17.744  15.199 -0.2070 -0.1356 -0.0848
 7355W        W20769   0.898  10.052   4.071 -0.2204  0.0165  0.0440
 7356W        W20770  14.687   8.885   4.476  0.1274  0.1306  0.0834
 7357W        W20771   6.184   7.223   2.735  0.1561 -0.0157  0.0407
 7358W        W20772  15.671   6.278   1.507 -0.2561  0.0551  0.2662
 7359W        W20773  12.531  17.519  14.235 -0.0818 -0.0165 -0.3817
 7360W        W20774   3.422   7.323   1.826  0.1773  0.3333 -0.2870
 7361W        W20775   6.344  17.570   9.728 -0.0159  0.1434 -0.1334
 7362W        W20776  13.464   0.163   5.514 -0.2453  0.0053 -0.0443
 7363W        W20777   9.844   3.816   3.586  0.1614  0.0054  0.0914
 7364W        W20778   9.208  17.039  12.069 -0.0280  0.1087  0.4765
 7365W        W20779  13.646   5.747  13.397 -0.1432  0.0237 -0.1613
 7366W        W20780   9.245  15.652  11.642 -0.0024  0.0536  0.1415
 7367W        W20781  11.057   9.555   3.260  0.2045  0.4347 -0.0366
 7368W        W20782   5.553   5.914  13.469 -0.0681 -0.4212  0.1870
 7369W        W20783   0.845  15.869   1.677  0.2362 -0.0216  0.1262
 7370W        W20784  13.183  15.117   0.885  0.0815  0.1328  0.1120
 7371W        W20785  12.958   9.661   1.429  0.3060 -0.1236 -0.1511
 7372W        W20786   3.662   7.521  15.105 -0.2198  0.4297  0.0676
 7373W        W20787   6.084   5.413  13.736 -0.1405  0.0569 -0.0626
 7374W        W20788  17.523  15.035   5.258 -0.0197 -0.0861  0.2925
 7375W        W20789   9.836   5.824  11.919  0.0884  0.0824 -0.1126
 7376W        W20790  18.120  10.150   1.165  0.0085 -0.0791 -0.0261
 7377W        W20791   1.359   8.427   5.482 -0.1312  0.0816 -0.2055
 7378W        W20792  15.561   4.160  15.101 -0.3451 -0.1537  0.0681
 7379W        W20793   0.954   6.967  15.923 -0.0101 -0.2301  0.0007
 7380W        W20794  13.313  12.177  15.341  0.2374  0.0533 -0.0879
 7381W        W20795   0.318   6.621  13.998 -0.3209 -0.0369 -0.0528
 7382W        W20796  10.873   8.122  12.563  0.1800 -0.4104  0.1756
 7383W        W20797   0.186  16.513   2.256  0.0154  0.3088 -0.2425
 7384W        W20798   6.168   1.221  14.343  0.2881  0.0060  0.2543
 7385W        W20799   1.708   0.657   0.698  0.0915  0.0033  0.1126
 7386W        W20800   9.180  16.348   5.234  0.2058 -0.0091 -0.2108
 7387W        W20801   8.724  15.703   5.605 -0.0200  0.0914  0.0890
 7388W        W20802   4.124  16.045  11.761  0.0053 -0.2507  0.0761
 7389W        W20803   0.107   9.423  14.696  0.0408  0.0132 -0.3382
 7390W        W20804   9.877  17.672  10.526  0.0094 -0.0032 -0.2041
 7391W        W20805   8.410  16.294   2.863  0.2334  0.1340 -0.3272
 7392W        W20806   3.255   0.741   1.192 -0.0063  0.2173 -0.1665
 7393W        W20807   1.841  12.751   6.187 -0.3910 -0.0971 -0.3464
 7394W        W20808   9.799   1.831  11.409  0.0038 -0.1020 -0.0405
 7395W        W20809   8.664   8.069   0.375 -0.3216  0.0112  0.0994
 7396W        W20810  13.763  10.057   9.871  0.0458  0.2393 -0.2628
 7397W        W20811  12.772   2.648  10.441 -0.1085 -0.1341  0.1356
 7398W        W20812  13.713  10.128   5.081 -0.2244 -0.4407 -0.1197
 7399W        W20813  16.388  18.064  13.859 -0.0642  0.1194 -0.0727
 7400W        W20814  16.233  15.185  11.657 -0.2039 -0.0041  0.0542
 7401W        W20815  16.630   0.637   2.652 -0.2196  0.1119 -0.4903
 7402W        W20816   7.651  12.751   5.600 -0.0195  0.2557 -0.1391
 7403W        W20817   6.440   1.862   0.960 -0.0076  0.0711  0.1151
 7404W        W20818   1.370  15.392   5.539  0.0243  0.2535 -0.1324
 7405W        W20819  14.543  15.477   3.332  0.1242  0.1499  0.1930
 7406W        W20820   8.258  10.086  12.708 -0.0186  0.0735 -0.1521
 7407W        W20821  13.374   5.660   4.387  0.0532 -0.3236 -0.1285
 7408W        W20822   7.304   8.217  12.399 -0.1980 -0.1288  0.0722
 7409W        W20823  13.915  11.157  11.111  0.2699  0.2007 -0.2294
 7410W        W20824  13.357   6.914  12.341  0.1029  0.0954  0.3504
 7411W        W20825  17.429   1.471   1.194 -0.2347  0.2730 -0.0087
 7412W        W20826  11.754   6.870   4.188 -0.1951 -0.1118  0.1272
 7413W        W20827  13.745  17.536  15.714  0.0401  0.1401 -0.2128
 7414W        W20828  16.933  17.006   5.590 -0.1724 -0.0923  0.1255
 7415W        W20829  10.347   4.583  13.543  0.3065  0.2022 -0.0909
 7416W        W20830   8.378  12.877  16.475 -0.2622  0.0663 -0.0224
 7417W        W20831   5.451   4.871  14.063 -0.0343  0.2052 -0.0594
 7418W        W20832  11.339  14.365  14.720 -0.2757  0.0264  0.0390
 7419W        W20833   5.456  17.747   4.246  0.0735  0.1843  0.1946
 7420W        W20834   4.406  14.841  14.574 -0.1194 -0.0782 -0.0076
 7421W        W20835  12.969  11.069   2.737 -0.0399 -0.6194  0.0810
 7422W        W20836  14.491   6.604  10.146 -0.1051  0.0541 -0.0241
 7423W        W20837   9.664   6.160  14.206 -0.4934  0.0238 -0.4140
 7424W        W20838   2.879   6.423   1.682 -0.1419 -0.1580  0.0094
 7425W        W20839   1.852  11.058  11.638  0.0592  0.0821 -0.3960
 7426W        W20840   1.302   6.969   2.434  0.0425  0.0533  0.1279
 7427W        W20841   7.732  15.055  12.452 -0.0740  0.1150  0.1313
 7428W        W20842  16.163  13.387   3.815  0.0524 -0.0165 -0.2768
 7429W        W20843   7.692  11.128   1.247  0.2450 -0.1669 -0.0503
 7430W        W20844   3.319   5.566  13.285 -0.1370  0.0427  0.0213
 7431W        W20845  17.247   9.245   3.218 -0.0846  0.1230 -0.1767
 7432W        W20846   9.003  11.870   2.127 -0.1225 -0.0484  0.1447
 7433W        W20847   0.393  16.425   0.154  0.1403 -0.0162  0.0562
 7434W        W20848  10.309   9.918   9.859  0.0659  0.1621 -0.2122
 7435W        W20849  14.394   2.479   3.936  0.1234  0.0042 -0.0577
 7436W        W20850  10.374  13.802   5.066  0.1628 -0.1233  0.1045
 7437W        W20851  14.487  13.690  15.830  0.0415 -0.0851 -0.0939
 7438W        W20852  12.006   9.652  10.999 -0.0041  0.0234 -0.2724
 7439W        W20853  16.422  16.178  12.609 -0.0692 -0.0707 -0.0777
 7440W        W20854  18.169  17.848   4.786  0.3088  0.1168  0.1783
 7441W        W20855  11.293   9.069   3.285 -0.2830 -0.0101  0.1895
 7442W        W20856  11.092   7.630  13.946 -0.1818 -0.3550  0.0790
 7443W        W20857   2.403  10.488   1.641 -0.1345  0.0330  0.1877
 7444W        W20858  14.318   7.456  12.915 -0.0459  0.1247  0.2074
 7445W        W20859  10.274  15.755  11.681  0.3737  0.1363  0.0744
 7446W        W20860  16.003  12.506  13.755 -0.3754 -0.2036 -0.1088
 7447W        W20861  10.983   6.129  10.571  0.0396 -0.1628 -0.1949
 7448W        W20862  14.557   0.362  12.252  0.0732  0.0892  0.2086
 7449W        W20863  11.449  12.073   3.332  0.2557  0.1733 -0.2577
 7450W        W20864  16.818  14.408   5.606  0.0421 -0.0383 -0.2630
 7451W        W20865   9.681   0.403   2.442  0.2793 -0.0974  0.1048
 7452W        W20866  12.801   5.498   3.560 -0.1254  0.1984  0.2673
 7453W        W20867  13.593  14.673  12.523 -0.0357 -0.0445 -0.0473
 7454W        W20868  17.592   2.737  12.246 -0.0188  0.1003 -0.0957
 7455W        W20869  11.125  13.833  10.884  0.4340 -0.0197  0.1628
 7456W        W20870   5.349   9.102  16.147 -0.2837 -0.1499  0.1269
 7457W        W20871   2.615  12.327   4.113  0.1521  0.0760 -0.3606
 7458W        W20872   5.547   6.349  14.568 -0.0411  0.4734  0.1233
 7459W        W20873  16.992   2.794   5.745 -0.1042 -0.2735  0.0854
 7460W        W20874  11.906   3.521  14.830 -0.1575 -0.1569  0.0223
 7461W        W20875   1.312  10.077  13.442  0.2173  0.0110 -0.0577
 7462W        W20876  11.909  16.860   1.243 -0.2157  0.3432  0.0658
 7463W        W20877   3.845   3.242  13.943 -0.5009 -0.2118 -0.2685
 7464W        W20878   7.581   1.772  13.573 -0.2506  0.2480  0.1066
 7465W        W20879  16.001   9.648  14.243  0.2389 -0.0036  0.0890
 7466W        W20880  14.943  16.102   5.820 -0.2719  0.2771  0.2808
 7467W        W20881  14.747   6.247  13.089 -0.0285  0.1736  0.1809
 7468W        W20882   7.859  11.037  15.092 -0.4102  0.3900 -0.1599
 7469W        W20883   4.065  17.650  11.166 -0.0723  0.0408 -0.0232
 7470W        W20884   8.296   7.318   1.379  0.1896  0.1602 -0.4176
 7471W        W20885  13.924   7.065  10.525 -0.0621  0.1180 -0.0938
 7472W        W20886   0.317   4.966   1.776 -0.1013  0.0381 -0.1939
 7473W        W20887   7.121   7.178  11.566  0.0185 -0.0701  0.1328
 7474W        W20888   7.526  17.274   4.865 -0.0684 -0.0100  0.1046
 7475W        W20889   3.122  15.496   3.118  0.1365  0.1529  0.1722
 7476W        W20890  15.068   4.909   0.471  0.0185 -0.0183  0.1444
 7477W        W20891   4.907  10.120  13.162  0.5599 -0.1862 -0.0540
 7478W        W20892   7.266  16.085   3.521  0.4234 -0.2061 -0.0647
 7479W        W20893   3.767   3.689  12.539  0.0520  0.2837 -0.2162
 7480W        W20894   2.137  13.664  14.446  0.0038 -0.1279  0.0267
 7481W        W20895   9.061  16.834   3.262 -0.1337  0.0975 -0.0803
 7482W        W20896  14.001   3.537   1.874  0.0030 -0.1048 -0.0837
 7483W        W20897   0.618  17.699  15.296 -0.1699 -0.0789 -0.0517
 7484W        W20898   1.392  11.264  11.772 -0.1079 -0.0417  0.4053
 7485W        W20899  12.248   7.402   6.010 -0.1008 -0.2611  0.0084
 7486W        W20900   0.786  12.316  13.066  0.1576 -0.1591 -0.2407
 7487W        W20901   2.348   9.024  10.614  0.0567  0.0717  0.0504
 7488W        W20902   1.863   8.543   1.694 -0.2911 -0.2958  0.2181
 7489W        W20903   2.674  17.698   0.502  0.1341 -0.1897 -0.0499
 7490W        W20904   7.129  17.407  12.656  0.2989  0.0197  0.0660
 7491W        W20905   1.955  13.766  11.594  0.2180 -0.2132  0.3817
 7492W        W20906  12.114  14.641  13.745  0.1064  0.1033  0.0884
 7493W        W20907   5.737   6.253   5.751  0.0093  0.2565  0.0653
 7494W        W20908   1.511   2.219  12.033 -0.2448 -0.1650 -0.1121
 7495W        W20909   0.343   5.202   5.214  0.0566  0.2036 -0.2446
 7496W        W20910   6.461  13.676  15.710  0.1924  0.0154  0.4674
 7497W        W20911  14.230   8.831  11.011 -0.0958 -0.0033  0.2281
 7498W        W20912   7.865  10.279   6.040 -0.3605  0.0208  0.0337
 7499W        W20913   7.463  11.972  15.393  0.1167 -0.2291 -0.1163
 7500W        W20914  15.268   6.319  11.664 -0.1307 -0.0903 -0.1147
 7501W        W20915   3.040  17.215   0.865 -0.0136  0.4504 -0.0225
 7502W        W20916   8.803  13.989  11.054  0.1044  0.5430 -0.1629
 7503W        W20917   6.239  13.330   6.461  0.3607 -0.0777  0.2241
 7504W        W20918  14.419  14.100   0.993 -0.0030  0.0308 -0.0874
 7505W        W20919  16.082  13.238  11.852 -0.1784 -0.0659 -0.2002
 7506W        W20920   6.068  10.260  16.010 -0.1376  0.0783 -0.1646
 7507W        W20921   0.438  16.770   0.812  0.0375  0.1125 -0.0681
 7508W        W20922   9.252   3.320   4.184  0.1250  0.1576 -0.0117
 7509W        W20923   4.618  16.042   1.013  0.1658  0.0216  0.0198
 7510W        W20924  16.288   2.627   5.156  0.0418  0.3821 -0.2005
 7511W        W20925  11.963  13.228  12.116 -0.1992 -0.0204 -0.1206
 7512W        W20926  15.431   6.415   0.026 -0.1811 -0.0240 -0.0571
 7513W        W20927  17.927   7.002  16.051  0.3498  0.3387 -0.0896
 7514W        W20928  13.202   9.723  14.371 -0.0200  0.1732  0.0662
 7515W        W20929   5.659  10.587  16.132 -0.1580 -0.0313 -0.2471
 7516W        W20930  11.552   2.277  13.351 -0.3147  0.1716  0.0630
 7517W        W20931   0.453   1.960  15.329 -0.1092 -0.1638 -0.3585
 7518W        W20932   5.974   7.824   5.019  0.0518  0.4860  0.1060
 7519W        W20933   8.661  17.446  15.342 -0.3389  0.1152 -0.1102
 7520W        W20934   9.884   4.686  10.542 -0.4178  0.0006  0.1472
 7521W        W20935   6.714   4.335   2.112  0.1705 -0.1621  0.1887
 7522W        W20936   6.325  15.432  12.950 -0.1970  0.0509 -0.4355
 7523W        W20937   7.306   7.753  14.893 -0.1720 -0.0898 -0.0280
 7524W        W20938   8.761   3.404  11.290  0.0582  0.3460 -0.1392
 7525W        W20939   3.624  14.249   3.288 -0.2297 -0.0735 -0.0485
 7526W        W20940  13.757   0.065   1.121 -0.2527  0.1603  0.4645
 7527W        W20941  10.286   2.920  14.797  0.2554  0.2158 -0.0955
 7528W        W20942  15.751   3.188  11.109 -0.2256 -0.3214 -0.2715
 7529W        W20943   8.812   8.503   0.624  0.1445 -0.0109 -0.1090
 7530W        W20944   7.912  15.861  14.487  0.0557  0.1327  0.0198
 7531W        W20945  13.905  13.699   1.084 -0.1108  0.0687 -0.2401
 7532W        W20946  10.653   1.556   3.615 -0.0615  0.1499  0.2975
 7533W        W20947   2.724   5.546  16.121  0.0555  0.1481  0.0456
 7534W        W20948   7.077  17.784   4.710 -0.1470  0.0987 -0.2429
 7535W        W20949  12.196   7.746  14.013  0.0475  0.0350  0.2679
 7536W        W20950  13.432  14.877  10.533  0.1616  0.3731 -0.0485
 7537W        W20951   0.076   0.200  12.972  0.0706 -0.0193 -0.0668
 7538W        W20952   5.490   2.354  14.044 -0.0387  0.2215 -0.1240
 7539W        W20953  16.219   1.231  11.716  0.2375 -0.0605 -0.4544
 7540W        W20954   4.813   5.314  12.649 -0.0394 -0.1861  0.1955
 7541W        W20955   7.517  16.796  13.751 -0.1027 -0.0970  0.0462
 7542W        W20956   6.217   8.577   3.411 -0.3068  0.0534 -0.0118
 7543W        W20957   7.484   3.758   2.322 -0.2468  0.2232 -0.0370
 7544W        W20958  13.911   9.481   4.231  0.1866 -0.1295  0.2241
 7545W        W20959   5.045   8.793   2.220 -0.0526  0.3060  0.0707
 7546W        W20960   3.424  17.639   2.269  0.1281  0.1310  0.3948
 7547W        W20961  16.619   7.452  12.717 -0.0497  0.0524  0.4016
 7548W        W20962  10.602  12.392  12.020  0.3184  0.1432  0.0136
 7549W        W20963   5.692  10.462  11.814 -0.0967 -0.1602 -0.3197
 7550W        W20964   8.602   9.258  14.296 -0.0242 -0.1342 -0.2255
 7551W        W20965   9.435   1.139   2.817  0.0414  0.0982 -0.1910
 7552W        W20966  15.642   5.324   4.872  0.1656  0.1661  0.0134
 7553W        W20967  10.054  15.374   2.201 -0.0648  0.0259 -0.2467
 7554W        W20968  16.616   2.078  14.783  0.0538 -0.1052  0.1160
 7555W        W20969  15.101   1.772   1.279 -0.0058 -0.1517  0.1926
 7556W        W20970   3.981   2.645  10.811 -0.0829  0.1788  0.1605
 7557W        W20971   7.027  16.265   5.308  0.1432 -0.1804 -0.2728
 7558W        W20972   2.598  16.076   5.462  0.0087  0.2274 -0.1174
 7559W        W20973  11.911  11.214  10.664  0.3072  0.0553 -0.1325
 7560W        W20974   8.836   8.470   0.129 -0.1237 -0.0605  0.3662
 7561W        W20975   7.895  16.553   2.184 -0.1684  0.2296 -0.3158
 7562W        W20976   4.669  13.056   2.208  0.0870  0.0159  0.0969
 7563W        W20977   5.725   7.202   2.021 -0.0716  0.0450  0.0264
 7564W        W20978  13.215   9.893   4.230  0.1076 -0.0771 -0.2884
 7565W        W20979  17.557  16.903   0.453 -0.0053  0.0722  0.0963
 7566W        W20980  11.259   2.832  14.489  0.2100 -0.3100  0.1546
 7567W        W20981   0.204   0.545   1.818  0.1015 -0.0528  0.0717
 7568W        W20982  17.671  17.940  15.995  0.3180  0.1833 -0.0301
 7569W        W20983  11.446   1.202   1.580  0.2602 -0.3877  0.2271
 7570W        W20984   1.476  13.715  13.713  0.2255 -0.2688 -0.1785
 7571W        W20985   4.528  16.893  14.135  0.2347  0.2094  0.0902
 7572W        W20986  13.814  16.689  15.341 -0.1537 -0.1908  0.2558
 7573W        W20987   9.992   7.645   0.738  0.0893 -0.1059 -0.1308
 7574W        W20988   5.448   6.835  14.588  0.0134  0.1853  0.1643
 7575W        W20989   9.494   8.151   2.685  0.2712 -0.0547  0.2856
 7576W        W20990  11.591  13.699   1.048  0.0753 -0.0231 -0.1018
 7577W        W20991   8.891   7.814  14.044 -0.2325 -0.2700  0.1651
 7578W        W20992  15.063   1.183   2.854  0.1418 -0.3774 -0.1285
 7579W        W20993   7.819  17.808  10.749  0.0031 -0.4788  0.2686
 7580W        W20994  17.499   3.273  14.671  0.1172 -0.2511  0.1811
 7581W        W20995  14.615  11.677  11.563  0.2674 -0.0712  0.0241
 7582W        W20996   5.181  13.751  12.269  0.0712  0.2490 -0.2900
 7583W        W20997  13.858   2.977   1.299  0.2815 -0.0813  0.1348
 7584W        W20998   0.818  17.033  13.589  0.0059 -0.1050  0.0231
 7585W        W20999   2.071   8.556   2.206  0.3163  0.0555  0.0160
 7586W        W21000  15.489   7.945  11.178 -0.1107 -0.1310 -0.2898
 7587W        W21001   2.425   1.098   2.203  0.2500 -0.1363 -0.2974
 7588W        W21002   0.923   1.865  14.523  0.1582 -0.1280  0.0849
 7589W        W21003  10.977   8.466  11.139  0.1246  0.0245 -0.1243
 7590W        W21004  15.061  16.778  11.185  0.2356 -0.2431 -0.1167
 7591W        W21005   9.171  17.181  15.832 -0.4694 -0.1125  0.0865
 7592W        W21006  13.660  12.075   2.632  0.0091  0.1896  0.0909
 7593W        W21007   0.577  11.211  11.713 -0.0204 -0.0738 -0.2002
 7594W        W21008   0.165   9.202  15.627 -0.0864 -0.1091  0.0219
 7595W        W21009  15.812   4.041  14.008 -0.2174  0.0422  0.4598
 7596W        W21010  12.911  15.430  11.670  0.4128 -0.0747  0.0972
 7597W        W21011   1.813  16.206   2.126 -0.3016 -0.2692 -0.0374
 7598W        W21012   8.647   4.383  13.814  0.0100 -0.1982 -0.2360
 7599W        W21013   1.793   7.619   2.301  0.2602 -0.1885 -0.0025
 7600W        W21014   1.946   1.844   1.727 -0.2206  0.0850  0.0901
 7601W        W21015  15.049   2.750  14.324 -0.0555  0.2370  0.1557
 7602W        W21016  12.811   5.781   0.378 -0.1059 -0.1424 -0.1514
 7603W        W21017   9.112   4.109   0.504 -0.0007 -0.1555 -0.0654
 7604W        W21018   2.360   4.223  14.546 -0.0739 -0.0564  0.0302
 7605W        W21019  10.130   2.337   1.569  0.1145  0.0362  0.0838
 7606W        W21020  13.548  15.088   4.715 -0.0454  0.1003  0.0679
 7607W        W21021   5.320  18.032  15.041 -0.1683 -0.1054  0.2974
 7608W        W21022  10.107   3.687  12.243 -0.1375 -0.1810  0.2257
 7609W        W21023   2.164   6.912   0.360 -0.0019 -0.1219 -0.3740
 7610W        W21024   3.959  17.243   0.059  0.0049 -0.0456  0.0187
 7611W        W21025  11.997   0.779  14.339 -0.2612 -0.1680 -0.3458
 7612W        W21026   9.923   4.105  12.499  0.3686 -0.0441 -0.2853
 7613W        W21027  10.984   7.127  11.539  0.3280  0.0229 -0.0181
 7614W        W21028  17.575  12.916  10.269 -0.4167  0.0555  0.0002
 7615W        W21029   9.252   7.592   4.005  0.0437  0.0727  0.1656
 7616W        W21030  16.939  10.585  13.196 -0.2131 -0.2572  0.2051
 7617W        W21031   6.942  14.607   5.898 -0.1821 -0.1381  0.0154
 7618W        W21032   8.718  17.265  11.290 -0.1195 -0.2174 -0.2246
 7619W        W21033  11.155  11.576  13.419  0.0111 -0.0678 -0.0112
 7620W        W21034   7.144  15.815  11.868  0.1483  0.1750 -0.2078
 7621W        W21035   5.653  14.868   5.385  0.0482 -0.2669 -0.0751
 7622W        W21036  11.362   5.023  13.175  0.3445  0.2884  0.0821
 7623W        W21037  13.828   9.204  10.892 -0.2094 -0.0609 -0.1595
 7624W        W21038  10.627   6.875  12.298 -0.2770 -0.1658  0.0247
 7625W        W21039   7.682   5.176  15.469 -0.0038 -0.1567  0.0868
 7626W        W21040   7.000  13.901   5.370  0.0694  0.0065  0.0081
 7627W        W21041   7.550   2.084  13.139 -0.0191 -0.2192 -0.2174
 7628W        W21042  17.817  13.926  12.929  0.1762  0.1005  0.2372
 7629W        W21043  16.611  14.073  12.001 -0.2589  0.0574 -0.1433
 7630W        W21044   7.504  15.784   2.993 -0.0359 -0.0790 -0.3206
 7631W        W21045   3.887   2.786  13.926  0.1415  0.0661  0.3367
 7632W        W21046  12.161  12.135   5.046  0.1649  0.1246 -0.0232
 7633W        W21047  16.943  10.155  13.372 -0.3136 -0.2432  0.3397
 7634W        W21048  17.533  13.316   1.074 -0.0517 -0.2204 -0.2153
 7635W        W21049   1.518  13.021   4.223 -0.1813  0.2196  0.2671
 7636W        W21050  14.879  17.477  15.916 -0.0442  0.2506 -0.1284
 7637W        W21051   8.917   3.777  11.648  0.0929  0.2050 -0.0892
 7638W        W21052   3.170  16.045   3.331  0.0794  0.1136 -0.1304
 7639W        W21053   9.847  14.034  13.183  0.3166 -0.1484 -0.1546
 7640W        W21054   7.914   4.476  15.476 -0.0522 -0.0768  0.2565
 7641W        W21055  12.621  10.754   0.251  0.2087  0.2753 -0.0144
 7642W        W21056   6.158  11.401   5.195  0.2227 -0.0132 -0.4444
 7643W        W21057  14.614   9.906  14.672  0.0695 -0.1162  0.1391
 7644W        W21058  11.371  16.706   5.409 -0.2725 -0.1523 -0.0273
 7645W        W21059  16.378   1.483  12.760 -0.0522  0.0400 -0.0698
 7646W        W21060   9.965  13.341  14.432  0.1196  0.0499  0.5067
 7647W        W21061   7.738   9.633   4.124 -0.1451 -0.0280 -0.1479
 7648W        W21062  18.062  16.149  16.119  0.3226  0.1813  0.0687
 7649W        W21063   1.819   3.394  15.285  0.1766  0.1473 -0.1019
 7650W        W21064   7.316  12.800  15.782 -0.1659  0.0913 -0.2400
 7651W        W21065  13.193   5.905   1.842 -0.2791 -0.1033 -0.1309
 7652W        W21066  13.663   5.651   5.078 -0.0831  0.0055 -0.0472
 7653W        W21067  12.588  12.933   3.667  0.1206  0.0507  0.1272
 7654W        W21068  14.566  17.013   2.780 -0.1612  0.0811  0.1684
 7655W        W21069  18.218  10.145   2.717 -0.2918 -0.2275 -0.1098
 7656W        W21070   8.342  17.836  16.486 -0.1726  0.1902 -0.1349
 7657W        W21071  13.016  17.453   4.048 -0.1369  0.1530  0.5984
 7658W        W21072   8.650   4.149  10.704  0.1132  0.2139 -0.0751
 7659W        W21073  10.562   0.505   6.173  0.0978 -0.1428  0.0891
 7660W        W21074   6.136  12.830  11.405 -0.0405 -0.0245 -0.2123
 7661W        W21075  16.051   9.844   2.073 -0.3375 -0.0619 -0.2417
 7662W        W21076  10.278   4.920   2.130 -0.1526  0.0063 -0.1634
 7663W        W21077   3.093   7.122   3.049 -0.4640 -0.3787  0.0696
 7664W        W21078  14.166  14.542  10.182 -0.4554  0.1632  0.0671
 7665W        W21079   2.292   9.152   6.641 -0.3677  0.0535  0.1029
 7666W        W21080  15.033   3.229  12.869 -0.1406 -0.0046  0.1359
 7667W        W21081   5.325   7.583   3.216 -0.0858  0.0101  0.0292
 7668W        W21082   1.388  11.924   9.932  0.3304 -0.0828 -0.0834
 7669W        W21083   9.596   1.318   9.864 -0.1634 -0.0157  0.1811
 7670W        W21084   9.804  16.724  16.434  0.0629 -0.1966  0.1897
 7671W        W21085   1.342   3.161   0.552 -0.1179 -0.0176 -0.1405
 7672W        W21086  15.424   9.813  16.395 -0.1337  0.2371 -0.1853
 7673W        W21087  14.997  17.940   2.263 -0.1469  0.3686  0.0998
 7674W        W21088  16.260  14.382  12.914  0.1883 -0.2752  0.0889
 7675W        W21089  10.185  16.523   5.020 -0.2685  0.1898  0.0424
 7676W        W21090   6.312   4.101   1.744 -0.4781  0.0916  0.0969
 7677W        W21091  12.595   4.723  14.538 -0.1327  0.1691  0.2967
 7678W        W21092  16.581  11.945  12.609  0.1619 -0.2563  0.2832
 7679W        W21093  12.654   1.036   4.157 -0.0137  0.1732  0.1773
 7680W        W21094  17.622   4.689   5.930 -0.3739  0.3645  0.1451
 7681W        W21095   6.971  11.123   0.904 -0.0400 -0.1094  0.2747
 7682W        W21096  18.161   2.830  13.118 -0.0473 -0.0036 -0.0387
 7683W        W21097  11.816  12.269  14.156 -0.2811 -0.1075  0.0666
 7684W        W21098  13.621  10.676   5.269 -0.2191 -0.0126 -0.0675
 7685W        W21099   2.078   6.341   5.657 -0.0017  0.0581  0.1322
 7686W        W21100  11.617   7.275  13.574 -0.1404 -0.2140 -0.0398
 7687W        W21101   3.596  14.053   2.147 -0.4678 -0.0893 -0.3617
 7688W        W21102   2.185   6.816   4.646  0.0115 -0.2630 -0.0976
 7689W        W21103  14.737   9.370  11.591  0.1328  0.0039 -0.2145
 7690W        W21104  14.310   2.228   2.040  0.2598 -0.1320  0.0669
 7691W        W21105   7.619  16.981   3.827  0.2294 -0.0362 -0.1175
 7692W        W21106   1.747  11.283   1.983 -0.0217 -0.0460  0.1337
 7693W        W21107   9.046   3.555  15.403  0.0009 -0.1258 -0.2674
 7694W        W21108   3.358  15.629   1.503  0.2167 -0.0792 -0.0094
 7695W        W21109  14.254  16.443  12.543 -0.1818  0.2014 -0.2533
 7696W        W21110  15.333  15.804   1.692 -0.2427  0.1009 -0.0087
 7697W        W21111   8.711   3.909   0.027 -0.0443 -0.1053 -0.3721
 7698W        W21112  10.848  14.261  14.549 -0.1686  0.0844 -0.2922
 7699W        W21113   3.329   8.406  13.532 -0.1232  0.1001  0.2967
 7700W        W21114   8.640   9.201   2.591 -0.0799 -0.0467  0.1070
 7701W        W21115  13.851  15.169  15.599 -0.3268  0.2261 -0.1348
 7702W        W21116  10.612  15.499  11.421 -0.2072 -0.0499  0.0091
 7703W        W21117   4.338   1.034  11.894  0.2900  0.2113 -0.0130
 7704W        W21118  13.995   7.942  10.982  0.0031  0.0576  0.1320
 7705W        W21119  12.832  14.615   3.492 -0.0907  0.0929 -0.1819
 7706W        W21120  14.320   0.049   0.338 -0.0143 -0.2924 -0.3693
 7707W        W21121   6.874   3.271   4.344  0.0740 -0.0189  0.1618
 7708W        W21122  14.299   5.682  14.664  0.1662  0.2012 -0.1543
 7709W        W21123   3.405   7.971   4.299 -0.3597  0.0766 -0.0620
 7710W        W21124  14.411   2.948  12.382 -0.2143 -0.2045  0.4284
 7711W        W21125   1.746  13.235   5.040  0.1679 -0.3529  0.3253
 7712W        W21126   7.945  16.727  15.990  0.2044 -0.0955  0.1252
 7713W        W21127   5.125   6.329   0.584 -0.3352  0.0483  0.0979
 7714W        W21128   2.755  15.036   3.751 -0.0497  0.1173 -0.1082
 7715W        W21129  16.383   7.243  16.267 -0.1373 -0.2087  0.2831
 7716W        W21130   6.035   8.770   5.882 -0.3120  0.2525 -0.2118
 7717W        W21131  10.780  10.433  11.462 -0.2121  0.0931  0.1580
 7718W        W21132   5.290  15.266  13.603  0.0183  0.1702  0.0084
 7719W        W21133  15.997  10.234  13.102 -0.1257  0.3980 -0.0409
 7720W        W21134  11.741  10.537   6.095 -0.0159 -0.2207 -0.1100
 7721W        W21135   0.383  15.256  12.483 -0.0680  0.2885  0.0833
 7722W        W21136   4.360   9.586   5.518 -0.0409  0.1102  0.1451
 7723W        W21137  13.443  13.871  13.685 -0.0100 -0.0598 -0.1965
 7724W        W21138   0.199  15.295  11.241 -0.0697  0.3218 -0.1866
 7725W        W21139  16.029  10.366  10.999  0.3114 -0.3150 -0.0677
 7726W        W21140  17.899  15.810  16.435  0.1724  0.1004  0.1836
 7727W        W21141  13.882   4.923   4.711  0.1700 -0.0550 -0.0921
 7728W        W21142  15.873   7.692  11.410  0.1398  0.3337  0.0221
 7729W        W21143  10.033  14.731  14.603  0.2170 -0.2075  0.0929
 7730W        W21144   5.480  15.068  11.135  0.3489  0.2459  0.0328
 7731W        W21145   9.285   1.748  13.729 -0.1744 -0.0857 -0.3004
 7732W        W21146   1.557   8.511   3.532 -0.4980 -0.1428 -0.1920
 7733W        W21147  15.566   5.316   1.337 -0.1515 -0.0437  0.3311
 7734W        W21148   5.897  12.420   5.240 -0.3851 -0.0244  0.1389
 7735W        W21149   3.303   1.546   1.908  0.0732 -0.1517 -0.0125
 7736W        W21150  11.139   9.668  11.385 -0.0697  0.3209  0.1513
 7737W        W21151  18.229   3.088   2.882 -0.0246  0.2329 -0.2291
 7738W        W21152  15.821  18.008   4.748 -0.2587  0.1022  0.0970
 7739W        W21153   5.597   7.876  11.470 -0.0951 -0.1966  0.0401
 7740W        W21154   0.890  10.891  10.696 -0.2358 -0.3400 -0.2588
 7741W        W21155   2.961  17.957   5.191  0.1668  0.0582  0.3190
 7742W        W21156   8.247   5.712  10.761  0.0878 -0.0889  0.0533
 7743W        W21157  14.976   2.600   4.784 -0.4801 -0.0474  0.0560
 7744W        W21158   0.634   3.310  11.149  0.1173  0.1092 -0.2587
 7745W        W21159   5.263  18.082   4.584 -0.0007 -0.1867  0.2164
 7746W        W21160   9.898   3.757   2.727  0.1307  0.1977  0.0978
 7747W        W21161   6.550  10.274  14.081 -0.2990 -0.1023  0.1336
 7748W        W21162  18.133   6.298   1.376  0.1442 -0.0129  0.0523
 7749W        W21163  17.574  14.300   6.025  0.0229 -0.0527  0.1394
 7750W        W21164  15.364  11.323   1.441  0.1580  0.0559  0.1348
 7751W        W21165   2.044   1.318  13.536  0.1201  0.1908  0.0597
 7752W        W21166   3.399  10.178  15.008 -0.0575  0.1552  0.1268
 7753W        W21167  14.779  13.023  11.685 -0.2904  0.1647  0.1802
 7754W        W21168   0.568   5.794  13.118  0.1718  0.1285 -0.2565
 7755W        W21169  14.730   5.997   2.412 -0.0687 -0.0779 -0.0462
 7756W        W21170  12.953  14.542   2.458  0.3156 -0.0757  0.0850
 7757W        W21171   0.650  12.579   5.527  0.2797 -0.0535 -0.2444
 7758W        W21172   0.971  10.402  10.793 -0.2459  0.1557 -0.1553
 7759W        W21173  15.413   9.912  13.073  0.0496 -0.0391 -0.0665
 7760W        W21174   5.000  18.135  15.803 -0.1213  0.1088 -0.1661
 7761W        W21175   4.126   6.232  11.269 -0.1597 -0.0156  0.0115
 7762W        W21176  11.894  13.404   0.747  0.2572  0.3950  0.0463
 7763W        W21177  16.016  16.648   5.347  0.2249  0.1635  0.1440
 7764W        W21178   0.428   8.559   1.951 -0.0672 -0.1288 -0.2087
 7765W        W21179   4.754  11.450  12.160  0.0132 -0.1036 -0.2564
 7766W        W21180   4.949   1.545   1.419  0.1843 -0.0285  0.3399
 7767W        W21181   1.557   9.532   1.986 -0.0230 -0.2574 -0.0034
 7768W        W21182   6.424  11.016  16.167 -0.2039 -0.1413 -0.0984
 7769W        W21183  15.988   8.475   1.810  0.0469 -0.1757 -0.1670
 7770W        W21184  13.834   2.298   1.239 -0.1287  0.1481  0.1360
 7771W        W21185  16.476   4.295   2.987  0.0259  0.2200 -0.2932
 7772W        W21186  13.218   7.338  15.460  0.0455 -0.0135  0.2210
 7773W        W21187  12.092  16.420  16.292  0.2205 -0.2098 -0.0074
 7774W        W21188  17.356  10.998  13.340  0.1304  0.0769  0.1513
 7775W        W21189   2.390   8.379   2.582 -0.0394 -0.0002 -0.0684
 7776W        W21190   4.725  13.926  12.019 -0.4878 -0.2111 -0.2284
 7777W        W21191   9.786   5.213  10.392 -0.1812  0.1644 -0.0812
 7778W        W21192   3.731   4.311   4.330  0.1457  0.0946 -0.0814
 7779W        W21193  18.068   8.831  11.129  0.2655 -0.0597 -0.0369
 7780W        W21194  14.117  10.253  10.656 -0.4491 -0.2052  0.1195
 7781W        W21195   4.995  15.175   0.632 -0.1246 -0.3847 -0.1841
 7782W        W21196   6.116  14.854  13.790 -0.0209  0.1344 -0.0996
 7783W        W21197  11.777  17.196   2.976  0.0377 -0.1632 -0.0622
 7784W        W21198  16.955  11.913  12.288  0.0751  0.3984  0.0765
 7785W        W21199  11.689   5.031   0.363  0.0619 -0.3139  0.0131
 7786W        W21200  18.076   0.981   2.631  0.1296 -0.0152 -0.1990
 7787W        W21201  13.250  11.819   9.607  0.4311 -0.0808  0.2329
 7788W        W21202   8.608   3.797   0.569 -0.0588 -0.0403 -0.1054
 7789W        W21203   5.635  17.546  13.855  0.2279  0.0512  0.2578
 7790W        W21204  11.371   8.893  10.967 -0.2266 -0.2148  0.2224
 7791W        W21205  13.135  14.199  14.773  0.2935 -0.1582  0.1087
 7792W        W21206  11.122   4.277   0.733 -0.0476  0.1027 -0.0497
 7793W        W21207   1.620   3.881   4.067 -0.0324 -0.1051  0.0911
 7794W        W21208   5.827  13.149  14.704  0.3300  0.2283  0.0240
 7795W        W21209   4.756   3.112  15.830 -0.0164  0.0872 -0.0980
 7796W        W21210  13.913  10.968  14.473 -0.2842  0.1919  0.1049
 7797W        W21211   7.928  16.273   1.065  0.0313 -0.4773 -0.0196
 7798W        W21212   0.284   4.827  11.256 -0.0528 -0.1356 -0.2891
 7799W        W21213  16.497  14.572   2.471  0.0916 -0.2909  0.2042
 7800W        W21214   2.885   3.334  15.986  0.2691 -0.4861 -0.0355
 7801W        W21215   7.828   9.694  14.625 -0.2336  0.1614  0.3642
 7802W        W21216  17.173  14.235  10.665 -0.0054  0.1370 -0.0832
 7803W        W21217   7.025  10.839   4.640 -0.1239  0.0510 -0.0440
 7804W        W21218  17.095   4.303  12.129  0.0568 -0.0524  0.0158
 7805W        W21219  17.167  12.705   0.144 -0.1702  0.0540 -0.1312
 7806W        W21220  16.034   2.472  13.030 -0.1187  0.1748  0.0130
 7807W        W21221   6.463   0.963  10.804  0.1485 -0.1081  0.1431
 7808W        W21222  15.708  10.627   4.486  0.1957  0.0047  0.3648
 7809W        W21223  18.047   9.440  13.125  0.0951  0.0471 -0.1557
 7810W        W21224   2.134   1.134  10.777  0.0581 -0.2446 -0.1404
 7811W        W21225   2.399   8.767  12.069 -0.0404  0.0041  0.1685
 7812W        W21226   7.507   3.838   5.453  0.0712 -0.1948 -0.0003
 7813W        W21227   3.575   7.645  12.861  0.4143 -0.0946  0.0738
 7814W        W21228  18.231   8.278   6.300 -0.2686  0.1793  0.2178
 7815W        W21229  10.507   8.760  16.011  0.2309  0.3823  0.0748
 7816W        W21230  13.223   2.489   5.127  0.0989  0.0937  0.0489
 7817W        W21231  13.364  13.938   0.213 -0.0067 -0.1817 -0.1185
 7818W        W21232  10.211  17.069   4.755  0.1329 -0.1376  0.0229
 7819W        W21233  10.436   2.910   2.937 -0.1659 -0.1387 -0.1231
 7820W        W21234   0.369  12.897  12.384  0.3544  0.0806  0.1776
 7821W        W21235  14.169  13.529  10.509 -0.1279 -0.2621  0.0295
 7822W        W21236  16.763   6.667   5.600  0.1133  0.1558 -0.0132
 7823W        W21237   6.062   1.728  13.526  0.2203  0.0529  0.2566
 7824W        W21238  15.150   9.669  14.659  0.2335 -0.2524  0.0704
 7825W        W21239  10.712  14.077   4.425  0.0108  0.0270 -0.1639
 7826W        W21240   9.200   3.636   1.285 -0.0379 -0.0667 -0.0806
 7827W        W21241   5.407  14.970  13.165 -0.0697 -0.1165 -0.0609
 7828W        W21242   0.840   2.595   1.739  0.3377  0.0518 -0.0083
 7829W        W21243   2.862  12.163   1.796 -0.1916 -0.2737 -0.1985
 7830W        W21244  13.222  17.577   0.759  0.2408  0.1105 -0.5093
 7831W        W21245  15.605   8.231  15.643  0.1557 -0.2816  0.1925
 7832W        W21246   5.223   8.404   4.995 -0.1971  0.3585 -0.2510
 7833W        W21247  14.208  14.344  10.659  0.1752  0.0831  0.1507
 7834W        W21248  10.967  13.180  15.956  0.1169 -0.0484  0.0039
 7835W        W21249   7.345   9.713   1.814 -0.2119  0.0126 -0.2377
 7836W        W21250   6.322   6.218  12.779  0.1195 -0.2343  0.1709
 7837W        W21251  16.936   1.321  10.647  0.0973 -0.1498  0.2337
 7838W        W21252   7.707   2.333   5.208  0.1785  0.0328  0.0366
 7839W        W21253   5.002  11.823  16.157  0.1037  0.1014 -0.0644
 7840W        W21254   9.640  16.300   1.285  0.0300  0.3638  0.0529
 7841W        W21255  16.401  14.140   5.532 -0.0422  0.2932 -0.0459
 7842W        W21256  15.222  15.793   2.648  0.2130  0.2528 -0.0577
 7843W        W21257   7.639  13.131  14.604  0.0321  0.1359  0.1980
 7844W        W21258   8.199  12.667   4.969 -0.1586 -0.1401  0.0272
 7845W        W21259  12.176  11.787  15.661  0.2320  0.2860 -0.0973
 7846W        W21260   4.353  17.022  14.560 -0.0006 -0.0873 -0.2363
 7847W        W21261  17.015   1.738  15.622  0.2418 -0.1336 -0.2619
 7848W        W21262   6.074   9.978   0.450 -0.0323 -0.0679 -0.3520
 7849W        W21263  13.693   7.275  15.057  0.2853 -0.0524  0.2396
 7850W        W21264  17.871  11.634  15.672 -0.1693  0.1739 -0.2396
 7851W        W21265   5.263  13.379  10.388 -0.0892  0.2835  0.1962
 7852W        W21266   4.474  12.336  16.404  0.1173  0.1147 -0.0960
 7853W        W21267  11.668   6.354  13.158  0.1317 -0.1209 -0.1566
 7854W        W21268  14.671  15.470   1.728 -0.0393  0.0471  0.0816
 7855W        W21269   1.511   7.074  16.237  0.3320  0.4565  0.0914
 7856W        W21270   3.785   7.870   0.138 -0.2117  0.0912  0.1840
 7857W        W21271  10.541   8.773   0.371 -0.0738  0.1917  0.0260
 7858W        W21272   7.378   1.858   1.158  0.0955  0.0568 -0.0616
 7859W        W21273  15.158   8.026   2.717 -0.0015 -0.0133 -0.0471
 7860W        W21274  12.277   7.396  11.092 -0.0062  0.0446  0.4426
 7861W        W21275  13.442  13.707   0.964 -0.0653 -0.1572  0.0542
 7862W        W21276   6.909  17.841   2.455 -0.2731  0.1439  0.2246
 7863W        W21277   9.765  10.837  12.547 -0.2468 -0.3063 -0.0697
 7864W        W21278  15.575   0.280  11.603  0.2468  0.1131 -0.0049
 7865W        W21279   2.777   8.072   2.418  0.3251  0.0257 -0.2757
 7866W        W21280   0.511   6.242  11.171 -0.3675 -0.0475  0.5467
 7867W        W21281   8.207   8.426   2.665  0.1008 -0.0457  0.0707
 7868W        W21282  15.269  16.487   5.876  0.3224  0.1420 -0.1921
 7869W        W21283   5.076   7.723  15.303  0.4185  0.1018  0.2178
 7870W        W21284   0.646   0.506  14.382 -0.0857  0.3569 -0.1509
 7871W        W21285   3.991  12.687  12.972  0.0119 -0.2045  0.2146
 7872W        W21286  17.314   5.404  12.483 -0.0017  0.1215 -0.0572
 7873W        W21287   0.611   7.701   5.882 -0.0098 -0.1976  0.0225
 7874W        W21288   6.486   4.061   4.669  0.3543  0.0225  0.1506
 7875W        W21289   7.697   1.243   3.757  0.0026  0.0174  0.0541
 7876W        W21290  15.421  12.306  12.716 -0.1156 -0.0216 -0.3011
 7877W        W21291  12.577   1.429  11.429 -0.0726  0.2573 -0.1713
 7878W        W21292  15.640   4.000  13.543 -0.3346  0.0290 -0.1138
 7879W        W21293   7.359  11.243   3.891  0.3353 -0.1030 -0.0612
 7880W        W21294  16.194  17.070   6.956 -0.1958 -0.2292  0.0293
 7881W        W21295   4.022   7.808  13.670 -0.4066  0.1267  0.2708
 7882W        W21296  13.016   0.984  16.050  0.1533 -0.0452  0.0670
 7883W        W21297  10.978   7.220   4.393 -0.4216  0.0163  0.0935
 7884W        W21298  14.278   0.705  14.916 -0.1342  0.0114  0.1158
 7885W        W21299   5.838  15.642   4.574 -0.1640 -0.1057 -0.0717
 7886W        W21300  16.269  16.432   4.589 -0.3308  0.1434 -0.2201
 7887W        W21301  17.988  14.226   0.056 -0.0285 -0.2829  0.0952
 7888W        W21302   8.277  16.276  14.340 -0.3252  0.0479 -0.1656
 7889W        W21303  11.670   0.018  10.467  0.2057  0.2592  0.0335
 7890W        W21304   5.985   2.948  11.050 -0.3493 -0.1985  0.0406
 7891W        W21305  10.120  16.319  14.223 -0.0529  0.0122 -0.3017
 7892W        W21306   6.675   7.138   1.741  0.1288  0.1894 -0.1315
 7893W        W21307   9.374   9.171   1.020  0.0627 -0.0743  0.0641
 7894W        W21308  11.368   0.078  14.995  0.2059 -0.3224 -0.1732
 7895W        W21309  15.963   9.477   0.718 -0.1895 -0.2722 -0.4297
 7896W        W21310   1.378   5.809  11.932  0.0161 -0.0030  0.0424
 7897W        W21311   8.049  11.449  15.528  0.2122  0.2670 -0.1596
 7898W        W21312   0.185  17.937   0.036 -0.0153  0.0819 -0.0457
 7899W        W21313   6.001  18.131  15.498 -0.2426  0.0391  0.1779
 7900W        W21314   4.282  13.723   4.517 -0.0052 -0.1259 -0.0682
 7901W        W21315   8.622   1.630   1.430  0.0536 -0.0657  0.2580
 7902W        W21316   9.772   0.906   0.654  0.3839  0.2036 -0.2752
 7903W        W21317   0.059   6.177  12.765 -0.0416  0.2455 -0.1805
 7904W        W21318  13.859  14.905  16.007 -0.1698 -0.1388 -0.1113
 7905W        W21319   4.619   9.198  16.070 -0.1072  0.1955  0.0423
 7906W        W21320  14.645  10.621   2.482 -0.0697  0.0059  0.1168
 7907W        W21321   6.131   6.637  11.421  0.0917 -0.2595  0.4485
 7908W        W21322   9.498  12.802   5.275  0.0229 -0.1499 -0.1279
 7909W        W21323  11.680   6.530   1.961 -0.0122  0.3019  0.2400
 7910W        W21324   1.906  17.791   1.052  0.0433  0.2597  0.3741
 7911W        W21325  17.211   1.453  12.674  0.1243 -0.1388 -0.1603
 7912W        W21326  10.227  18.039   3.032  0.0631  0.2451  0.0416
 7913W        W21327   2.385   9.977   4.750  0.2019 -0.0828  0.0958
 7914W        W21328   0.598  11.060   2.754  0.2601  0.0396 -0.1710
 7915W        W21329  13.012   5.631   1.411 -0.0914  0.0287  0.0266
 7916W        W21330  14.044  11.126  13.184  0.0381  0.0323  0.0103
 7917W        W21331   4.307   9.780   5.084 -0.1729 -0.0933  0.0965
 7918W        W21332  16.327  17.426  16.279  0.1461 -0.0153 -0.0186
 7919W        W21333   4.093   5.860   0.886  0.2192  0.1942  0.1470
 7920W        W21334  18.034   3.257   1.952  0.0476 -0.0793 -0.0638
 7921W        W21335  18.078  10.382   6.630  0.0642 -0.1415 -0.1270
 7922W        W21336  14.559   7.196  13.299 -0.1880  0.0424 -0.1285
 7923W        W21337  14.667  15.981  10.847  0.2004 -0.2077  0.2334
 7924W        W21338   7.864   4.376   2.291 -0.1433  0.2859 -0.0438
 7925W        W21339   7.313   4.178  15.515 -0.0798  0.1120 -0.0517
 7926W        W21340   4.639  13.644   0.029  0.0783 -0.0815 -0.1348
 7927W        W21341   4.429  15.260  12.563 -0.0526 -0.0309 -0.1534
 7928W        W21342  15.174   1.635  13.698  0.2543  0.1395 -0.1415
 7929W        W21343  16.249  10.800   2.864  0.0284  0.1031 -0.1345
 7930W        W21344  11.077  12.217   5.707 -0.0084 -0.0650  0.0918
 7931W        W21345  17.632  17.285   0.884  0.1798 -0.0610  0.2793
 7932W        W21346   6.342   0.732   4.623 -0.2639  0.1762 -0.2405
 7933W        W21347   0.666   9.257  15.167  0.0026 -0.1058  0.0649
 7934W        W21348   5.445   8.435  12.552  0.3243  0.2789  0.0381
 7935W        W21349  12.106   7.551   4.918 -0.2924  0.0919 -0.0388
 7936W        W21350  10.612   4.235   2.684 -0.0957  0.0158 -0.0205
 7937W        W21351   4.467  13.124   6.722  0.1028 -0.2098  0.2569
 7938W        W21352   3.182  14.340   0.504  0.1081  0.4584  0.1106
 7939W        W21353   2.314   5.149  15.440 -0.0818 -0.0809  0.1531
 7940W        W21354  10.087  13.850  10.689 -0.1576  0.0538  0.4168
 7941W        W21355  16.952  10.610   1.899  0.0125 -0.4304 -0.1266
 7942W        W21356   4.365  10.817   5.125 -0.1143 -0.0514 -0.1645
 7943W        W21357  10.607  11.887   0.141 -0.0856  0.2329 -0.0472
 7944W        W21358  10.780  16.220  15.764  0.1762 -0.0189 -0.0946
 7945W        W21359  14.576   2.944  15.797 -0.0100 -0.1080  0.0642
 7946W        W21360   8.181  10.845   2.766 -0.0287 -0.2224 -0.2198
 7947W        W21361   6.575   5.854   4.884 -0.1187  0.0326  0.1908
 7948W        W21362   7.372   3.654  13.655 -0.1186 -0.1528  0.1089
 7949W        W21363  16.749  15.580  14.400  0.2068 -0.2268  0.3041
 7950W        W21364   9.330  12.989  12.564  0.1621 -0.4239 -0.0055
 7951W        W21365  15.993  10.919  12.861  0.0005 -0.2266  0.0393
 7952W        W21366  16.969  10.892  14.359 -0.1816  0.3672 -0.0826
 7953W        W21367   3.129   5.814  15.025  0.1277  0.2023 -0.0068
 7954W        W21368   7.036   4.614   1.810 -0.1072  0.1225 -0.1292
 7955W        W21369  11.202  10.932  13.967  0.2077 -0.2026  0.1473
 7956W        W21370  18.171   5.846   4.983 -0.0924  0.1037 -0.1372
 7957W        W21371   0.660   2.361  15.132 -0.1290 -0.3069  0.0188
 7958W        W21372  13.118   4.100  13.486  0.0189  0.2041  0.1075
 7959W        W21373   2.331   4.677   5.942 -0.2547  0.1702 -0.2115
 7960W        W21374   7.414   1.577   4.104  0.4797 -0.2165 -0.0920
 7961W        W21375   5.179  13.871   4.937  0.0103  0.1252 -0.2742
 7962W        W21376   7.463   6.774  11.688 -0.2066  0.1291 -0.0043
 7963W        W21377  17.822  14.679   1.996  0.2726 -0.1060 -0.1345
 7964W        W21378  17.629   1.277   2.710  0.2711  0.1965 -0.1026
 7965W        W21379  12.869   5.237  16.000  0.2238 -0.1564  0.0273
 7966W        W21380  16.712  13.266   4.969 -0.2813 -0.1770 -0.2328
 7967W        W21381  16.454   9.247  14.666  0.1834 -0.3541 -0.1401
 7968W        W21382   6.833   6.775   1.311  0.4053  0.0594 -0.1555
 7969W        W21383   3.054   7.022  11.234 -0.0205  0.0855 -0.0972
 7970W        W21384   7.629   6.583   1.936 -0.1320  0.0036  0.0826
 7971W        W21385  13.770   5.076  10.822 -0.2657  0.0517 -0.1076
 7972W        W21386   8.250   4.317  13.456  0.2534  0.1436 -0.2091
 7973W        W21387  17.092  10.543  12.273  0.3302 -0.1203  0.0313
 7974W        W21388   6.041   3.208  16.327 -0.1772  0.1876  0.1925
 7975W        W21389   8.408  10.858   6.059 -0.1652 -0.1173  0.0785
 7976W        W21390   6.775   2.538  15.545 -0.2728  0.0364 -0.3634
 7977W        W21391  16.680  13.251   4.398 -0.1963 -0.1502  0.0094
 7978W        W21392  17.884  11.916   4.082  0.2287 -0.1078 -0.0435
 7979W        W21393  12.448   3.266  16.152 -0.1579 -0.2346  0.0913
 7980W        W21394   4.862   7.203   5.347 -0.0659  0.0674  0.1112
 7981W        W21395  14.405   6.676   0.613  0.0813 -0.2079 -0.0174
 7982W        W21396  16.052  14.888  11.999 -0.1682 -0.3063 -0.3183
 7983W        W21397  16.976  15.274   3.116  0.1115  0.0492  0.0586
 7984W        W21398  15.024  13.941  10.291  0.0484 -0.0337 -0.1654
 7985W        W21399  13.410   4.681   3.826 -0.0527  0.1015  0.3809
 7986W        W21400   7.991   1.683  16.314 -0.1973 -0.0628  0.0021
 7987W        W21401  17.812  10.066  14.476  0.1062 -0.3396  0.1502
 7988W        W21402  10.538  15.796  15.738  0.1759 -0.0679 -0.0886
 7989W        W21403   7.383  14.256  11.895 -0.1563 -0.0372 -0.0140
 7990W        W21404   7.857   8.366   4.088 -0.0017  0.3053  0.2503
 7991W        W21405  11.190   2.401  12.468  0.0190  0.0576  0.0002
 7992W        W21406  10.222  15.833  11.191 -0.0279  0.2419 -0.2235
 7993W        W21407   1.306   4.248   4.007 -0.0457  0.1361  0.0232
 7994W        W21408   9.008   3.641   4.652  0.0130 -0.2850  0.1224
 7995W        W21409  13.617  10.054   0.363  0.0992 -0.0976 -0.3130
 7996W        W21410   2.535   3.154   2.036  0.0631  0.1714 -0.0818
 7997W        W21411  13.900  11.072   1.855 -0.0911  0.0073  0.0058
 7998W        W21412   8.093  17.230  14.691 -0.0864  0.0875  0.1819
 7999W        W21413  13.727   8.141  12.086  0.2257  0.3244 -0.1518
 8000W        W21414  18.164  12.335  16.189  0.5806  0.0965  0.0557
 8001W        W21415   6.611   5.296   0.034 -0.1254  0.1315  0.2383
 8002W        W21416  16.380   1.229   0.474 -0.0174  0.1563  0.2196
 8003W        W21417   7.885   9.554   0.628 -0.1350 -0.0468 -0.0828
 8004W        W21418  17.284  15.059   2.358  0.0715  0.0552  0.1657
 8005W        W21419  17.242  15.410   2.664 -0.2114  0.0256 -0.2391
 8006W        W21420   4.844   9.534   1.733 -0.2719 -0.1249 -0.2750
 8007W        W21421   4.769  15.975  13.160  0.1765 -0.1254  0.2582
 8008W        W21422   7.018   5.667   4.658 -0.3572 -0.0602 -0.0794
 8009W        W21423  17.721   3.534  13.316 -0.0738  0.4420  0.0270
 8010W        W21424  14.886   9.584   3.993  0.2223  0.1989  0.0673
 8011W        W21425  14.772   8.312   4.939  0.1090 -0.0572 -0.0847
 8012W        W21426  15.202  10.903   0.085  0.1692 -0.0480  0.0741
 8013W        W21427   1.970   5.969   0.664 -0.0598  0.2147  0.0273
 8014W        W21428   8.756  15.466  16.460  0.3992 -0.0031 -0.2020
 8015W        W21429   1.957  14.916  15.318  0.1587 -0.1627  0.1761
 8016W        W21430  11.099  16.630   1.275 -0.0625 -0.1184 -0.2284
 8017W        W21431   7.617   7.219   3.965  0.1021 -0.1231 -0.0876
 8018W        W21432   9.520  17.509  11.926 -0.1716 -0.3682  0.0087
 8019W        W21433   5.326   1.630  13.031  0.0565  0.0594 -0.1601
 8020W        W21434  17.035  15.242   5.188 -0.3068 -0.0369 -0.1502
 8021W        W21435   2.043   3.863  14.748 -0.1548 -0.0425 -0.0633
 8022W        W21436  16.179   3.474  10.472  0.1257  0.2642 -0.0930
 8023W        W21437   1.737  11.075   5.160  0.0454 -0.1814  0.2181
 8024W        W21438  10.794  13.470  16.323  0.0449 -0.0207  0.0215
 8025W        W21439   3.930  13.535  12.824 -0.1970  0.0732  0.2140
 8026W        W21440  11.860  11.377   3.009 -0.0963  0.2610  0.0152
 8027W        W21441   8.181  16.514   4.466 -0.2481 -0.3361 -0.1855
 8028W        W21442   4.666   9.002  12.670 -0.0206  0.0218 -0.0190
 8029W        W21443   5.796  12.452  15.998 -0.0588 -0.1471 -0.2570
 8030W        W21444  12.415  11.929   3.644  0.2025 -0.1574 -0.2753
 8031W        W21445   5.450  15.797   3.028  0.2850 -0.3255  0.2790
 8032W        W21446  15.995   8.493  14.395  0.0053  0.0751 -0.1183
 8033W        W21447  10.363  17.190  16.090  0.0014  0.0506 -0.2367
 8034W        W21448  13.356   1.389   0.364 -0.0884 -0.3565 -0.0869
 8035W        W21449  14.684   8.618   2.166 -0.0007 -0.0738  0.1896
 8036W        W21450   9.603  10.195   3.315  0.1128 -0.1381  0.1939
 8037W        W21451   9.974  11.255   4.637 -0.0487  0.3185 -0.0874
 8038W        W21452   1.804   9.050   1.834  0.0490 -0.2548 -0.3478
 8039W        W21453  12.735  15.865  13.184 -0.0587 -0.0116  0.1723
 8040W        W21454   1.074  17.960   0.501  0.2025  0.3300 -0.0843
 8041W        W21455  12.042   8.802   1.415  0.1197 -0.1149  0.0252
 8042W        W21456  15.678   0.243  16.095  0.1712 -0.1330  0.0055
 8043W        W21457   0.778  16.621  14.914  0.1607  0.1211  0.0385
 8044W        W21458  10.209   8.847  16.436 -0.1574  0.2557  0.0677
 8045W        W21459  16.836  15.728   1.600  0.2936 -0.2213 -0.0134
 8046W        W21460   6.804  13.324  14.911  0.0731  0.0013  0.1860
 8047W        W21461  14.414   8.054  13.811  0.2076  0.0331  0.1756
 8048W        W21462   7.140  15.519  13.932  0.1212  0.0679 -0.2338
 8049W        W21463  10.250   8.273  11.726  0.0054 -0.1363 -0.0626
 8050W        W21464  15.695   4.674   3.007 -0.2895 -0.0506  0.0890
 8051W        W21465  10.434  11.081   0.666 -0.0361  0.3059  0.0711
 8052W        W21466   3.415  17.922  13.079  0.0597 -0.1013  0.3057
 8053W        W21467   1.378   5.904   1.352  0.1000 -0.2640 -0.0489
 8054W        W21468   0.743   5.040   0.922 -0.0438  0.0408 -0.0334
 8055W        W21469   4.663  17.703  15.915 -0.1096  0.1139 -0.0963
 8056W        W21470  12.926   4.294  15.285 -0.1830 -0.5781  0.2159
 8057W        W21471  10.376  11.536   0.507  0.0855 -0.2306 -0.0588
 8058W        W21472   6.317  12.142  13.135  0.0803 -0.0888  0.0214
 8059W        W21473  18.136  17.094   1.541  0.0822  0.1172 -0.2208
 8060W        W21474   8.596   8.381   4.969  0.1151  0.0232  0.1336
 8061W        W21475   8.765   4.448  15.508 -0.0267  0.1492  0.2992
 8062W        W21476   1.566   7.594  11.139 -0.2255 -0.0667 -0.1357
 8063W        W21477   4.824   9.463   2.858  0.4357 -0.1717  0.1592
 8064W        W21478   2.843  11.059   6.205 -0.0059 -0.1319  0.0805
 8065W        W21479  14.388   5.902  15.216  0.2638  0.0747 -0.0568
 8066W        W21480  11.775  10.713   1.075  0.0907  0.3429 -0.2794
 8067W        W21481   2.908   4.416  10.997 -0.0560 -0.2118  0.2073
 8068W        W21482   0.192   0.093   6.623 -0.5150 -0.2939  0.2181
 8069W        W21483   0.617   3.643   0.567 -0.4172 -0.0905 -0.0456
 8070W        W21484   1.007  14.152   4.276 -0.0738  0.3011 -0.0552
 8071W        W21485   9.830   5.241   3.230  0.0867  0.1625 -0.2028
 8072W        W21486   1.125   4.579   4.426  0.0646  0.1613  0.1468
 8073W        W21487   9.719   1.178  11.331 -0.1478 -0.0833  0.1335
 8074W        W21488  10.809  15.095   4.576 -0.1845 -0.2258  0.1292
 8075W        W21489   5.858   7.523   1.230  0.0865  0.0883  0.4456
 8076W        W21490  12.629   3.828  13.139  0.1258 -0.1258 -0.0840
 8077W        W21491  15.009  13.343  14.493  0.1188 -0.0803  0.0734
 8078W        W21492   6.107   2.041   5.202 -0.0276 -0.1423  0.1292
 8079W        W21493  17.102   8.250   2.133  0.1785 -0.3032 -0.0144
 8080W        W21494  17.359  12.487  10.330 -0.0879 -0.0626 -0.1581
 8081W        W21495   3.095   8.908   3.698 -0.0356  0.0693  0.1526
 8082W        W21496   1.933   9.873   0.068 -0.2293  0.2147  0.0299
 8083W        W21497  17.645   5.808   5.330 -0.1751  0.1392 -0.0249
 8084W        W21498  13.068  17.593   2.433 -0.0770 -0.0291  0.1651
 8085W        W21499   6.844   0.713  14.173 -0.0552  0.0516  0.0873
 8086W        W21500  15.198   0.021   1.436 -0.0131  0.0190 -0.0568
 8087W        W21501   1.096   2.023   4.298 -0.3283  0.0801  0.0974
 8088W        W21502   7.924   1.488  14.792  0.0620 -0.1609  0.0521
 8089W        W21503  13.080   2.652  12.563 -0.0066  0.2100 -0.2030
 8090W        W21504  11.075  12.363   1.949  0.4259 -0.1209  0.0593
 8091W        W21505   5.968   3.752   2.097 -0.0902  0.1226 -0.1749
 8092W        W21506   1.065  12.063  12.743  0.1356 -0.0920 -0.0571
 8093W        W21507  14.185   0.193  11.036 -0.0204 -0.2737 -0.1100
 8094W        W21508  11.454   0.825  14.490  0.1230  0.0489 -0.4284
 8095W        W21509  12.460   5.649   1.190  0.2127  0.1082  0.1454
 8096W        W21510   3.031  12.438   3.021  0.1439 -0.0071  0.0603
 8097W        W21511  17.069   3.483   2.918  0.1060  0.3202  0.0746
 8098W        W21512   8.427  17.884  14.326  0.1236 -0.5040 -0.1498
 8099W        W21513   0.406  11.795   1.201  0.2159 -0.0199 -0.0361
 8100W        W21514   7.279  12.618   1.438  0.0722  0.2164  0.0769
 8101W        W21515   8.901   1.631  15.901 -0.0530  0.2545  0.3124
 8102W        W21516   5.420   4.561   3.902 -0.1347  0.1272 -0.0914
 8103W        W21517   0.277   2.692  14.034  0.0681  0.0701  0.0527
 8104W        W21518  10.547  16.056  13.978  0.3697  0.0615 -0.2897
 8105W        W21519  14.403   0.384  16.469  0.0805  0.2020  0.0509
 8106W        W21520   7.197  11.650   5.940 -0.3793 -0.0099 -0.0077
 8107W        W21521  13.497   2.810   5.487  0.0580  0.0510  0.0368
 8108W        W21522   9.760  13.775   1.264  0.3687  0.1329 -0.1232
 8109W        W21523  16.316  12.277  13.060  0.1655  0.2967 -0.2005
 8110W        W21524   9.632  16.514  11.997  0.1598  0.0084  0.1495
 8111W        W21525  14.351  12.482  11.291  0.1934  0.0033  0.2064
 8112W        W21526  13.894   4.607  12.645  0.0082  0.1347 -0.1653
 8113W        W21527  13.316   0.996  15.657  0.1869 -0.0951  0.0066
 8114W        W21528  11.346  12.151   4.099  0.0831  0.0196 -0.2234
 8115W        W21529   8.796  17.797   3.449 -0.3677  0.1940  0.3337
 8116W        W21530   0.271   6.706   1.443 -0.4236  0.2422 -0.0205
 8117W        W21531  15.746   8.871   5.676  0.2178 -0.1990  0.2860
 8118W        W21532   0.857   7.814  13.579  0.1626 -0.3359  0.1336
 8119W        W21533   4.358  10.514   6.863  0.1383  0.0250 -0.2692
 8120W        W21534  13.327  12.280  13.945 -0.2150  0.1006 -0.2752
 8121W        W21535   2.357   4.690  11.436  0.1890  0.2048  0.1155
 8122W        W21536  14.926   5.968  15.873 -0.3470 -0.1668  0.1251
 8123W        W21537   8.901   4.127   0.945  0.4979 -0.2491 -0.1650
 8124W        W21538  18.173  11.085  16.008  0.1261 -0.4753 -0.1367
 8125W        W21539   7.467  18.234  11.305 -0.1742  0.2072  0.0859
 8126W        W21540   2.887  11.443  10.330 -0.1959  0.1785 -0.2759
 8127W        W21541   7.522  14.194   5.267 -0.1149 -0.1361  0.1538
 8128W        W21542   6.683   6.318   1.318 -0.1271  0.1171  0.1474
 8129W        W21543   5.428  12.383  10.909  0.2216  0.0981  0.2264
 8130W        W21544  16.109   4.309  10.488  0.2655 -0.2198 -0.0381
 8131W        W21545  13.710  18.034   4.099  0.0954  0.1526  0.2728
 8132W        W21546  16.677  11.992   0.076  0.0063  0.1439 -0.0685
 8133W        W21547   5.610   1.470   2.603 -0.3597 -0.1485 -0.3667
 8134W        W21548  12.267   0.718  14.804  0.1825 -0.1898  0.0704
 8135W        W21549   6.103   1.243   2.713  0.1014  0.2943  0.1027
 8136W        W21550   5.875  10.769   1.868 -0.0501 -0.0736 -0.0855
 8137W        W21551  17.716   3.777   2.655  0.1506 -0.1000  0.0230
 8138W        W21552   0.542   2.699   0.408  0.0865  0.0463 -0.0495
 8139W        W21553   5.202  13.891   2.511 -0.3035 -0.0943  0.1188
 8140W        W21554  17.234   6.259   1.454 -0.0240 -0.4576 -0.2087
 8141W        W21555  11.228   5.742   4.078 -0.0731 -0.2430 -0.3442
 8142W        W21556   2.335   2.676   4.410 -0.3426 -0.0579 -0.1826
 8143W        W21557   3.605   5.181  14.082 -0.0223 -0.2522  0.0456
 8144W        W21558  15.292   9.891  10.900 -0.3307  0.1336 -0.0141
 8145W        W21559  14.464   8.899  11.685  0.1157 -0.0970  0.0299
 8146W        W21560  13.503   9.965  14.683 -0.2170 -0.0475 -0.2351
 8147W        W21561  13.147   0.113  10.324 -0.0369 -0.0346 -0.0728
 8148W        W21562   5.600   3.622   5.624  0.1942 -0.3351 -0.0042
 8149W        W21563   7.306  10.950   3.076  0.0951 -0.0080  0.0900
 8150W        W21564   5.900  14.598   0.461  0.2203  0.2778  0.0119
 8151W        W21565   8.562  10.547   2.702 -0.3465  0.0796 -0.1143
 8152W        W21566   5.634   3.012   0.799  0.0523 -0.2078  0.0428
 8153W        W21567  14.536   5.201  11.072 -0.2602  0.0517  0.2516
 8154W        W21568   9.322   2.941   2.625 -0.0583  0.1974  0.4043
 8155W        W21569   3.290   4.211  12.096  0.0376 -0.1813 -0.1451
 8156W        W21570  10.773  11.164  16.230  0.1004  0.2824  0.1659
 8157W        W21571   2.537   6.026  14.145  0.0476  0.3164 -0.0664
 8158W        W21572   4.846  12.029   3.268  0.1465  0.0363 -0.0759
 8159W        W21573   5.475   9.013  14.469  0.0719  0.1024  0.1123
 8160W        W21574   7.540   2.226   4.708  0.1862  0.3057  0.3066
 8161W        W21575   3.155   9.941  12.384  0.1276  0.2823 -0.0590
 8162W        W21576   0.169  16.865   5.629 -0.1369 -0.1890  0.2565
 8163W        W21577   1.760   1.843  15.838 -0.0638  0.0685  0.1259
 8164W        W21578   7.776  17.397  11.157  0.3007  0.1309  0.2663
 8165W        W21579   2.032  14.164  16.471  0.2028  0.1441  0.2260
 8166W        W21580  16.402   3.918  11.200 -0.2307 -0.3138  0.0196
 8167W        W21581  14.251   0.813  11.384 -0.3590  0.0309 -0.0580
 8168W        W21582   1.334  11.307   6.103 -0.0964 -0.2118 -0.0046
 8169W        W21583  15.910   0.603  14.223 -0.1499 -0.0032 -0.1486
 8170W        W21584  14.315   8.904  15.379  0.2675  0.0066 -0.2595
 8171W        W21585   8.081   2.009  13.107  0.0781 -0.2864  0.0369
 8172W        W21586  13.040  16.377  15.803 -0.0683 -0.2081 -0.1043
 8173W        W21587  16.641   7.062   5.876  0.0024  0.0008  0.2536
 8174W        W21588  12.638  16.241   0.175  0.0231 -0.5070  0.0877
 8175W        W21589   6.580   4.909   2.787  0.0137 -0.3181 -0.0574
 8176W        W21590   9.771   6.560  10.796  0.2275  0.4067  0.2471
 8177W        W21591  12.408  11.330  14.184 -0.0118 -0.0042 -0.1248
 8178W        W21592  16.856   2.933  15.148 -0.0458  0.1667  0.0910
 8179W        W21593   2.224   2.519   5.324 -0.2218 -0.1001  0.1537
 8180W        W21594   6.908  11.955   0.156  0.1007  0.4231  0.0717
 8181W        W21595   6.913  10.683   0.186 -0.1923 -0.0201 -0.1552
 8182W        W21596  14.325   5.356  15.127  0.0431 -0.1702 -0.0585
 8183W        W21597   5.544  12.778  10.600  0.2100  0.0907  0.2660
 8184W        W21598   7.002  17.385  15.414 -0.0424 -0.0970  0.3958
 8185W        W21599   3.161   2.327  13.393 -0.0595  0.0753  0.2997
 8186W        W21600   3.302  10.503  14.298 -0.1951 -0.1682  0.0630
 8187W        W21601   0.384  11.397  14.623  0.1505  0.0292 -0.0883
 8188W        W21602   8.466   0.875   2.090 -0.1968  0.2270  0.2444
 8189W        W21603   6.570   0.326   2.260  0.2902  0.1021  0.4386
 8190W        W21604  10.797   5.396   4.572 -0.2526  0.1226 -0.0893
 8191W        W21605  10.187   0.874  14.559 -0.0356  0.2232  0.0637
 8192W        W21606   1.979   0.032  15.345  0.1467  0.1352  0.0226
 8193W        W21607   9.055  15.885   2.178  0.0711 -0.1574  0.0378
 8194W        W21608   4.127  15.730   2.175  0.0502 -0.0226  0.0018
 8195W        W21609  12.692  10.457  14.325 -0.1167 -0.3105 -0.5489
 8196W        W21610  14.963   2.924  13.861  0.1863 -0.1254  0.0446
 8197W        W21611   6.292  13.091  14.892  0.1952 -0.0066  0.0229
 8198W        W21612   5.334   8.688  15.644 -0.0354  0.0005  0.1049
 8199W        W21613   2.742  18.217   3.214 -0.0556 -0.1856 -0.2359
 8200W        W21614  14.705  15.819  16.077 -0.1008 -0.1190  0.0771
 8201W        W21615   0.789  17.185   0.936 -0.0272  0.2324  0.1743
 8202W        W21616  12.879  10.390   2.474 -0.0250  0.0174 -0.0365
 8203W        W21617  11.096   9.805  13.448 -0.0972  0.0229 -0.3004
 8204W        W21618  14.173   8.310   3.714  0.1046  0.1105 -0.0247
 8205W        W21619  16.768  13.941   1.893  0.0521  0.0087 -0.2845
 8206W        W21620   1.763   1.850  13.511 -0.2501  0.3403 -0.3632
 8207W        W21621   9.133   3.615   0.783  0.6235  0.0130 -0.1036
 8208W        W21622   3.142  17.881   0.384  0.0533  0.1447 -0.5752
 8209W        W21623   8.202  14.976  15.968  0.4137 -0.1930 -0.1362
 8210W        W21624   8.173   0.993   3.754 -0.1131 -0.0664  0.0275
 8211W        W21625  14.785   8.091   2.313 -0.2828  0.1651 -0.0704
 8212W        W21626  17.493  12.334   2.361 -0.0699 -0.0624 -0.2605
 8213W        W21627   3.465   3.617  16.011 -0.4429 -0.0691  0.1511
 8214W        W21628   9.421  14.182   1.377  0.1551  0.2405  0.0345
 8215W        W21629  10.045  11.911   6.341 -0.1579 -0.1718 -0.1142
 8216W        W21630   3.322   1.085  12.042 -0.2686  0.2201 -0.3485
 8217W        W21631   0.348  17.364  14.472  0.0034  0.1713  0.0470
 8218W        W21632   6.457  17.422   1.650 -0.1952 -0.1269  0.2719
 8219W        W21633   9.755   1.150   0.213 -0.0578 -0.0177  0.2425
 8220W        W21634   7.887  10.787  12.591  0.0313  0.2313 -0.2155
 8221W        W21635   2.843  15.109  13.814 -0.0359 -0.1878  0.0910
 8222W        W21636   4.952  10.445   0.289  0.3210  0.2161  0.0486
 8223W        W21637   8.450   9.903  15.066  0.3282 -0.0375  0.0857
 8224W        W21638  13.935   8.735  10.046  0.3062 -0.1877 -0.1518
 8225W        W21639   6.470  13.873   0.511  0.2104  0.0532 -0.1449
 8226W        W21640   5.292   0.105  15.490  0.0649  0.2213 -0.1512
 8227W        W21641   6.287  11.718  12.032 -0.2250 -0.1191  0.1207
 8228W        W21642  16.328  15.363  15.199  0.1561  0.0906  0.0828
 8229W        W21643   6.077   5.894  15.756 -0.1992 -0.2120 -0.0370
 8230W        W21644  10.607  12.237  14.340  0.1241  0.2773  0.1612
 8231W        W21645  10.567  12.338   1.866 -0.0168 -0.0780 -0.0059
 8232W        W21646   5.307   7.976  13.975 -0.1381 -0.0191  0.3099
 8233W        W21647   8.262   2.140  16.124 -0.0576  0.0483  0.1434
 8234W        W21648   1.112   2.325   4.747  0.0056 -0.2295  0.2014
 8235W        W21649   1.637   8.386   4.142  0.2420 -0.1826 -0.3198
 8236W        W21650  10.262   4.123   5.414 -0.2065  0.1046  0.1794
 8237W        W21651   9.664   2.003  16.005 -0.0019  0.1469 -0.0324
 8238W        W21652  17.615  12.124  11.478 -0.3035 -0.0126  0.4520
 8239W        W21653  10.184   7.847  14.742  0.0052  0.1548 -0.0947
 8240W        W21654   7.705   0.370  13.152  0.1562 -0.2647 -0.0290
 8241W        W21655  17.124  10.202  16.438  0.1091 -0.0012  0.1340
 8242W        W21656   5.516  15.958   5.454  0.2470  0.0164  0.7260
 8243W        W21657   0.398   7.004  12.551 -0.0028  0.0590  0.0258
 8244W        W21658   2.131   7.738   3.481 -0.2827 -0.0181 -0.1529
 8245W        W21659  11.612  15.988   9.959 -0.0199  0.2241  0.0093
 8246W        W21660   3.135   5.103   2.228  0.0657 -0.2508 -0.1499
 8247W        W21661   4.372  16.529   1.735 -0.0899  0.0871 -0.2084
 8248W        W21662   2.256  15.654   4.174 -0.2511 -0.2024  0.0234
 8249W        W21663  14.664   5.658  15.511 -0.0023  0.1906  0.0074
 8250W        W21664   1.923  10.615  11.866 -0.1878  0.0535  0.1557
 8251W        W21665  15.135  17.932  15.683  0.0928  0.2195 -0.1236
 8252W        W21666   3.374   6.960  16.216  0.2611 -0.0685 -0.3902
 8253W        W21667   8.432   8.868   3.594  0.0555 -0.1105  0.2663
 8254W        W21668  10.978  16.875   0.490  0.2714 -0.0762 -0.1992
 8255W        W21669   2.304  13.490   6.291 -0.0491 -0.0412  0.1107
 8256W        W21670   2.510   2.268  15.393  0.0011  0.0041 -0.0073
 8257W        W21671   5.163  10.229   2.981  0.1994  0.3112 -0.0249
 8258W        W21672  18.190  11.378  13.568 -0.0940  0.1289  0.2648
 8259W        W21673   5.049   9.683  14.373  0.0346 -0.0817  0.3657
 8260W        W21674  13.478  10.896   2.158  0.1123  0.3510 -0.0136
 8261W        W21675   0.366  17.124  13.522  0.1498 -0.1736 -0.1712
 8262W        W21676  16.307  10.106  12.749  0.0555  0.3685  0.0930
 8263W        W21677  14.587  11.472  14.423 -0.0490 -0.1491  0.1435
 8264W        W21678   3.633  18.091  10.291 -0.0175 -0.0331  0.0043
 8265W        W21679  16.355   5.052  15.259 -0.0415  0.2416  0.1838
 8266W        W21680   4.474  10.542   0.122  0.0538 -0.1890  0.3054
 8267W        W21681  12.413   3.124  11.227  0.1669  0.0596 -0.0362
 8268W        W21682   3.372  17.414  13.406  0.1211 -0.0359 -0.0841
 8269W        W21683   4.421   2.428   0.919  0.4457  0.0084  0.3325
 8270W        W21684   9.055   2.752  10.540 -0.1655  0.1573 -0.3141
 8271W        W21685  12.799   2.317   2.328  0.3712  0.1106  0.0348
 8272W        W21686   9.132   4.710   0.347  0.0289  0.0086 -0.1807
 8273W        W21687   5.976  14.741   5.007  0.3217  0.0433  0.2044
 8274W        W21688   7.913   9.570   4.666 -0.3117  0.2195  0.0426
 8275W        W21689  10.454   4.058   1.389 -0.0929 -0.1007 -0.0796
 8276W        W21690   1.545  18.248   6.145 -0.2359  0.1448 -0.0266
 8277W        W21691  12.433   2.884  13.651  0.0312  0.2329  0.0228
 8278W        W21692  12.379   9.782   5.089  0.0174  0.0307 -0.0758
 8279W        W21693   9.234   7.236  13.481  0.0559 -0.2373 -0.3454
 8280W        W21694   5.254  11.376   2.603  0.3110  0.0937  0.0633
 8281W        W21695   2.343   6.580  10.833  0.1425 -0.0591  0.0152
 8282W        W21696  10.438   5.080   1.581  0.1432  0.2295  0.1462
 8283W        W21697   3.937   7.996   2.971  0.3168  0.3169  0.1470
 8284W        W21698  18.032  18.086  14.903  0.0711  0.1016 -0.0844
 8285W        W21699   0.689   3.521  15.328  0.0816  0.0572  0.5213
 8286W        W21700   8.961  18.023   5.286  0.0089 -0.1809  0.2200
 8287W        W21701  17.456   2.688   1.206  0.0144  0.0758  0.3667
 8288W        W21702  10.742  12.994   3.533 -0.2367  0.0318  0.0938
 8289W        W21703   2.110  10.558  13.745 -0.0371 -0.1550  0.0007
 8290W        W21704  11.391   9.920   3.798 -0.1013  0.0679 -0.1370
 8291W        W21705  15.030   1.167  15.833 -0.1401  0.1593  0.0604
 8292W        W21706  17.434   8.018   4.661 -0.1044 -0.0933 -0.0411
 8293W        W21707   6.877   6.894   5.324  0.0931  0.3440 -0.1081
 8294W        W21708   4.000  10.935   0.518  0.0838 -0.2419  0.0217
 8295W        W21709   7.514   2.598   3.116  0.1598 -0.0551 -0.1284
 8296W        W21710   3.327  10.396   3.549 -0.2616  0.1139  0.1654
 8297W        W21711   0.852  11.382  10.638  0.2365  0.3128  0.2765
 8298W        W21712   0.168  16.707  13.716  0.1939 -0.1049  0.2106
 8299W        W21713   8.943  12.995   4.462 -0.1585 -0.2278  0.2664
 8300W        W21714  13.199   0.113  10.799 -0.0383  0.2657 -0.2578
 8301W        W21715  10.964   3.166   1.961 -0.1327 -0.0212 -0.1333
 8302W        W21716   9.017  12.667   5.400  0.2369  0.0403 -0.0526
 8303W        W21717   8.200   5.171  14.486  0.0100  0.2367  0.1312
 8304W        W21718   0.795  17.930   3.844  0.2426  0.1218 -0.2250
 8305W        W21719  16.317   0.226   5.512  0.0712  0.0365 -0.0860
 8306W        W21720   9.324   1.088  12.582 -0.1163  0.4257 -0.3300
 8307W        W21721  13.963   0.250  16.196 -0.4647 -0.0709  0.2118
 8308W        W21722   2.957  17.831  14.985  0.0242  0.0186 -0.0352
 8309W        W21723   3.766   2.375  11.908 -0.1556 -0.0685  0.1892
 8310W        W21724  10.497   0.679   9.810  0.0068 -0.0004  0.2205
 8311W        W21725  11.327   3.324   3.886 -0.0591  0.3346  0.1719
 8312W        W21726   0.670   0.326  15.985  0.0415 -0.1528  0.2295
 8313W        W21727  13.880   1.046  14.763 -0.3927  0.0023  0.0071
 8314W        W21728  13.079   4.740  15.718  0.0438 -0.6274  0.0093
 8315W        W21729  15.368   5.807  12.424  0.1462  0.1580  0.0879
 8316W        W21730  12.394  14.429  15.642 -0.1832 -0.1545  0.0062
 8317W        W21731   4.754   9.912  12.005  0.0030 -0.1223  0.0593
 8318W        W21732  11.503   5.651   3.117  0.2299  0.1992 -0.3777
 8319W        W21733  14.780  14.277   3.547 -0.0899 -0.0304  0.2873
 8320W        W21734   4.828  15.435  13.906 -0.0909 -0.0125 -0.0334
 8321W        W21735   1.997   8.815   0.005  0.0871 -0.1809  0.1205
 8322W        W21736  17.151   2.416  15.054  0.1161  0.2264  0.0235
 8323W        W21737  13.269   4.365  11.238  0.4030 -0.0154  0.0336
 8324W        W21738   1.124   3.907  10.015  0.2502  0.0445  0.3007
 8325W        W21739   3.204  16.738  15.560  0.0105  0.1063 -0.0250
 8326W        W21740   6.405   0.289  12.825 -0.0464  0.0714  0.0680
 8327W        W21741   1.433  17.831   0.120  0.0721 -0.3447 -0.0162
 8328W        W21742  12.758   8.455  14.599  0.1667 -0.1206 -0.0654
 8329W        W21743  17.029   2.622   5.251  0.1683 -0.0228 -0.1214
 8330W        W21744   8.924   9.715   3.383  0.0854  0.2521 -0.2494
 8331W        W21745   8.502   2.768  14.162  0.1150 -0.0037  0.0638
 8332W        W21746   6.503   5.576   5.302  0.2233 -0.2900 -0.3735
 8333W        W21747   9.749  15.988   2.662  0.1031 -0.0265  0.2014
 8334W        W21748  18.061  14.383   2.362  0.1361  0.2291 -0.1552
 8335W        W21749  12.258  11.661  10.886 -0.3708  0.0693  0.0935
 8336W        W21750   0.115  15.427   2.342  0.1554 -0.0637 -0.0070
 8337W        W21751   6.522   7.188  16.203  0.1059  0.0678  0.0301
 8338W        W21752  15.011   0.395  10.722 -0.0560  0.0993  0.5899
 8339W        W21753   8.230   8.837   4.905  0.1995 -0.3645  0.1079
 8340W        W21754  14.416  11.096  13.847  0.2544 -0.1269 -0.2293
 8341W        W21755   3.265   5.471  11.216 -0.0367 -0.0040 -0.1360
 8342W        W21756   5.543  10.282  10.934 -0.2359 -0.2778  0.1299
 8343W        W21757  17.974   6.124   2.212  0.2482  0.1837 -0.1548
 8344W        W21758  12.447  15.830   5.065 -0.0318  0.1917  0.0675
 8345W        W21759   2.183   0.588  11.059  0.2534 -0.1074  0.1249
 8346W        W21760   3.726  12.679  16.147 -0.0589 -0.0368 -0.1301
 8347W        W21761  11.019   8.745  15.870 -0.0246 -0.1598  0.2035
 8348W        W21762   8.525  16.194  12.262  0.0845  0.0466  0.0131
 8349W        W21763   2.120  10.342  14.211  0.0233  0.0160 -0.0965
 8350W        W21764   4.795  17.050  12.989  0.0556  0.1138 -0.4887
 8351W        W21765  12.153  10.798  16.212  0.0707  0.2832  0.0414
 8352W        W21766   4.026   9.059   1.512 -0.2711 -0.0411 -0.0695
 8353W        W21767   9.823  17.182   2.998 -0.1576 -0.1436  0.3277
 8354W        W21768   8.000  17.282   0.754  0.2491  0.2013 -0.0743
 8355W        W21769   9.734   1.182  10.648 -0.2172  0.0282 -0.0596
 8356W        W21770  14.581  13.545  13.592 -0.0359  0.0842  0.3978
 8357W        W21771   6.218   3.546   1.027 -0.2571 -0.0575 -0.0612
 8358W        W21772   7.285   0.654   2.468 -0.0650 -0.0097  0.2278
 8359W        W21773   7.433  11.168  14.339  0.0736 -0.1957 -0.0788
 8360W        W21774   1.371   7.890  12.337  0.0610  0.1847 -0.0670
 8361W        W21775  12.153  16.316   2.480  0.4075  0.0967 -0.1496
 8362W        W21776   4.875   0.377   4.237 -0.2215  0.2211 -0.2808
 8363W        W21777  13.131   9.927   1.818  0.1532  0.1003 -0.3760
 8364W        W21778   6.771  12.680   5.398  0.1602 -0.0672  0.1952
 8365W        W21779   3.028   3.900  13.521  0.3157 -0.0695 -0.1152
 8366W        W21780   2.450   5.954   4.327  0.0951 -0.3257  0.0632
 8367W        W21781  15.619  16.082   2.494  0.2387  0.0521  0.1643
 8368W        W21782   9.821  13.536  16.056  0.3534  0.0272  0.1417
 8369W        W21783   9.775   7.761   2.814  0.0567  0.0381  0.0780
 8370W        W21784   3.113  10.259   6.737  0.0748 -0.1534 -0.2929
 8371W        W21785  10.628   6.468  12.749  0.0200  0.0451 -0.0009
 8372W        W21786   5.257   5.399   4.700  0.2692 -0.1958 -0.2360
 8373W        W21787   8.328   6.110  14.649  0.0035 -0.1199  0.2387
 8374W        W21788   1.401  16.413   2.388 -0.0040 -0.1649 -0.0088
 8375W        W21789  11.324  17.826  12.656  0.0735 -0.0255  0.0846
 8376W        W21790   3.538   1.388   2.731 -0.0810  0.0080 -0.2485
 8377W        W21791  16.462   4.229  13.314 -0.0369  0.0855  0.2867
 8378W        W21792   5.574   5.452   0.809 -0.2315 -0.0830  0.2196
 8379W        W21793   7.476  13.244   2.622 -0.0347  0.0917  0.2616
 8380W        W21794  11.309  14.360   5.236 -0.0405 -0.1323 -0.1723
 8381W        W21795   0.045  14.459  12.355  0.2050  0.2820 -0.1980
 8382W        W21796  10.644  17.730  14.856  0.0328  0.1893  0.1091
 8383W        W21797   2.473   9.532  11.229 -0.2677 -0.0710  0.2763
 8384W        W21798   5.562  16.234  13.699  0.4152  0.0484  0.0788
 8385W        W21799   8.921   3.173   6.251 -0.2710  0.1616  0.1381
 8386W        W21800  12.035   5.133   1.766  0.1974 -0.0975  0.1244
 8387W        W21801  16.617  15.571   3.342  0.0121 -0.0855 -0.0674
 8388W        W21802   6.796   6.868  12.707  0.1115  0.2488 -0.2327
 8389W        W21803  16.631   9.841   3.786 -0.0923  0.0477  0.1468
 8390W        W21804  13.860  12.516  12.695  0.0063  0.2466 -0.1480
 8391W        W21805   5.309   7.055   4.586 -0.1070  0.0090 -0.0722
 8392W        W21806  10.444   8.612  12.002  0.1166  0.2456 -0.3018
 8393W        W21807  13.522   9.904  11.379 -0.0468  0.0436  0.2143
 8394W        W21808   1.188  11.106   2.722  0.0003 -0.0544 -0.1222
 8395W        W21809   5.712   9.357  15.174  0.1850 -0.0274  0.2171
 8396W        W21810  12.720   7.448  12.261  0.2016 -0.1702  0.0363
 8397W        W21811   6.808  15.417   5.765 -0.2263 -0.1393 -0.5034
 8398W        W21812   8.813   6.139  16.433 -0.1588  0.2169 -0.1665
 8399W        W21813   1.758  15.373   2.519 -0.0383  0.0921  0.0537
 8400W        W21814  10.032  10.143  14.802  0.2603 -0.0480  0.0976
 8401W        W21815  16.415   5.557   1.713 -0.0918  0.0371  0.2604
 8402W        W21816  14.154   5.403  11.729  0.0623  0.0252  0.1325
 8403W        W21817   4.550  15.389   5.761  0.1406  0.0617 -0.0833
 8404W        W21818  13.858   1.991   2.272 -0.1750 -0.0693 -0.0812
 8405W        W21819   3.874  15.274  10.554  0.1276 -0.0549  0.2140
 8406W        W21820   3.918   4.854  11.630  0.0168  0.1046 -0.2848
 8407W        W21821  13.763   9.761  13.795  0.3948  0.0532  0.0872
 8408W        W21822   8.314  15.918   4.481 -0.1199  0.1348  0.0735
 8409W        W21823   9.728  17.123  13.259  0.1326  0.0426 -0.0951
 8410W        W21824  12.222  15.446  12.928 -0.0624 -0.2509  0.1353
 8411W        W21825   3.235   7.522  12.119  0.4944 -0.3650  0.0212
 8412W        W21826  11.456   6.848  11.050  0.6124  0.1252  0.1911
 8413W        W21827   3.664  12.311  15.757 -0.2370 -0.0226 -0.1910
 8414W        W21828   1.173   2.263  14.998 -0.0520  0.0460  0.0198
 8415W        W21829  15.758  17.479  10.577  0.2507  0.4411 -0.0703
 8416W        W21830   8.900  12.107  15.272 -0.1444  0.0206  0.1695
 8417W        W21831  14.528  13.820   3.845  0.0837 -0.4438  0.0369
 8418W        W21832   9.797  17.395   0.473 -0.1300  0.0390  0.1823
 8419W        W21833   8.122  16.265  12.668 -0.0899 -0.3409 -0.2010
 8420W        W21834   5.851   7.178  14.702 -0.1210  0.0184  0.1020
 8421W        W21835  16.465  13.067  13.165 -0.0470 -0.0334  0.1450
 8422W        W21836   5.540  15.968  14.103 -0.3563 -0.0015 -0.1129
 8423W        W21837  11.256  13.572  13.214 -0.1164 -0.0938  0.3084
 8424W        W21838  16.599   6.192   5.539 -0.1212  0.1731  0.2994
 8425W        W21839  14.746  16.536  11.636  0.0373 -0.2414 -0.0615
 8426W        W21840   7.156  15.837  12.397  0.1360 -0.1009 -0.1653
 8427W        W21841   8.987   2.277  11.337  0.0812 -0.1262  0.0760
 8428W        W21842  17.691   6.406   5.986  0.3803 -0.3094  0.0257
 8429W        W21843   0.598   9.790  15.920 -0.3266  0.1767 -0.0500
 8430W        W21844   5.938  17.271   5.872  0.0213 -0.0384 -0.1542
 8431W        W21845   9.138  10.653  13.785 -0.2108 -0.2357 -0.2855
 8432W        W21846  10.222  11.121   2.044  0.1039  0.1439 -0.4413
 8433W        W21847  14.683   2.466  13.881  0.0267  0.0112 -0.1938
 8434W        W21848   9.003   4.203  12.851  0.0766  0.2271  0.1709
 8435W        W21849  15.598  18.060   2.181  0.0782  0.1372  0.2672
 8436W        W21850   2.686  10.977  15.506 -0.1697 -0.0193  0.3506
 8437W        W21851   4.254  15.388  10.864  0.2489  0.1557 -0.2343
 8438W        W21852  12.712  13.968  14.805  0.0377  0.0117  0.0841
 8439W        W21853  10.139   8.440  14.184  0.0621 -0.2282  0.1196
 8440W        W21854  13.747   6.560  10.519 -0.1034  0.1522  0.2924
 8441W        W21855   1.193  17.058  14.344  0.3844  0.1216 -0.0644
 8442W        W21856   1.916  10.193   4.842 -0.1823  0.1943 -0.0210
 8443W        W21857   3.995  12.348  12.167  0.2244  0.0012  0.0072
 8444W        W21858   2.350   9.752  15.081 -0.3752  0.1485 -0.0280
 8445W        W21859   3.156   3.955  10.899  0.0649  0.1272 -0.0907
 8446W        W21860  17.281  12.682  10.777  0.0299 -0.0881 -0.2585
 8447W        W21861   7.953  16.266  15.635  0.0709  0.1434  0.2252
 8448W        W21862  16.010  15.127  14.899 -0.1536  0.1032 -0.1213
 8449W        W21863  10.000   1.536  10.953 -0.1275 -0.0326 -0.1322
 8450W        W21864   4.567  16.017   3.135 -0.1072  0.0330  0.2069
 8451W        W21865  14.026   1.599   5.525 -0.2338  0.0696  0.0373
 8452W        W21866  12.915   3.192  11.351 -0.0778  0.1166 -0.0243
 8453W        W21867   2.431  14.585  15.930 -0.1509 -0.1298 -0.1133
 8454W        W21868  12.764  18.039   0.222 -0.1633  0.0984 -0.1351
 8455W        W21869  12.184  13.175   2.448 -0.2371 -0.2267 -0.0427
 8456W        W21870   2.967   3.697  16.281  0.3322 -0.2021 -0.3072
 8457W        W21871   0.138  16.351   0.599 -0.4344 -0.0438 -0.2319
 8458W        W21872   0.954   4.088  15.978 -0.1574  0.1006 -0.3427
 8459W        W21873  14.835  13.908  13.121  0.0508 -0.1743 -0.2986
 8460W        W21874  14.471   2.573   5.773 -0.1008  0.2246 -0.1056
 8461W        W21875  12.180   3.901   4.007 -0.0686 -0.2857 -0.0674
 8462W        W21876   2.941   1.012  16.010 -0.2174  0.0766 -0.3349
 8463W        W21877   3.818  15.448  12.490  0.0110 -0.1811 -0.1610
 8464W        W21878  14.342  16.990   0.805  0.0806 -0.1978 -0.2089
 8465W        W21879   6.037   7.190   0.859  0.0556  0.0818  0.1145
 8466W        W21880  16.995   6.061   5.871 -0.3539 -0.0041 -0.1275
 8467W        W21881   8.046   7.827  15.547 -0.0318  0.1526  0.1810
 8468W        W21882   9.383   7.376   1.486 -0.1116  0.0311  0.0018
 8469W        W21883   6.304   1.169   2.233  0.0875 -0.1535 -0.0209
 8470W        W21884  11.917   0.324  16.477  0.1373  0.1507 -0.3191
 8471W        W21885   2.448   5.757  11.154 -0.1339 -0.0389 -0.1640
 8472W        W21886   8.340   9.238  13.874  0.1454 -0.0451 -0.2625
 8473W        W21887  16.231  11.679  10.914  0.0428 -0.2145 -0.0836
 8474W        W21888  17.743   1.020   5.498  0.1051 -0.0663 -0.2376
 8475W        W21889   8.939   8.147  14.382  0.1476 -0.0852  0.0586
 8476W        W21890   7.234  16.465  16.296 -0.3126 -0.1115 -0.0860
 8477W        W21891   6.659   6.427   0.735 -0.1583  0.2166 -0.0115
 8478W        W21892  15.165  11.484  12.752 -0.0358  0.1052  0.0835
 8479W        W21893  10.323  14.154   5.553  0.0845  0.0938 -0.0585
 8480W        W21894  12.526  11.582   2.653  0.0001  0.0810  0.0786
 8481W        W21895   3.798  16.352  14.038  0.1959  0.0790  0.0971
 8482W        W21896   1.753  14.047  12.101 -0.0720 -0.0401 -0.0242
 8483W        W21897   7.612   3.103   5.038 -0.0749  0.1209 -0.0278
 8484W        W21898   1.905   0.422  13.668 -0.0174  0.0041  0.1921
 8485W        W21899   9.541  12.375  16.222 -0.1389 -0.0022 -0.2817
 8486W        W21900  10.561  16.861  12.857 -0.0489  0.2163 -0.3724
 8487W        W21901   5.383   4.920  11.895  0.0176 -0.0692  0.0970
 8488W        W21902  14.287  17.867   2.951  0.0828 -0.1530  0.1004
 8489W        W21903  10.395   9.848  10.432  0.4767 -0.2499  0.2144
 8490W        W21904  16.583   9.792  13.299 -0.0930  0.1431  0.1623
 8491W        W21905  13.291  10.300  16.393  0.0990  0.1233  0.1634
 8492W        W21906  13.111   3.793   1.185  0.0845 -0.1932  0.0392
 8493W        W21907   7.982  11.745   1.756 -0.1599 -0.1650  0.1041
 8494W        W21908   7.601   3.325  10.391 -0.1980  0.2487  0.1569
 8495W        W21909  15.517  11.978   0.574  0.1353 -0.0797 -0.2149
 8496W        W21910   1.249   2.271  16.305 -0.4318 -0.0398  0.0948
 8497W        W21911   2.888  14.262   0.106  0.0351  0.3788 -0.0179
 8498W        W21912   4.645  14.917  16.019 -0.1348 -0.0879  0.4282
 8499W        W21913  13.012   9.964  13.394 -0.1289 -0.1610 -0.1512
 8500W        W21914  13.184  13.294   2.344 -0.3243 -0.3130  0.3707
 8501W        W21915  15.508   9.891   3.402  0.0481  0.1698  0.1976
 8502W        W21916  14.686  15.766  12.622  0.2642  0.1769 -0.2050
 8503W        W21917   6.429  10.892  15.036  0.1447 -0.1652 -0.1933
 8504W        W21918  18.013  10.433   0.294  0.0002  0.2282  0.0271
 8505W        W21919  17.344   0.951   1.509 -0.1121 -0.1554 -0.1754
 8506W        W21920  11.947  18.240   3.711  0.3012  0.2447  0.0970
 8507W        W21921  13.000   9.107   4.314 -0.2186 -0.3300 -0.1046
 8508W        W21922   2.557   8.940   1.212 -0.1863  0.1170  0.2353
 8509W        W21923   5.565  15.245  14.502  0.0192  0.0447  0.4003
 8510W        W21924   8.808   0.408   4.782  0.0355  0.1268 -0.1202
 8511W        W21925  17.910   2.213   5.698  0.0707 -0.1969 -0.0481
 8512W        W21926   1.213   8.168   3.052 -0.3986 -0.1803 -0.1753
 8513W        W21927   0.194  15.348  16.106  0.3548  0.1010  0.1455
 8514W        W21928   7.590  12.873  12.023  0.0154  0.1677 -0.3832
 8515W        W21929   9.036   4.680  12.932  0.0775 -0.1918 -0.0265
 8516W        W21930   5.643  16.778  13.746  0.1965 -0.2605 -0.0786
 8517W        W21931   6.074   0.018  16.121  0.2892  0.1743  0.2265
 8518W        W21932  10.487   3.110   4.683 -0.0039  0.0259  0.3262
 8519W        W21933   6.043   8.078  11.609  0.0626  0.3172 -0.1244
 8520W        W21934   7.713   7.257   0.846  0.1228 -0.5605  0.1422
 8521W        W21935   1.587  11.988  14.974  0.1386  0.1383 -0.1306
 8522W        W21936  11.599   2.079   1.067 -0.1344 -0.2491 -0.1072
 8523W        W21937   9.869   9.418  11.040  0.0119 -0.1708 -0.3343
 8524W        W21938  14.954   3.940  15.185  0.0778 -0.1652  0.1008
 8525W        W21939  10.023  17.046  11.816  0.1852 -0.1467  0.1103
 8526W        W21940  12.830  14.468  12.070  0.0570 -0.0623  0.0345
 8527W        W21941  13.758  13.778   0.593  0.0248  0.2152 -0.1984
 8528W        W21942   0.207  12.541   5.843 -0.0306 -0.2343  0.1075
 8529W        W21943   2.248  11.348   3.229  0.1394 -0.0981  0.0149
 8530W        W21944   6.598   0.779  16.467  0.2359 -0.2573 -0.1529
 8531W        W21945  14.406  13.035   2.093 -0.0146  0.0391  0.4015
 8532W        W21946   4.156  10.632   4.082  0.1469  0.0861  0.1426
 8533W        W21947  11.284   9.416   4.749 -0.0134  0.3048  0.0912
 8534W        W21948   1.908  17.378   4.018 -0.1105  0.0761  0.0791
 8535W        W21949  11.362  16.940  16.162 -0.0412 -0.3958  0.0408
 8536W        W21950  16.997   6.281  12.258 -0.1501  0.3172  0.0856
 8537W        W21951   8.697  17.592   0.277 -0.1457 -0.0509 -0.1714
 8538W        W21952  16.084   0.782   1.441  0.1963 -0.2896  0.0851
 8539W        W21953   7.012  12.384   2.822  0.2696 -0.1394 -0.1322
 8540W        W21954   8.600   7.539  11.344 -0.0141  0.0838  0.1359
 8541W        W21955   3.353   3.455  14.261 -0.1394  0.0214  0.0090
 8542W        W21956   2.321   5.262  11.047 -0.0877 -0.1905  0.0088
 8543W        W21957   6.757  15.770   5.355 -0.0451 -0.1362 -0.1487
 8544W        W21958  15.545  17.000  11.793 -0.1782  0.0326  0.4673
 8545W        W21959  13.346   4.384  10.098 -0.2604 -0.5723  0.3443
 8546W        W21960   0.304  12.253  14.748 -0.5124 -0.3221  0.1362
 8547W        W21961  17.886   4.958  11.913 -0.0683 -0.1789 -0.2050
 8548W        W21962   8.053   9.544  11.311  0.0799  0.0677 -0.0851
 8549W        W21963   6.353  15.005  15.709  0.1236  0.1454 -0.2453
 8550W        W21964  14.726  14.576  11.923  0.1233  0.2095 -0.0889
 8551W        W21965  13.301   5.125  16.413  0.1951  0.1644  0.0069
 8552W        W21966  12.159   3.241  13.033 -0.1062  0.2882  0.2294
 8553W        W21967   9.354   3.333   6.071  0.1352  0.1026  0.0207
 8554W        W21968   8.236   5.063  11.877  0.0413  0.1104 -0.0299
 8555W        W21969  17.522   9.390  16.288  0.0914 -0.1149  0.1904
 8556W        W21970   8.071   1.718   5.823 -0.1155  0.1198 -0.1509
 8557W        W21971  14.961   1.209   4.026  0.0187 -0.4388  0.0358
 8558W        W21972   9.730   0.522  14.738 -0.0278  0.0920  0.0915
 8559W        W21973   0.480  15.856  13.281 -0.0798  0.3617 -0.1291
 8560W        W21974   5.341  12.635   2.800 -0.1215  0.4389  0.0949
 8561W        W21975  10.181  13.148   2.032 -0.0330 -0.0121 -0.0900
 8562W        W21976  15.270   8.592  12.673  0.1080 -0.0146 -0.0822
 8563W        W21977   3.189  10.567  13.361 -0.0232 -0.3667 -0.0430
 8564W        W21978  17.388   0.962   6.512  0.0403  0.2321  0.2129
 8565W        W21979  13.902   3.224   4.215  0.1950 -0.0262  0.2259
 8566W        W21980   0.573  11.200  15.605 -0.0500 -0.1946 -0.1332
 8567W        W21981  17.393   1.487  12.108 -0.0318  0.2810 -0.1235
 8568W        W21982   5.629   0.477   0.954  0.0673 -0.2439  0.0848
 8569W        W21983   4.601   5.514   5.420 -0.3818  0.4735  0.0181
 8570W        W21984   4.387   3.295   1.223 -0.1286 -0.3113 -0.0117
 8571W        W21985   1.006  15.527   2.051  0.0155  0.0129  0.0951
 8572W        W21986   6.150   9.454   0.660  0.1697 -0.0158  0.0786
 8573W        W21987  12.307   3.144   3.848 -0.0959 -0.3682  0.1492
 8574W        W21988  15.086  14.316  11.167  0.1675  0.0052  0.0948
 8575W        W21989  16.835   8.764  11.503  0.1149  0.0428 -0.1238
 8576W        W21990  13.878   8.124   2.478 -0.1669  0.0630  0.0260
 8577W        W21991  14.276  11.590  14.017  0.1037 -0.1022 -0.1156
 8578W        W21992  16.444  17.309  11.017 -0.0365 -0.1547  0.0457
 8579W        W21993   3.298  10.932  15.954  0.1412  0.2069 -0.0728
 8580W        W21994   3.884   7.240  12.837 -0.0513  0.1068  0.0161
 8581W        W21995   8.675  12.540   4.662  0.1259  0.0037  0.1495
 8582W        W21996  17.380   4.359  13.154 -0.2214 -0.0387  0.0958
 8583W        W21997   1.638  16.627   6.129 -0.0159  0.1120 -0.1650
 8584W        W21998   4.904   9.365  16.428 -0.2605 -0.0584 -0.3362
 8585W        W21999  11.994   2.461  13.527 -0.0252  0.0606  0.1214
 8586W        W22000   6.279   2.063   2.336  0.3030 -0.0164 -0.0148
 8587W        W22001  14.959   9.195   0.359  0.0754  0.0454 -0.1282
 8588W        W22002  17.847   6.891  10.658 -0.1520  0.3172  0.0357
 8589W        W22003  16.124   6.847   0.683 -0.1956  0.1722 -0.0634
 8590W        W22004   5.263  12.330   6.145  0.0459  0.0313  0.1562
 8591W        W22005  15.019   2.899  10.606 -0.2884  0.2439 -0.2652
 8592W        W22006  17.200   3.713  11.494 -0.1413  0.0974 -0.0938
 8593W        W22007   8.081  11.131  14.552 -0.0105  0.2257  0.2502
 8594W        W22008   6.322  15.794  12.578 -0.1059  0.3817 -0.0042
 8595W        W22009  12.820   9.943   3.220  0.3860 -0.0191 -0.0181
 8596W        W22010  10.288  16.790  16.335 -0.1985  0.1267  0.0778
 8597W        W22011   5.826   6.872   2.909 -0.3880 -0.1226  0.0776
 8598W        W22012   0.361  17.776   2.009 -0.1250  0.0348 -0.0056
 8599W        W22013  12.135   2.016   4.992  0.0055  0.5009  0.2733
 8600W        W22014   0.305   1.831   0.560  0.0607  0.0212 -0.1433
 8601W        W22015  17.042   6.103   9.862  0.2880  0.2602  0.4584
 8602W        W22016   6.587  13.420   1.566  0.1397 -0.1058  0.3149
 8603W        W22017   6.799  17.902  15.378 -0.1522  0.1657 -0.1313
 8604W        W22018  10.408   4.062  13.848  0.1734 -0.1826 -0.3438
 8605W        W22019   0.655  16.931  11.792  0.0060 -0.1659  0.0365
 8606W        W22020  16.009  18.205  13.403  0.1436  0.1919  0.0014
 8607W        W22021   9.540   3.679  11.517 -0.2941 -0.1201  0.1962
 8608W        W22022   8.217   8.719  13.241 -0.0765 -0.2052  0.0330
 8609W        W22023   1.669   4.364   2.914  0.0884  0.0598  0.1513
 8610W        W22024   2.920   7.153   5.690  0.0989  0.0253 -0.1859
 8611W        W22025   8.670  12.930   3.893  0.1795  0.0140 -0.0429
 8612W        W22026  10.600  12.248   2.353 -0.3562 -0.0112 -0.1151
 8613W        W22027   1.272   8.544   4.980 -0.0140 -0.0516  0.2809
 8614W        W22028   2.662  10.381  12.324  0.2011 -0.1356 -0.1404
 8615W        W22029  12.184  11.863   0.466  0.2613 -0.1014  0.1761
 8616W        W22030   4.774   5.858  14.174  0.0172  0.0149  0.4152
 8617W        W22031  11.634  13.079  12.936 -0.1291  0.2386 -0.0274
 8618W        W22032  10.436  15.989  14.500  0.2225 -0.1261 -0.0289
 8619W        W22033  11.573   5.454  15.453  0.0300 -0.0187  0.1225
 8620W        W22034  11.972   3.936   4.455 -0.1783 -0.1593 -0.0830
 8621W        W22035   5.718   6.927   2.413 -0.0170  0.1235 -0.0310
 8622W        W22036   8.071   0.847   1.788 -0.1955 -0.1509 -0.0346
 8623W        W22037   7.315   4.902  13.591  0.3282 -0.0514 -0.0113
 8624W        W22038   1.230   7.243   3.692 -0.0645  0.1620 -0.0289
 8625W        W22039  15.434   6.776  11.687  0.0368  0.1320 -0.0775
 8626W        W22040   9.091   4.386   4.199  0.1345 -0.0951 -0.2861
 8627W        W22041  12.667  14.254  10.625 -0.0011  0.0854  0.0184
 8628W        W22042  11.850  12.093  11.400  0.2425  0.0815 -0.1133
 8629W        W22043   1.247  16.576   0.464  0.1158 -0.1169  0.2031
 8630W        W22044  11.302   4.613   4.537 -0.2536 -0.0291 -0.2005
 8631W        W22045   9.071  10.330   1.427 -0.2268  0.3826  0.0864
 8632W        W22046   1.749   7.346   0.767 -0.6345  0.1267  0.1678
 8633W        W22047   1.164  12.149  11.289 -0.0435  0.3324  0.1503
 8634W        W22048   5.903  12.300   1.125 -0.4294  0.0058 -0.4209
 8635W        W22049   7.949   4.669   5.462 -0.0417  0.3970  0.4153
 8636W        W22050   3.175  13.404   3.536  0.0136 -0.0119  0.0659
 8637W        W22051  13.321   2.921  11.621 -0.2991  0.0092 -0.2840
 8638W        W22052  15.307  11.531  11.032  0.3174 -0.2280 -0.1971
 8639W        W22053  18.056   3.498  11.943  0.2438  0.0270  0.1547
 8640W        W22054   3.332   6.458   1.901 -0.0757  0.2407 -0.0676
 8641W        W22055   7.601  10.762   2.709  0.0720  0.2358  0.4507
 8642W        W22056   5.642  16.965   1.367  0.0798  0.1097  0.1132
 8643W        W22057   2.716   9.956  12.014 -0.0288 -0.1633  0.1245
 8644W        W22058   9.267  17.993  14.453  0.0467  0.0669  0.3367
 8645W        W22059   3.015  12.132   0.047 -0.3691  0.1763 -0.0238
 8646W        W22060   5.738  12.303  14.302 -0.1348  0.0167  0.0610
 8647W        W22061   7.336   2.347  12.093 -0.0655  0.1498  0.0783
 8648W        W22062   4.071  11.169  11.309 -0.1908  0.2992 -0.0034
 8649W        W22063   5.680  14.293  14.132 -0.0091  0.3720  0.0708
 8650W        W22064   2.042   0.384   3.827 -0.0180 -0.0932  0.0906
 8651W        W22065   2.227   2.972  16.406  0.2950 -0.0079 -0.0675
 8652W        W22066   3.037   2.899  11.752  0.3269  0.0160 -0.1038
 8653W        W22067   2.524   3.498  12.816  0.0396 -0.2677  0.3108
 8654W        W22068  15.089  11.128   5.189 -0.2858  0.2176  0.1187
 8655W        W22069   2.635  16.421  14.248 -0.0989 -0.0631 -0.0607
 8656W        W22070  12.454  13.512  11.799 -0.1267 -0.0748  0.0333
 8657W        W22071  12.313   3.753  16.381  0.0038 -0.0870 -0.0422
 8658W        W22072   6.867  10.589   1.551 -0.0117 -0.0515 -0.0860
 8659W        W22073   3.504   4.407  15.731  0.0082  0.0904  0.1203
 8660W        W22074   2.528  11.093   5.792 -0.1942  0.0563  0.0770
 8661W        W22075   9.464   6.194  15.424  0.0295 -0.1376  0.1688
 8662W        W22076  14.549  17.364  11.633  0.0828 -0.0759 -0.3274
 8663W        W22077  17.760  14.370   0.935  0.1327  0.1845 -0.0676
 8664W        W22078  15.145  16.140   3.621  0.0997 -0.0654  0.0979
 8665W        W22079  12.387   5.352   3.051 -0.0047  0.2155 -0.0904
 8666W        W22080   5.396   0.614  13.465 -0.1134 -0.0980  0.2955
 8667W        W22081  13.531  10.111  15.964  0.0737  0.2244  0.2192
 8668W        W22082  12.121   8.348  12.203 -0.1406 -0.1889  0.1943
 8669W        W22083   0.840  10.519   3.883 -0.2896 -0.1500  0.0979
 8670W        W22084  17.964  15.534   3.093  0.1088  0.0309 -0.0358
 8671W        W22085   0.565   2.850  15.034 -0.1739 -0.0572 -0.3077
 8672W        W22086   7.344   4.904   4.039  0.0481  0.0558  0.1485
 8673W        W22087   7.044   3.790  15.723  0.0604  0.1575 -0.2897
 8674W        W22088   9.329   1.713  11.262 -0.1790  0.1334 -0.0932
 8675W        W22089  15.509  14.726  14.035 -0.5265 -0.2487  0.0040
 8676W        W22090  10.963   7.948   0.507  0.1450 -0.1693 -0.1080
 8677W        W22091  11.624  17.218  11.878  0.1054  0.3288 -0.0671
 8678W        W22092  10.204  14.364  13.263  0.1170 -0.1713 -0.1375
 8679W        W22093  13.065   6.451   4.336 -0.0009  0.2656 -0.0263
 8680W        W22094  16.446   2.302   6.056  0.0383 -0.1929 -0.1886
 8681W        W22095   0.835   5.756  13.630  0.2724 -0.2473  0.2451
 8682W        W22096  12.535   1.742  14.859  0.0879  0.1117 -0.1148
 8683W        W22097  16.267  14.090   1.129  0.3419  0.1529  0.1204
 8684W        W22098  14.261   5.044   5.767 -0.2254 -0.0034 -0.0422
 8685W        W22099   5.748  17.242  11.626 -0.1091 -0.2559 -0.1909
 8686W        W22100  14.982  13.122   2.452 -0.2069  0.0311 -0.3635
 8687W        W22101   3.346  16.706   0.921  0.1748 -0.1348  0.3553
 8688W        W22102   3.677   2.005   3.247  0.0368  0.1094 -0.1703
 8689W        W22103  10.487   1.456   0.343 -0.1550  0.0215  0.0833
 8690W        W22104  12.121  10.974   3.012 -0.6002 -0.0827 -0.2021
 8691W        W22105   8.551  11.976   0.488  0.5732 -0.0155 -0.0228
 8692W        W22106  14.914   5.434  13.502  0.0924 -0.2743 -0.0098
 8693W        W22107   6.292  16.887  11.748 -0.1223 -0.0396 -0.2165
 8694W        W22108  12.906   1.575   3.233  0.0823  0.1597  0.3412
 8695W        W22109   4.465   6.806   4.521  0.1044  0.1954  0.3409
 8696W        W22110  10.673  10.165   4.931  0.0861 -0.0529 -0.1274
 8697W        W22111   6.060   2.187   0.970  0.0656 -0.4669 -0.1279
 8698W        W22112  12.110  10.290  11.387  0.0854 -0.0698 -0.0206
 8699W        W22113  18.187   8.196   4.416 -0.0201  0.1132 -0.0427
 8700W        W22114   7.222  13.049   2.130  0.1584  0.0518 -0.4061
 8701W        W22115  12.988  18.096   2.310 -0.2885 -0.2983 -0.1659
 8702W        W22116  12.781   9.738   4.793 -0.0524 -0.0150  0.0990
 8703W        W22117   5.301   6.119   2.499  0.0161 -0.0547  0.0543
 8704W        W22118   3.792  15.037  12.220  0.0266  0.1144  0.0633
 8705W        W22119   4.950  11.067  15.457 -0.0510  0.1033  0.0321
 8706W        W22120  10.607  12.902  11.111 -0.0886  0.1450  0.2197
 8707W        W22121   1.642   1.051  16.317 -0.3793 -0.0554 -0.0197
 8708W        W22122  14.488  10.800  11.854 -0.1272  0.1051  0.3109
 8709W        W22123   0.872   0.204  11.497 -0.0189 -0.0067  0.0322
 8710W        W22124   6.173  17.644  12.426  0.0606 -0.0764  0.3554
 8711W        W22125  13.891  13.152   3.119 -0.4040 -0.3393 -0.0380
 8712W        W22126  14.304  10.864   3.567 -0.3598  0.1319 -0.5215
 8713W        W22127  11.906  12.502  14.579 -0.0238 -0.3452  0.1464
 8714W        W22128   5.931  15.745  16.424  0.1210 -0.0537  0.0114
 8715W        W22129  10.873  11.266  12.693  0.0221 -0.4939  0.2272
 8716W        W22130   7.370  16.142   0.613  0.0322 -0.0726  0.1802
 8717W        W22131   3.675   2.143   0.405  0.1145  0.4263 -0.1159
 8718W        W22132  18.117   1.401  13.793  0.0176 -0.1977 -0.0186
 8719W        W22133   5.737  11.455   0.017 -0.1070 -0.1025 -0.0748
 8720W        W22134   5.638  12.876  12.345 -0.0747 -0.0603  0.2739
 8721W        W22135   8.935   8.891   4.110 -0.2210 -0.3040  0.1313
 8722W        W22136   3.827   7.992  15.320  0.0875  0.0465  0.0883
 8723W        W22137   0.008   5.701   4.504 -0.0848  0.0210 -0.3616
 8724W        W22138   4.026  14.059  12.664 -0.0297  0.1845 -0.1818
 8725W        W22139  15.772  12.140  13.168  0.2969  0.0955  0.3447
 8726W        W22140  17.391  18.207   3.457  0.0576 -0.4569  0.0073
 8727W        W22141  17.934  15.516   4.031 -0.0410 -0.1965  0.0865
 8728W        W22142   7.313  15.780   4.802  0.1692  0.2149  0.1817
 8729W        W22143   0.031  12.862  14.283 -0.0786 -0.0825 -0.0238
 8730W        W22144   8.133   7.159  14.414  0.1781  0.3089 -0.3623
 8731W        W22145  11.121   2.597  13.467 -0.4116  0.1906 -0.0063
 8732W        W22146  18.081  16.777   3.797 -0.3026  0.0823  0.2773
 8733W        W22147  10.485  14.771  14.419 -0.0734 -0.2954  0.0218
 8734W        W22148  15.864   1.081  14.936 -0.0280  0.2543 -0.1583
 8735W        W22149  17.832   1.874  13.099 -0.2147 -0.0841 -0.1714
 8736W        W22150   9.594   4.773  15.037  0.0951  0.1056  0.0545
 8737W        W22151   6.362   1.244  12.246  0.0302 -0.0033  0.2888
 8738W        W22152  13.007   8.916   0.305  0.1037 -0.2485 -0.1273
 8739W        W22153   9.189   0.744  15.622  0.0259  0.0747  0.1538
 8740W        W22154   1.218  14.709   0.844  0.1017 -0.0868  0.0883
 8741W        W22155   0.397  12.606  15.713 -0.1627  0.0878  0.3160
 8742W        W22156   3.366   0.590   2.401 -0.0188 -0.0650 -0.2047
 8743W        W22157   5.965  11.001   5.031 -0.1375 -0.0556  0.1691
 8744W        W22158  14.038   9.995   0.769 -0.1860 -0.0436 -0.3245
 8745W        W22159  17.886  13.258   4.810 -0.2307  0.0198  0.0592
 8746W        W22160   9.092   2.362   5.863 -0.1941 -0.2245  0.0489
 8747W        W22161  11.543   0.236  11.514 -0.1212  0.1368  0.0715
 8748W        W22162  15.837   5.999   0.743 -0.1464  0.0232 -0.2491
 8749W        W22163  17.354  17.677   3.218  0.2886  0.0795 -0.1462
 8750W        W22164   7.576   0.846   0.374 -0.1109  0.0730  0.1098
 8751W        W22165  16.098   3.554  11.604 -0.1381 -0.2081 -0.1502
 8752W        W22166   1.581   8.925  13.207 -0.0035 -0.0205 -0.0802
 8753W        W22167  12.813  15.934  11.547  0.0157 -0.0375 -0.0007
 8754W        W22168   8.635  11.633   3.483  0.1685 -0.2346 -0.1335
 8755W        W22169  14.952  14.709  10.899  0.2278  0.1217 -0.0996
 8756W        W22170   8.437   9.068   5.587  0.0829 -0.1425 -0.0963
 8757W        W22171   9.707  18.063  16.089 -0.0289  0.4095 -0.2481
 8758W        W22172  17.746  11.081  12.522  0.3467  0.1232 -0.3451
 8759W        W22173   7.671   1.173  12.831 -0.0280  0.0459  0.3799
 8760W        W22174  12.810  13.028   0.876  0.0738  0.2306 -0.2068
 8761W        W22175   7.345   7.627  11.668 -0.0611 -0.3599  0.2913
 8762W        W22176   9.484   5.708   3.555 -0.4342 -0.2917 -0.0543
 8763W        W22177  11.946   6.303   1.431  0.0771 -0.3931  0.0107
 8764W        W22178   7.913   3.390  14.572 -0.2537 -0.1031  0.0779
 8765W        W22179   1.452  14.121   2.916  0.0799  0.2981  0.2225
 8766W        W22180   6.812  12.865   3.696  0.1769 -0.0336 -0.4257
 8767W        W22181  16.365  12.078   1.162  0.1474 -0.2944  0.0300
 8768W        W22182   1.801  11.050  12.239  0.0615  0.0595  0.2186
 8769W        W22183   7.136   3.010  14.658 -0.1814 -0.1543 -0.0041
 8770W        W22184   4.956   6.604  15.795  0.2265  0.0245  0.2023
 8771W        W22185  12.742  16.930  14.631  0.1899  0.0503 -0.1560
 8772W        W22186   8.787  11.253   4.967 -0.0808 -0.1080  0.0006
 8773W        W22187  13.213   8.421  12.806  0.1029 -0.1227  0.1141
 8774W        W22188  13.284  16.375  10.545  0.0190  0.2031  0.1466
 8775W        W22189  17.036   8.196   6.242  0.0293 -0.1108 -0.1397
 8776W        W22190   6.164   5.459   0.128 -0.0876  0.4339  0.0542
 8777W        W22191   0.792   3.954   1.081 -0.3335 -0.1189 -0.2368
 8778W        W22192  13.777  13.739  13.204 -0.0677 -0.0790 -0.0301
 8779W        W22193  11.149  12.840   1.807 -0.1082 -0.3197  0.1032
 8780W        W22194  18.057  17.197   5.535  0.1356  0.1974 -0.0073
 8781W        W22195  13.338   1.723  15.220  0.2401 -0.1613 -0.0611
 8782W        W22196   0.656   0.435   0.184 -0.0528  0.1251 -0.0080
 8783W        W22197   1.247  10.475  13.728  0.2131 -0.1693  0.2554
 8784W        W22198  12.019  13.314   5.958  0.1094 -0.4040  0.0369
 8785W        W22199   5.840  17.895  12.696 -0.2094 -0.4404  0.2523
 8786W        W22200  17.093   7.537  11.839 -0.1631 -0.0816 -0.3073
 8787W        W22201   4.830   6.185   4.789 -0.2532 -0.1638  0.0544
 8788W        W22202   7.833  15.339   1.567  0.1553  0.0843 -0.0219
 8789W        W22203  11.845   5.542   3.563 -0.2556  0.2128  0.1188
 8790W        W22204   0.060  10.111   4.279 -0.3478 -0.1033  0.2466
 8791W        W22205  17.359  11.031   5.807 -0.0117 -0.2911  0.1942
 8792W        W22206  14.633   7.132  10.285  0.1196  0.1101  0.1119
 8793W        W22207   9.181  15.669   1.709 -0.0752 -0.1506  0.1773
 8794W        W22208   1.023   5.251  14.972  0.1686 -0.2222  0.4007
 8795W        W22209   5.969   4.991   0.047 -0.3618  0.1750  0.2733
 8796W        W22210  13.197   6.664   1.450 -0.2000 -0.0543 -0.0060
 8797W        W22211  12.990   5.153   5.206  0.1742  0.2208  0.1966
 8798W        W22212   0.157  14.034  14.698  0.0565 -0.1951 -0.0568
 8799W        W22213   6.540   9.430  15.616 -0.1882  0.1000  0.0128
 8800W        W22214  14.122  14.752   4.092 -0.0677 -0.2111 -0.1587
 8801W        W22215  15.362   7.637   1.097 -0.1264  0.1406 -0.0317
 8802W        W22216   4.857   9.245  14.499 -0.2799  0.0028  0.0707
 8803W        W22217   4.088   8.221  12.142  0.0342  0.0122  0.1097
 8804W        W22218  14.195  11.520   4.366  0.2508 -0.1540 -0.0388
 8805W        W22219   7.200  14.718  11.760 -0.1436 -0.2460 -0.1003
 8806W        W22220   0.808  15.300   2.984 -0.2854  0.0920  0.1350
 8807W        W22221   1.431   4.992   4.498  0.0723  0.0694  0.1373
 8808W        W22222   3.713   0.272   3.458  0.0757 -0.0697 -0.0062
 8809W        W22223   2.080  14.139   5.603 -0.1012 -0.2452  0.3648
 8810W        W22224   7.613  14.298   4.562 -0.2330  0.1524  0.1072
 8811W        W22225  14.129   3.548  13.050 -0.2483 -0.2190  0.0903
 8812W        W22226  12.499   4.361   1.573 -0.2891  0.1650 -0.2772
 8813W        W22227   8.365   5.060   2.408  0.2446 -0.0832  0.0922
 8814W        W22228  14.185   0.921   0.875 -0.1221 -0.3037  0.0721
 8815W        W22229  12.830  10.909   5.354 -0.2123  0.1211 -0.2373
 8816W        W22230   0.188   0.869  13.185  0.0822  0.0051  0.2215
 8817W        W22231   0.827  11.646  14.481  0.2215  0.2218  0.0970
 8818W        W22232   5.884  15.333   1.678  0.1837 -0.0046  0.0553
 8819W        W22233  16.645  15.084  13.099 -0.2464  0.0632 -0.1237
 8820W        W22234  12.300   2.518   5.779 -0.2125  0.0538  0.0795
 8821W        W22235  11.789   2.631   3.300 -0.0026  0.0116 -0.0378
 8822W        W22236  16.976  14.640   3.199 -0.3088 -0.0029 -0.0096
 8823W        W22237   5.829  15.292   4.248  0.2370 -0.0985  0.2638
 8824W        W22238  11.255   9.057   1.669 -0.0033  0.1400 -0.1118
 8825W        W22239  11.912  10.622   3.348  0.1252  0.0031 -0.1419
 8826W        W22240  11.131   3.888  10.774  0.2830 -0.0295 -0.3943
 8827W        W22241   3.856   6.945  10.290  0.0902  0.0123 -0.1474
 8828W        W22242   1.692  14.606   4.406 -0.1723 -0.1370 -0.2055
 8829W        W22243   2.578  18.024  14.506  0.1494  0.0002  0.0745
 8830W        W22244   8.409  11.211   6.448  0.3531 -0.2316  0.1939
 8831W        W22245  12.804  16.684   0.398 -0.0839 -0.0676  0.0793
 8832W        W22246   4.010  12.959  13.802  0.2168  0.1120 -0.3730
 8833W        W22247   1.766   7.375  14.871  0.0376  0.0865  0.0220
 8834W        W22248  13.396   7.541   1.307  0.0496  0.0705  0.3174
 8835W        W22249   0.285  16.019   2.404  0.0161  0.0621  0.0710
 8836W        W22250   5.298   7.370   1.872  0.0975  0.1922  0.1470
 8837W        W22251   2.499  14.515  16.423 -0.0976 -0.3897  0.1627
 8838W        W22252   7.990  13.973  15.944  0.3407 -0.0560 -0.0950
 8839W        W22253   9.102  12.639  12.838 -0.0803 -0.0944 -0.1274
 8840W        W22254  15.405   4.233  14.242  0.2477 -0.0125 -0.0162
 8841W        W22255  15.451  15.546  14.282  0.1060  0.1952 -0.5156
 8842W        W22256   8.142   8.487  11.195 -0.1301 -0.2162  0.1960
 8843W        W22257   5.697   3.962  15.613  0.0704  0.4286 -0.2152
 8844W        W22258  14.659  10.515  14.710  0.0055  0.2357 -0.2587
 8845W        W22259  14.953   1.836  13.298  0.1528  0.0181 -0.1287
 8846W        W22260   3.424   1.803  11.467  0.0165  0.3109 -0.0737
 8847W        W22261   7.702   2.835  14.017  0.0135 -0.1115  0.1511
 8848W        W22262   1.783  16.637  15.303  0.1036 -0.2320  0.1473
 8849W        W22263  14.562   1.403  16.086  0.1864  0.0049 -0.0168
 8850W        W22264   8.490   0.315   5.775  0.3435 -0.0142  0.0562
 8851W        W22265  17.799  16.866  13.121  0.4072  0.0030 -0.1657
 8852W        W22266   1.905  12.757  14.101 -0.0947  0.0572  0.0426
 8853W        W22267   7.909  15.385  13.530 -0.0724 -0.1472  0.0055
 8854W        W22268   3.545  10.917   4.475 -0.0109 -0.0023 -0.0913
 8855W        W22269   2.123  16.330   1.727  0.0597 -0.0530  0.1144
 8856W        W22270  12.032   9.136  14.639  0.1214  0.0402 -0.1243
 8857W        W22271   5.149   7.061  14.328  0.2531  0.0376  0.1490
 8858W        W22272   3.008   9.958   5.507  0.0062 -0.1167 -0.2193
 8859W        W22273  11.433   9.459  13.781  0.0331 -0.0843 -0.2566
 8860W        W22274   5.459   0.339   0.065 -0.0883 -0.0145  0.4169
 8861W        W22275  18.214   5.077  12.303  0.0601  0.1158  0.0187
 8862W        W22276   5.801  16.504   0.224  0.1159  0.0300  0.2411
 8863W        W22277  15.908   9.417  14.719 -0.1249 -0.1452  0.0052
 8864W        W22278  16.943   5.693   3.045  0.2567 -0.1179 -0.0876
 8865W        W22279   6.930   0.848   9.965  0.3687  0.2672  0.0784
 8866W        W22280   8.453   0.539  16.070  0.0485 -0.1117 -0.3307
 8867W        W22281  14.435  11.013   1.678  0.0072  0.4092  0.1041
 8868W        W22282  12.668   7.332  10.777 -0.2174  0.2876  0.3230
 8869W        W22283   9.993  15.612  12.328 -0.1369 -0.0215  0.1025
 8870W        W22284  14.258   4.244   0.764  0.1859 -0.3367  0.1129
 8871W        W22285   0.102   9.699  10.581 -0.4417 -0.0196 -0.0095
 8872W        W22286   3.651   1.241   5.773  0.1441  0.0020 -0.0210
 8873W        W22287  15.217  12.042   1.935 -0.4978  0.1597 -0.0258
 8874W        W22288   4.402  13.558  12.568  0.0671 -0.1373  0.2243
 8875W        W22289   6.318  12.251   2.836 -0.1669  0.0425  0.0269
 8876W        W22290   7.334   5.459  15.801 -0.0534  0.0777 -0.2634
 8877W        W22291   6.271   7.484  15.188  0.0675  0.1128 -0.2285
 8878W        W22292   1.039   3.549   4.384  0.1276 -0.1745 -0.2029
 8879W        W22293  11.573  17.078  10.513  0.0603  0.2821 -0.0001
 8880W        W22294   0.873   2.819   2.647 -0.0936  0.1047 -0.0008
 8881W        W22295   5.439   5.830  11.738  0.1427 -0.0929 -0.0244
 8882W        W22296  13.136   0.048   3.833  0.1348 -0.1405 -0.0002
 8883W        W22297   8.746  17.273   5.633 -0.2238  0.1019  0.0177
 8884W        W22298   0.413  15.236  11.736 -0.2477  0.1077 -0.2834
 8885W        W22299  11.457   5.450  10.995  0.1707 -0.0092 -0.0355
 8886W        W22300  18.067   0.616  12.832 -0.4271  0.1454  0.2160
 8887W        W22301   1.645   1.596   2.045  0.2523  0.1464  0.0149
 8888W        W22302  15.453  15.754   3.756  0.2414 -0.4316  0.1705
 8889W        W22303  16.680   2.639  12.044  0.2134 -0.1208 -0.3251
 8890W        W22304   5.327  15.072   2.619 -0.3581  0.1577 -0.2147
 8891W        W22305   7.352   1.740  11.817  0.5556  0.0520 -0.1562
 8892W        W22306   1.598  14.631  15.186  0.1576 -0.3453 -0.0843
 8893W        W22307  15.454  15.482  11.004 -0.0450 -0.1601 -0.0508
 8894W        W22308   2.016   2.976   6.059  0.1599  0.0263 -0.1378
 8895W        W22309  17.147   1.309   0.721 -0.1710  0.2463  0.0038
 8896W        W22310   5.406   6.840   1.837  0.2478  0.0977  0.0361
 8897W        W22311  12.759  15.741   4.531 -0.2506  0.2877 -0.0499
 8898W        W22312  14.451  15.428   6.121  0.0699 -0.0391 -0.1179
 8899W        W22313  10.400   1.587  12.171 -0.0028  0.0789  0.0251
 8900W        W22314   2.065  12.681  12.441 -0.2071 -0.1764  0.0824
 8901W        W22315   9.895  14.008   1.665 -0.0128 -0.2837  0.2332
 8902W        W22316  16.035   7.578   3.845 -0.2811  0.3307 -0.3348
 8903W        W22317   5.258   4.444   2.412  0.1141 -0.0627 -0.1457
 8904W        W22318  15.635  16.771   6.293  0.0549  0.1842 -0.1126
 8905W        W22319  16.119   9.249   4.636 -0.2203 -0.1978  0.0025
 8906W        W22320   9.327   6.877   0.689  0.1034  0.0467  0.1008
 8907W        W22321   1.795   0.902   1.565 -0.1861  0.2585 -0.1393
 8908W        W22322  11.146  14.277   4.786 -0.0275  0.2970  0.4498
 8909W        W22323   8.899   1.810  11.509  0.0786 -0.0614 -0.1067
 8910W        W22324  17.040   4.516  10.726  0.1580 -0.5424  0.3480
 8911W        W22325   0.357   4.636   3.343 -0.3573 -0.2588  0.4686
 8912W        W22326  15.165  15.295  12.133  0.0669  0.1993 -0.3443
 8913W        W22327   9.409  14.640  11.676 -0.1492 -0.3407  0.0692
 8914W        W22328   2.816  16.106  16.256  0.1136 -0.0658 -0.2788
 8915W        W22329  17.446  14.775  12.941  0.1291  0.0479  0.1273
 8916W        W22330   9.754   6.483   1.797 -0.0645  0.1656  0.0116
 8917W        W22331   2.788  10.862   3.048  0.1004  0.1502  0.0212
 8918W        W22332   3.120   6.828  13.796 -0.0109 -0.0504 -0.0347
 8919W        W22333   1.001   9.299  11.641  0.0847 -0.1910  0.2672
 8920W        W22334   4.926  15.132  12.599  0.0795 -0.1402 -0.1403
 8921W        W22335   9.107  13.665  14.592  0.0710  0.0738  0.1259
 8922W        W22336  10.712   8.467   5.073 -0.0914 -0.0251  0.0971
 8923W        W22337   5.424   7.364  14.521  0.2147  0.0318 -0.4543
 8924W        W22338  15.804   7.141  15.208 -0.2813 -0.2185 -0.1757
 8925W        W22339   1.999   5.685   3.128 -0.1448 -0.1713  0.1797
 8926W        W22340  14.787   3.383   4.716  0.0173 -0.0569  0.0055
 8927W        W22341  14.594   4.433  10.632  0.0847 -0.0697  0.1132
 8928W        W22342   2.844  12.300  14.493  0.0072  0.2815 -0.1330
 8929W        W22343   9.188  16.326   1.873  0.2080 -0.2326 -0.1689
 8930W        W22344   4.171   0.134  13.509  0.1352  0.0589 -0.1642
 8931W        W22345   5.330   3.183   3.388  0.1247 -0.1064 -0.2691
 8932W        W22346  15.402   4.287   3.127 -0.1826 -0.0417 -0.1372
 8933W        W22347   2.021  15.258  12.457 -0.0499 -0.1687 -0.0616
 8934W        W22348   8.971   4.763  14.112 -0.1643 -0.2667  0.1445
 8935W        W22349  12.145  17.708  11.533  0.1133 -0.0963 -0.0511
 8936W        W22350  10.267  14.178   4.172  0.0949 -0.2577  0.0469
 8937W        W22351   7.734   4.192   4.701  0.2735  0.2269  0.0400
 8938W        W22352  10.507  12.648  16.028  0.2276 -0.2451  0.3575
 8939W        W22353  12.094   2.720   3.730 -0.2746  0.2224 -0.2841
 8940W        W22354  11.768   0.517  14.889  0.2837 -0.3358  0.1855
 8941W        W22355  12.331  10.683  12.598  0.1697  0.3084  0.1620
 8942W        W22356   8.282   4.675   0.275  0.0933  0.1143  0.3117
 8943W        W22357   3.503   1.883   5.612 -0.1205 -0.1490  0.3414
 8944W        W22358   5.367  12.690  14.490 -0.1180 -0.2736 -0.0644
 8945W        W22359   9.335   2.340  16.082 -0.3276  0.5130  0.0723
 8946W        W22360  18.084   6.769  10.220  0.0421 -0.1465  0.0130
 8947W        W22361   4.838  10.054  11.170  0.1706  0.2416 -0.3205
 8948W        W22362  12.918   6.298   0.392 -0.1412 -0.1162  0.0021
 8949W        W22363   7.533  11.298  14.812 -0.3884  0.2239 -0.0478
 8950W        W22364   5.043   8.214   5.915  0.4954  0.2980  0.0821
 8951W        W22365  18.186   7.881  14.101 -0.1523  0.0158  0.0414
 8952W        W22366   4.750  16.899  15.785  0.2431 -0.3671  0.1832
 8953W        W22367   3.597   8.903   5.795  0.1496 -0.0219  0.4964
 8954W        W22368   8.767  12.506  11.846 -0.0214  0.1404  0.0644
 8955W        W22369   3.825   3.320   3.174  0.4092  0.3037 -0.2053
 8956W        W22370   9.704  16.923  14.140 -0.0413 -0.2561  0.4174
 8957W        W22371   5.382   2.097   1.760 -0.1715 -0.1479 -0.0563
 8958W        W22372   7.019  10.573   5.809  0.1346 -0.0646 -0.1130
 8959W        W22373   9.180  16.500   0.889  0.1131  0.0481  0.0298
 8960W        W22374   0.016  13.496  12.675 -0.2502  0.1459  0.2277
 8961W        W22375   0.091   9.161   1.996  0.2569  0.1611  0.1415
 8962W        W22376   6.043  18.103  13.342  0.0437 -0.4268 -0.2067
 8963W        W22377  13.552   3.191   0.374  0.0585 -0.0196  0.1105
 8964W        W22378  17.728   7.093   1.080 -0.0439  0.0280 -0.2841
 8965W        W22379  11.045   2.069   3.081  0.1768 -0.0108  0.0542
 8966W        W22380   7.917   9.469  14.148  0.1196 -0.2823  0.0738
 8967W        W22381   2.213   6.586  15.308  0.3653 -0.1238 -0.0873
 8968W        W22382   9.859   5.867  12.969  0.0119  0.0970  0.3295
 8969W        W22383  14.953   5.088  14.832  0.2396 -0.1650 -0.0413
 8970W        W22384  11.128   8.592   1.220  0.2927  0.0704 -0.0904
 8971W        W22385   1.872   4.843  13.623 -0.0201 -0.3337 -0.0426
 8972W        W22386  13.171   1.376   5.994  0.1451  0.1571 -0.0111
 8973W        W22387   2.451   2.639  15.754 -0.0522 -0.2747 -0.0290
 8974W        W22388   2.172   9.202   3.587  0.0049  0.0551 -0.2375
 8975W        W22389  17.792   2.678   5.536  0.3564  0.0266  0.0928
 8976W        W22390   7.468  13.858  10.183 -0.1738  0.1237  0.0630
 8977W        W22391   7.925   4.471  11.397 -0.0311  0.1794 -0.2222
 8978W        W22392   9.236   0.604   0.383 -0.0238  0.0758 -0.2524
 8979W        W22393   4.562   1.305  16.407  0.1290  0.2345 -0.2971
 8980W        W22394   2.747   8.883  14.116 -0.0784 -0.1351 -0.0178
 8981W        W22395  12.485   4.076  16.034  0.1375 -0.3372 -0.4343
 8982W        W22396   8.910   5.336   3.048  0.1188  0.0008  0.2478
 8983W        W22397  17.643  17.639   6.744 -0.0393  0.0695  0.1799
 8984W        W22398  14.560   2.834  13.285 -0.1440 -0.0569  0.2221
 8985W        W22399  12.421  12.429   2.992 -0.0262  0.0733 -0.4148
 8986W        W22400  13.843   9.427   5.926  0.0112 -0.0899 -0.0091
 8987W        W22401  12.484  14.061   3.579 -0.0527  0.3229  0.0696
 8988W        W22402   0.454   9.754   0.424  0.0398  0.0496 -0.2360
 8989W        W22403   6.182  17.932   3.693  0.1405  0.2310  0.0482
 8990W        W22404   8.720  17.004   1.545  0.1509  0.0832 -0.1156
 8991W        W22405   8.733   7.341   4.443 -0.1769  0.2137 -0.1097
 8992W        W22406   3.722  10.111  14.370 -0.0708 -0.3852  0.2173
 8993W        W22407  18.213   5.605  13.986 -0.0270  0.0241 -0.2747
 8994W        W22408  13.944   8.650  15.121  0.1002  0.2014  0.0481
 8995W        W22409   5.159  17.903   2.077  0.1487  0.1471 -0.3493
 8996W        W22410  12.137   4.692  14.169  0.0292  0.0871  0.0704
 8997W        W22411   7.105   0.139  14.579  0.2347  0.0938 -0.1823
 8998W        W22412  11.723   5.133  14.158 -0.1146  0.1804  0.1092
 8999W        W22413   2.235   0.787  13.312  0.0039 -0.1700  0.1881
 9000W        W22414   6.291   5.833  10.073  0.1259  0.0027  0.1818
 9001W        W22415   8.536  12.017  13.019  0.2538  0.0466 -0.0793
 9002W        W22416  11.732  13.196  16.407  0.2413  0.0258  0.1004
 9003W        W22417   9.924  13.432   3.615  0.2321 -0.3138 -0.4460
 9004W        W22418   8.635  11.699  15.291 -0.1561  0.1186  0.1128
 9005W        W22419   5.074  15.238   4.521 -0.3777  0.1717 -0.2382
 9006W        W22420   6.045   4.574   0.474  0.1299  0.1783 -0.0092
 9007W        W22421   2.787   8.533   3.861 -0.2524  0.0377 -0.2059
 9008W        W22422   2.659   8.229  16.040  0.0284  0.0579  0.2293
 9009W        W22423   8.619  18.021  13.688 -0.2612  0.1326 -0.0015
 9010W        W22424   3.339   9.557  11.462  0.1093 -0.1248  0.0839
 9011W        W22425  11.091   9.462   3.787  0.0612 -0.0161  0.1840
 9012W        W22426  17.381   1.372  11.565  0.1753 -0.0448 -0.2605
 9013W        W22427   9.993   6.001   6.441 -0.2143 -0.0017 -0.2262
 9014W        W22428  12.530  16.912  12.317  0.1273 -0.3107 -0.0987
 9015W        W22429   5.194   3.650   3.372 -0.0452  0.0501  0.1364
 9016W        W22430  18.192   8.611   5.360  0.4145  0.1905 -0.2758
 9017W        W22431  17.193   5.658  13.738  0.1140  0.0291  0.0464
 9018W        W22432   9.116   2.016  10.904 -0.4132 -0.0728  0.2458
 9019W        W22433  12.394  12.518   5.304 -0.1640  0.3640 -0.1571
 9020W        W22434   9.396   6.440   5.570  0.2091 -0.2778 -0.0051
 9021W        W22435  12.723  12.902   0.427  0.1329  0.0527 -0.3714
 9022W        W22436  11.701   5.414  14.560  0.3225  0.0019  0.0623
 9023W        W22437   2.851  17.031  12.575  0.0986 -0.2831  0.3035
 9024W        W22438  14.087   2.160   4.764  0.1039  0.1528 -0.2293
 9025W        W22439   5.436   1.710  14.928  0.1189  0.0624  0.0478
 9026W        W22440   3.322  17.838   6.046 -0.2730 -0.0728  0.0350
 9027W        W22441   8.621  17.681  12.317  0.2228 -0.1170  0.1329
 9028W        W22442  10.414   2.354   5.936  0.2593 -0.0337  0.0145
 9029W        W22443   5.003  10.022   1.879 -0.0436  0.0502  0.1885
 9030W        W22444   3.907  14.607  15.932 -0.1632  0.1943 -0.2241
 9031W        W22445   7.084   3.461  12.251  0.1130 -0.1984 -0.0955
 9032W        W22446   3.672  15.962  16.276 -0.0364 -0.2521  0.1545
 9033W        W22447  14.850  11.430   2.212 -0.0692  0.0567 -0.1812
 9034W        W22448   3.772   4.934   5.578  0.0176 -0.0508 -0.1696
 9035W        W22449  13.740  10.541  15.669 -0.0076  0.3205  0.0029
 9036W        W22450   2.353   8.603   3.555  0.1142  0.2129  0.1404
 9037W        W22451  12.349   8.740   1.813  0.2203  0.1642  0.1200
 9038W        W22452  10.975  10.703  13.534  0.1468  0.1044 -0.3782
 9039W        W22453   9.295   6.891  11.169  0.4456  0.1237  0.1699
 9040W        W22454  12.223   3.344  14.471 -0.1533 -0.0950  0.1357
 9041W        W22455   4.470   0.484  11.195 -0.2809  0.1908  0.1515
 9042W        W22456   1.121  17.339   6.133 -0.1134 -0.0854 -0.0334
 9043W        W22457   7.556  14.654   5.099 -0.2171 -0.0241  0.1993
 9044W        W22458  13.080   1.899   2.330 -0.0555  0.3028  0.2454
 9045W        W22459   7.493  13.674   2.929  0.2560 -0.1919 -0.0686
 9046W        W22460  15.112   5.732  11.037 -0.1848  0.0690  0.2749
 9047W        W22461   7.654  11.821   5.033  0.2496  0.0058 -0.0781
 9048W        W22462   4.253  17.810   0.807  0.3832  0.1347 -0.0040
 9049W        W22463  15.449  15.091  14.471  0.0467  0.0967 -0.2414
 9050W        W22464   7.654  15.907   3.855  0.1746 -0.1183  0.1097
 9051W        W22465   6.951   5.487   5.567  0.1007  0.0053 -0.2519
 9052W        W22466   4.873   1.095  16.041 -0.3991 -0.0081 -0.0369
 9053W        W22467   7.421  11.328   5.351 -0.2037  0.0646 -0.0511
 9054W        W22468  14.761   9.812  11.848 -0.2623  0.1698  0.0556
 9055W        W22469  11.775  10.304   0.596 -0.0189  0.0867 -0.2060
 9056W        W22470  16.532  17.089   0.105  0.0385  0.1420 -0.0646
 9057W        W22471   4.097  13.800   3.923  0.2838  0.2209  0.1033
 9058W        W22472   2.399   9.389  12.017 -0.2780 -0.0571  0.0328
 9059W        W22473  13.258   2.640   1.904 -0.0215 -0.1832  0.2957
 9060W        W22474  11.613   4.356  11.570  0.0542  0.2386 -0.4038
 9061W        W22475   8.026  13.362  13.162  0.1850  0.0693 -0.3033
 9062W        W22476   1.145   5.036  16.262  0.1847 -0.0868 -0.1971
 9063W        W22477   8.734   6.979  15.368  0.0396  0.0713  0.2820
 9064W        W22478   8.020   2.972  15.537  0.1454 -0.2522  0.0437
 9065W        W22479   5.032  11.877  13.858 -0.3253 -0.0870  0.1602
 9066W        W22480   4.100  13.534  14.295 -0.1808  0.2341  0.1735
 9067W        W22481   7.028  17.496  13.526  0.1073 -0.0733 -0.1285
 9068W        W22482   8.208  13.621   3.344  0.2512 -0.1195  0.0906
 9069W        W22483   6.653   6.590  11.594 -0.1401 -0.2740 -0.0343
 9070W        W22484  16.734   1.001  13.814 -0.2011 -0.0651  0.1983
 9071W        W22485  10.507   3.020  15.967 -0.1610 -0.1131 -0.1045
 9072W        W22486  13.791   1.379  15.999  0.2037 -0.1037  0.1945
 9073W        W22487   3.207   7.019  14.335  0.0126 -0.0489  0.2598
 9074W        W22488  12.621   7.726   4.877  0.0451  0.1120 -0.2413
 9075W        W22489  10.655   2.562  10.485 -0.0024 -0.1045  0.4164
 9076W        W22490   6.560  10.203  13.124 -0.2740  0.0425  0.4354
 9077W        W22491  17.615  17.857   4.869  0.1712  0.1028 -0.0805
 9078W        W22492  13.930  16.034   1.395  0.0931  0.2560  0.0870
 9079W        W22493  12.680  16.119  12.026 -0.1070 -0.1531  0.0211
 9080W        W22494  13.749   6.094  13.010  0.1014  0.2814 -0.1668
 9081W        W22495   5.023  11.455   2.158  0.1289  0.2591 -0.4452
 9082W        W22496   2.312   1.428  11.233  0.2079  0.0315 -0.0873
 9083W        W22497   7.396  17.069   1.487 -0.1587 -0.0285  0.2012
 9084W        W22498   0.108   5.204  13.529  0.2188  0.3585 -0.0340
 9085W        W22499   0.997   7.155   1.774 -0.0468  0.1539 -0.4851
 9086W        W22500   6.485  10.106  16.310  0.0240  0.1554  0.0938
 9087W        W22501  13.865   8.649   4.852  0.0449  0.0223 -0.3035
 9088W        W22502  10.034  15.166   0.088  0.2046  0.3299 -0.0187
 9089W        W22503  11.654   6.687   0.447 -0.1330 -0.0001  0.1743
 9090W        W22504  17.593  10.055   3.902  0.0130  0.0476  0.3548
 9091W        W22505  13.175   6.539  15.917  0.0607 -0.0491 -0.1437
 9092W        W22506   1.317  15.097   0.466 -0.0594  0.2401 -0.1933
 9093W        W22507   0.213   9.601   6.075 -0.1223  0.1156 -0.3115
 9094W        W22508  11.271  17.930  10.444  0.1904  0.2122  0.0960
 9095W        W22509  17.052   5.251   5.292  0.1507 -0.0131 -0.3585
 9096W        W22510   8.455   2.059   5.695  0.5107 -0.0199 -0.1509
 9097W        W22511  10.994   3.468  15.126  0.0571 -0.0204 -0.2288
 9098W        W22512   4.013   8.846  11.337 -0.2896  0.2254  0.1671
 9099W        W22513   8.655  15.613   4.131 -0.2190 -0.2599 -0.5281
 9100W        W22514  13.169  14.282   5.570  0.0272  0.1127 -0.2904
 9101W        W22515   1.358   1.693   5.367 -0.1415 -0.0315 -0.0617
 9102W        W22516   3.766  12.641   3.376  0.0148  0.2256 -0.2964
 9103W        W22517  10.530  10.895  11.413  0.2772  0.2457 -0.2138
 9104W        W22518   0.597   6.323   0.391 -0.0566  0.5031 -0.0793
 9105W        W22519  16.648   1.196   2.720  0.0610 -0.0797 -0.1068
 9106W        W22520   9.039   8.034   2.061  0.2197  0.0661  0.1723
 9107W        W22521   3.906   1.699  11.412  0.0432  0.2985 -0.2382
 9108W        W22522   8.898  12.880  11.512  0.0635  0.1045  0.4338
 9109W        W22523   8.538  17.515   1.585  0.0804 -0.2600  0.2516
 9110W        W22524   4.989  15.373  13.095 -0.0005 -0.0253  0.1995
 9111W        W22525   0.414  11.365  13.267 -0.0284 -0.2720 -0.1061
 9112W        W22526   8.542   6.289   3.384 -0.1649 -0.0168 -0.1641
 9113W        W22527  13.418   3.741  13.721  0.1741 -0.0868 -0.2042
 9114W        W22528   9.937   5.472  15.699  0.1068 -0.1008  0.2286
 9115W        W22529   4.840   4.978   0.049  0.2020  0.0163 -0.4258
 9116W        W22530  11.110  14.252  15.707  0.2418 -0.0817  0.4063
 9117W        W22531   2.628  12.775  11.060  0.1656 -0.3364  0.1164
 9118W        W22532  15.112   7.974  13.331 -0.2240  0.1682  0.1660
 9119W        W22533  16.778  18.256   3.706 -0.2935  0.3570 -0.0760
 9120W        W22534   4.188   3.706   0.842 -0.2768  0.0760 -0.4720
 9121W        W22535   0.222   3.479   0.365 -0.1840 -0.0795  0.2085
 9122W        W22536  15.530   8.823  10.673  0.2722 -0.3578 -0.2009
 9123W        W22537  15.588   9.394   5.807 -0.0172 -0.0921 -0.1658
 9124W        W22538   9.028   0.924  12.139 -0.2130  0.0549  0.0583
 9125W        W22539  10.299   1.969   3.544 -0.3017 -0.1829 -0.1844
 9126W        W22540   4.363   6.553  12.979  0.3726 -0.1148  0.1444
 9127W        W22541  11.823  12.352  11.847  0.0346  0.0215 -0.0894
 9128W        W22542  11.582  13.548  10.538  0.0951 -0.1656  0.1343
 9129W        W22543  10.104  11.985   3.106 -0.2160 -0.0901 -0.2470
 9130W        W22544  17.337   0.048  13.462  0.1338  0.3047  0.1349
 9131W        W22545   4.323   6.678   5.921 -0.1761 -0.0741  0.1196
 9132W        W22546  17.371  13.921   2.698  0.1058 -0.0010 -0.0744
 9133W        W22547   1.651   4.516   0.595 -0.0417  0.1101 -0.1361
 9134W        W22548   2.596   2.309  16.093  0.1149 -0.2574 -0.1994
 9135W        W22549  10.605  10.301   2.416  0.0824 -0.1823  0.2351
 9136W        W22550   7.159  14.884   1.616  0.0358 -0.1035 -0.1999
 9137W        W22551   5.207  13.080  16.054 -0.0511 -0.1644  0.1722
 9138W        W22552   1.658  16.921   1.004 -0.2517  0.0367  0.1275
 9139W        W22553   0.620   4.158  12.481 -0.1670  0.0834 -0.2715
 9140W        W22554   4.805  12.972  12.113 -0.0724  0.1209 -0.1884
 9141W        W22555   4.181   0.958   0.017 -0.0460  0.3310  0.0037
 9142W        W22556   6.635  14.627  12.495  0.2026  0.3289 -0.1007
 9143W        W22557   3.066  16.602   1.677 -0.0505  0.0815 -0.1064
 9144W        W22558  16.931   9.038  14.585 -0.1916 -0.4084 -0.3170
 9145W        W22559  17.367   7.848  11.534 -0.0747  0.1146 -0.5111
 9146W        W22560   7.492   7.820   2.536 -0.1075 -0.1972  0.1628
 9147W        W22561   4.599   6.560   1.817 -0.1700 -0.1474 -0.2545
 9148W        W22562   7.031  12.081  11.670 -0.1448 -0.2534 -0.0636
 9149W        W22563   1.111  16.183   4.497  0.1909  0.2134 -0.0097
 9150W        W22564   8.725   5.674  16.384 -0.1806  0.0913  0.0373
 9151W        W22565  12.924   7.630  11.722 -0.3111 -0.2109 -0.1901
 9152W        W22566  14.240  16.243   3.343  0.1526  0.0916  0.0049
 9153W        W22567   0.592  10.833   1.133  0.2595  0.0095  0.0396
 9154W        W22568   6.553  10.755  14.238 -0.2277 -0.1143 -0.0353
 9155W        W22569  12.509   6.479   5.254 -0.0370 -0.0054 -0.3328
 9156W        W22570  16.744   0.517  11.592  0.2776  0.3756  0.1606
 9157W        W22571  11.023  14.773  14.537  0.1785  0.5913  0.1051
 9158W        W22572   4.232  14.616  12.421  0.2920  0.1074 -0.2021
 9159W        W22573  17.815   7.879  16.098  0.0296 -0.4895  0.1398
 9160W        W22574   4.659  12.765   4.161  0.1192 -0.0690 -0.0345
 9161W        W22575   7.648   1.394   1.182 -0.1211 -0.1153 -0.1089
 9162W        W22576  14.085  11.323   2.635 -0.4036  0.1221  0.0697
 9163W        W22577   2.903   9.496  12.209  0.1589  0.1845 -0.0596
 9164W        W22578   4.487  10.262  12.942  0.4094  0.1689 -0.2015
 9165W        W22579  13.022  11.196  11.948  0.1525  0.1329 -0.0947
 9166W        W22580   7.687  16.649   5.744  0.0074  0.1394 -0.0253
 9167W        W22581  13.563   5.696   1.498 -0.2445  0.1001 -0.0136
 9168W        W22582  13.873  15.602  11.233 -0.2688  0.0415  0.0173
 9169W        W22583   9.213   5.181  12.962  0.0056 -0.1688  0.3057
 9170W        W22584  10.884  13.714  11.399  0.1785  0.1343 -0.2362
 9171W        W22585   5.665   0.615  16.138 -0.0320  0.0466 -0.1622
 9172W        W22586  17.025  13.039  14.011  0.0843  0.0969 -0.5590
 9173W        W22587  13.640  12.720  14.171  0.2522  0.2302  0.0718
 9174W        W22588  14.255   3.264   3.276  0.1590 -0.2523 -0.1387
 9175W        W22589   1.678  15.031   3.577 -0.3021 -0.1609 -0.1749
 9176W        W22590   5.022   8.347  14.445  0.1802 -0.1534 -0.1740
 9177W        W22591   7.073  12.181   1.246  0.0397  0.0553 -0.1511
 9178W        W22592  13.403   0.789  14.857 -0.0692  0.3655 -0.2317
 9179W        W22593   8.799  14.100  16.229 -0.3723 -0.1983 -0.0044
 9180W        W22594   1.636  18.071  11.577 -0.2334  0.3160  0.1360
 9181W        W22595   7.402  11.818   5.479 -0.0214  0.2213 -0.1554
 9182W        W22596   8.126   6.992  10.144  0.0258 -0.1003  0.1617
 9183W        W22597   0.394  13.788  15.133  0.1529  0.2288  0.0919
 9184W        W22598  14.697  11.352   4.983 -0.2976  0.0449  0.0242
 9185W        W22599  16.105   5.492   4.144  0.0109 -0.0045  0.0013
 9186W        W22600  17.547  10.846   3.357  0.2870  0.0659  0.1225
 9187W        W22601  14.483   1.615  14.334 -0.1922  0.0742  0.1513
 9188W        W22602  14.746   4.108   3.127  0.2955 -0.0123 -0.0347
 9189W        W22603  16.927  14.682  11.262  0.3606 -0.0238  0.2118
 9190W        W22604   8.096   3.375   2.974  0.1208 -0.0329 -0.1025
 9191W        W22605   0.158  15.441   4.001  0.2412  0.3960 -0.2837
 9192W        W22606   3.462   9.062   0.995  0.2241 -0.1892 -0.3022
 9193W        W22607   3.322  15.076   4.737 -0.0639 -0.0513  0.1203
 9194W        W22608   0.879   4.505  12.160 -0.0961  0.0333  0.0456
 9195W        W22609   3.728   1.602  10.514  0.1028  0.3748  0.1683
 9196W        W22610   1.393   4.760  11.271 -0.1048  0.0446  0.2520
 9197W        W22611  10.603   5.138   0.550 -0.3211  0.3447 -0.1566
 9198W        W22612  11.197   2.901   5.169 -0.1621  0.1668  0.0226
 9199W        W22613   7.784   7.952   5.383 -0.1047 -0.0376 -0.0223
 9200W        W22614   6.506   7.107   5.610  0.0487  0.1407  0.1149
 9201W        W22615  16.919   2.387   5.938 -0.0658  0.0888  0.1251
 9202W        W22616   5.546   3.545  12.825 -0.1753  0.1201  0.0027
 9203W        W22617  14.120  16.053  11.022 -0.0017 -0.1334 -0.1180
 9204W        W22618  13.165  15.089  10.075 -0.1685  0.3806  0.0582
 9205W        W22619   6.393   8.796  12.205  0.0969  0.0098  0.0743
 9206W        W22620  15.295  13.996  13.172 -0.4311 -0.0977  0.2015
 9207W        W22621   6.689   0.404  12.435 -0.2106  0.1267  0.2101
 9208W        W22622   2.034  16.987  15.568 -0.0699 -0.0093  0.1671
 9209W        W22623   0.490  11.632   4.982  0.2371 -0.1242 -0.1370
 9210W        W22624  14.976   9.994   1.914  0.2238 -0.1158 -0.0183
 9211W        W22625  10.819   7.021   3.530  0.0491  0.1312  0.2280
 9212W        W22626  11.060   1.290   3.880  0.1850 -0.2675 -0.0518
 9213W        W22627   1.501   3.577   3.098  0.0274  0.1298  0.0109
 9214W        W22628   1.720   7.886  15.654 -0.3426  0.0151 -0.0841
 9215W        W22629  12.493  17.799  12.014 -0.1952  0.1405 -0.4184
 9216W        W22630   1.202   3.737   4.937 -0.0490  0.0959 -0.1972
 9217W        W22631   4.377   1.591  13.580  0.0888  0.0928  0.1611
 9218W        W22632  12.004  15.215  15.947 -0.1703  0.0573 -0.1234
 9219W        W22633   0.498   9.248  14.336 -0.1780 -0.0452 -0.1411
 9220W        W22634  16.903   2.497   0.907 -0.0727 -0.0512 -0.1252
 9221W        W22635   2.538  16.850   3.177 -0.1170  0.0974 -0.0127
 9222W        W22636   5.782   9.863   2.036  0.0590  0.2461 -0.2310
 9223W        W22637   8.273  17.806   5.820 -0.1865  0.0732 -0.0477
 9224W        W22638  17.487  12.932  15.230 -0.0427  0.0846 -0.2914
 9225W        W22639  12.196  12.370   3.690  0.2093  0.1317 -0.0651
 9226W        W22640   0.671  12.233   2.212  0.0441 -0.1236 -0.0934
 9227W        W22641   7.947  15.490  11.292 -0.3090 -0.0021  0.1900
 9228W        W22642   5.893  14.603  15.632  0.0619  0.0588 -0.2001
 9229W        W22643  15.594   8.545   1.397  0.1583  0.2344 -0.0425
 9230W        W22644  15.216  11.615   5.241 -0.2182  0.0217 -0.1375
 9231W        W22645  15.581   0.085  12.299  0.0992  0.1555  0.2507
 9232W        W22646   8.931  17.085  14.427 -0.0232  0.0153  0.2044
 9233W        W22647   4.886   1.892   5.809  0.0064  0.1097  0.0464
 9234W        W22648   6.574  11.696  14.741  0.0182  0.0379 -0.1366
 9235W        W22649  13.548  13.806   2.827  0.1061 -0.0496  0.1884
 9236W        W22650  16.643   9.146   4.648 -0.2748 -0.0399 -0.1461
 9237W        W22651  13.407  16.795  13.563 -0.0215  0.1535  0.1518
 9238W        W22652   0.045   0.429  12.386 -0.2213  0.0579 -0.1795
 9239W        W22653  14.276   4.524  10.302 -0.0998 -0.0544 -0.0048
 9240W        W22654  14.050  14.723   0.733 -0.0977 -0.0383 -0.0173
 9241W        W22655   6.073  17.630  14.185 -0.2268  0.1451 -0.0080
 9242W        W22656  12.112   5.592  14.769 -0.0162  0.2274  0.3075
 9243W        W22657   6.494   6.870   2.582 -0.1565  0.0780 -0.2069
 9244W        W22658   9.429  17.375  12.424  0.0696  0.0555  0.0684
 9245W        W22659  12.136   3.750   4.910 -0.2136  0.1869  0.2225
 9246W        W22660   6.557   7.561  12.093 -0.0008  0.3653 -0.0930
 9247W        W22661   7.192   7.089  13.391 -0.0217 -0.1112 -0.4990
 9248W        W22662  17.560   7.727  13.913 -0.0106 -0.0788  0.1145
 9249W        W22663  15.090   0.303  13.330 -0.0066  0.1251 -0.0791
 9250W        W22664  16.130   9.466   6.707  0.0948  0.1614  0.1220
 9251W        W22665   3.376   3.675  12.166 -0.1631 -0.0302  0.2083
 9252W        W22666  18.183   3.349   2.459  0.1098 -0.2875  0.2398
 9253W        W22667  13.222   3.996   0.729 -0.0488 -0.3198 -0.1724
 9254W        W22668   4.722  13.265   0.856  0.1780 -0.0330  0.0728
 9255W        W22669  10.015   3.833  11.420  0.0616  0.0630  0.0202
 9256W        W22670   8.925   1.001  13.376  0.0452  0.0011 -0.2163
 9257W        W22671   2.866   1.510  15.017 -0.0322  0.3192  0.1544
 9258W        W22672   7.829  16.926   5.267  0.1293 -0.0850 -0.0574
 9259W        W22673   1.297  14.599  13.333  0.1419 -0.0507 -0.1077
 9260W        W22674   0.147   7.260  11.125 -0.0767 -0.0839 -0.1825
 9261W        W22675   2.294  12.468   5.479  0.4020  0.1590 -0.0477
 9262W        W22676  12.397   6.886   9.810 -0.0483  0.1462  0.0688
 9263W        W22677   7.180   0.349  13.215 -0.0066  0.1858  0.0051
 9264W        W22678   1.104  15.872   3.125 -0.2231  0.0313  0.2636
 9265W        W22679   5.962   6.857  13.433 -0.2083  0.1823  0.0638
 9266W        W22680  16.969   5.913   1.196  0.2050 -0.1792 -0.0801
 9267W        W22681   3.924  13.843   0.564  0.1139  0.2250  0.1448
 9268W        W22682  16.681  18.150  11.476  0.2255  0.0490 -0.4476
 9269W        W22683   0.818  12.472   2.775  0.0946 -0.0372 -0.0150
 9270W        W22684  10.553   8.783  11.139 -0.4250  0.0378 -0.4161
 9271W        W22685  16.111   8.539  14.949  0.0304 -0.0001 -0.0313
 9272W        W22686   0.822   2.015  13.018  0.1493  0.0425  0.2010
 9273W        W22687  11.512   9.541   3.486 -0.2707 -0.2822  0.0034
 9274W        W22688  12.457   1.954  14.379  0.1121 -0.3493  0.2006
 9275W        W22689  13.487   8.553  13.599  0.0169 -0.1702 -0.0485
 9276W        W22690  14.577  10.594   3.903 -0.3921  0.1177 -0.1121
 9277W        W22691  12.858  17.477  13.237 -0.2367 -0.1456 -0.1781
 9278W        W22692  10.941   4.512   4.158 -0.0517  0.3635 -0.0690
 9279W        W22693   6.389  17.471  11.048  0.0667 -0.0202 -0.0257
 9280W        W22694   1.675   5.644  13.351  0.0224 -0.2585 -0.3292
 9281W        W22695   6.864  15.973   4.926 -0.2182  0.2019  0.0015
 9282W        W22696  14.048   9.678   3.738  0.1316  0.0965  0.2558
 9283W        W22697  10.040   3.026  15.747 -0.0330  0.0791  0.2481
 9284W        W22698   1.326  16.439   0.925 -0.0354  0.1414 -0.3362
 9285W        W22699   2.132   0.028  14.848  0.1484  0.1479  0.1438
 9286W        W22700  16.713   2.788  12.680 -0.1129  0.2139  0.0808
 9287W        W22701  18.250   0.499  11.911 -0.0800 -0.0545  0.2512
 9288W        W22702  17.716  14.793   2.528 -0.1265  0.0857 -0.0117
 9289W        W22703  14.189  10.710  12.261  0.1158  0.0659  0.0341
 9290W        W22704  17.639   8.776  12.085 -0.1676  0.0761 -0.1354
 9291W        W22705   0.515  14.824  12.137  0.0215  0.0162 -0.2430
 9292W        W22706   2.376   6.871   3.673  0.0990  0.0434  0.0336
 9293W        W22707  11.201  15.471  14.086 -0.1524  0.3742  0.1233
 9294W        W22708   4.119  17.493   6.528  0.2087  0.1712  0.1334
 9295W        W22709  11.820   8.711  12.021  0.2434  0.3913  0.2211
 9296W        W22710  18.002  13.720   3.018  0.2663 -0.1884  0.2575
 9297W        W22711   2.760   8.244  15.542  0.1898  0.1404  0.1211
 9298W        W22712  14.363   5.868  10.632 -0.1564  0.1005  0.0470
 9299W        W22713  16.255   4.043   0.483 -0.0593  0.2505 -0.1296
 9300W        W22714  16.729  10.128  12.250 -0.0476 -0.0522 -0.2060
 9301W        W22715   0.739  10.480  14.973  0.0614 -0.2189 -0.1924
 9302W        W22716  16.041   2.720   3.069 -0.1398  0.1166  0.0078
 9303W        W22717  13.392  11.148   5.523  0.0795  0.2163  0.1749
 9304W        W22718  14.711  11.244  11.737 -0.0888 -0.0840 -0.0315
 9305W        W22719  13.202  14.282  13.454  0.2870 -0.0112 -0.1712
 9306W        W22720  18.017   0.765  11.423  0.1617  0.4401  0.2553
 9307W        W22721  11.011   5.861   4.509  0.0664 -0.0768 -0.0977
 9308W        W22722   6.982  14.613   3.100  0.1351  0.0543  0.1555
 9309W        W22723  11.006   9.807   4.647  0.0218  0.1376  0.1791
 9310W        W22724   6.618  12.384  11.538 -0.1344  0.2383 -0.1029
 9311W        W22725  14.245  12.732   3.341  0.2957  0.2606 -0.1172
 9312W        W22726   4.550   3.199   2.183 -0.1860  0.0914  0.1658
 9313W        W22727  13.460   3.058  16.302 -0.1890  0.1245  0.5071
 9314W        W22728   9.311   0.287   5.597 -0.1414 -0.1390  0.0354
 9315W        W22729   9.629   9.967   5.152 -0.0671 -0.0792 -0.0575
 9316W        W22730  16.889   2.998   2.729  0.0951 -0.1325  0.1099
 9317W        W22731  13.781  11.165   4.362  0.1027  0.1991 -0.3126
 9318W        W22732   2.594  14.995   1.084  0.0590  0.2005 -0.1696
 9319W        W22733   8.200  17.202  15.959 -0.0495 -0.3571 -0.1351
 9320W        W22734   2.919  13.115   0.053 -0.0216  0.0113 -0.0622
 9321W        W22735   1.042   0.303  13.178 -0.1329 -0.3501 -0.1212
 9322W        W22736   1.523  15.765   0.422 -0.0298  0.1725 -0.0819
 9323W        W22737   7.020   2.250  11.158 -0.2149  0.1784 -0.4472
 9324W        W22738  15.001  15.756  14.446 -0.1330 -0.0199  0.0831
 9325W        W22739   9.263  14.521  14.446  0.0990  0.1882  0.0775
 9326W        W22740   9.116  10.210  12.182  0.0186  0.2994  0.2144
 9327W        W22741  15.221  13.185  13.628 -0.0244 -0.1308  0.1686
 9328W        W22742  11.785   7.150  12.820 -0.3197  0.3895 -0.0760
 9329W        W22743  16.787  14.416   0.447  0.0921  0.0503 -0.0496
 9330W        W22744   7.022   7.954   0.389 -0.2054 -0.3578  0.2221
 9331W        W22745  14.970   5.800   4.703  0.1220 -0.1724 -0.0217
 9332W        W22746  14.687   6.623   1.730  0.1957  0.0693 -0.0224
 9333W        W22747   4.010  16.634  11.962 -0.0698 -0.2454  0.1328
 9334W        W22748   4.871  13.722   0.928  0.0874  0.1258  0.0029
 9335W        W22749  16.693   3.166   3.645 -0.2439 -0.2208 -0.1914
 9336W        W22750   7.833  14.528  13.435  0.2150  0.0787  0.0741
 9337W        W22751  12.548  13.502  10.814  0.0346 -0.1167  0.2030
 9338W        W22752   0.898  16.081   3.596 -0.0174  0.3539  0.4085
 9339W        W22753   2.237  11.385   2.668 -0.0187 -0.0309  0.0879
 9340W        W22754  10.805  15.198  13.009  0.1264  0.1452  0.1303
 9341W        W22755   6.481  11.098  13.002  0.0447 -0.1349 -0.0714
 9342W        W22756  14.854   6.700  11.811  0.0159  0.0909 -0.0592
 9343W        W22757  15.113   2.408   4.248  0.3634  0.0227  0.1770
 9344W        W22758  17.831  18.014  14.153  0.1440 -0.0640  0.3347
 9345W        W22759  16.510   6.792  16.469 -0.0864  0.0171 -0.0329
 9346W        W22760  11.064  17.953   4.779  0.2313 -0.0046 -0.2623
 9347W        W22761   1.440  17.122   4.124  0.0324  0.1830  0.3420
 9348W        W22762  15.566  14.043  14.882  0.0596 -0.0098  0.0599
 9349W        W22763  18.234   6.967  15.233 -0.1750 -0.0413  0.1410
 9350W        W22764  16.296  17.328  13.229 -0.0396 -0.0991  0.0703
 9351W        W22765   9.855   2.491  13.029 -0.1504 -0.0085 -0.1382
 9352W        W22766   4.799  11.280   5.722  0.0803 -0.0423  0.0980
 9353W        W22767  16.210  15.348   2.068 -0.0036 -0.1268  0.0246
 9354W        W22768   9.955  11.351   2.397 -0.2340 -0.0973 -0.1774
 9355W        W22769  11.683   3.299  11.873  0.2697  0.1214  0.2075
 9356W        W22770  12.308   6.135  10.440  0.0524  0.1078  0.7318
 9357W        W22771  18.202  12.390   4.898  0.0446 -0.0110 -0.3786
 9358W        W22772   7.820   8.204  11.590  0.0458 -0.0478 -0.0298
 9359W        W22773   6.395   9.599   6.230 -0.1079 -0.2591 -0.0104
 9360W        W22774  11.356  15.635  12.475 -0.0192  0.0300  0.0750
 9361W        W22775  14.898   2.853   0.243 -0.0651 -0.1691  0.3840
 9362W        W22776  13.596   1.903   0.345 -0.2235  0.2652 -0.1590
 9363W        W22777   4.931   2.414   5.811 -0.0309 -0.0155  0.0121
 9364W        W22778  16.849   4.057  14.263  0.0582 -0.0949  0.0262
 9365W        W22779   6.511   5.882   0.007 -0.0290  0.1817  0.1004
 9366W        W22780  17.515   5.947   5.820 -0.0185  0.2498  0.1182
 9367W        W22781  15.980  15.889  12.807  0.2368 -0.0258 -0.0763
 9368W        W22782   5.940  12.660  14.676  0.0429 -0.0761  0.0051
 9369W        W22783   0.832   3.390   5.072  0.2141  0.1488  0.1591
 9370W        W22784   6.066   3.141  10.633 -0.1240 -0.0479 -0.0641
 9371W        W22785  15.210   8.995   3.696 -0.0909 -0.1066  0.1271
 9372W        W22786  14.929  14.329   0.103 -0.0897 -0.0559 -0.2561
 9373W        W22787   6.541   9.486   2.332 -0.1940 -0.0754  0.1801
 9374W        W22788   3.487   8.425  15.073 -0.5645 -0.0040 -0.0974
 9375W        W22789   1.693  13.178   1.974  0.0346 -0.2346  0.4796
 9376W        W22790   8.768  14.449   0.130 -0.3076  0.2928  0.1932
 9377W        W22791   2.862  17.432  13.476 -0.0885  0.0285 -0.1466
 9378W        W22792   4.760  12.272   4.189 -0.0834  0.1910  0.0385
 9379W        W22793   1.070   9.578  12.072 -0.0781 -0.3866 -0.0851
 9380W        W22794   8.384  15.199  15.084  0.1990  0.2268 -0.0161
 9381W        W22795  12.852  11.247   0.865 -0.1138 -0.0809 -0.0944
 9382W        W22796   6.037   1.019  13.077 -0.0802 -0.0218 -0.1518
 9383W        W22797   6.835  13.768  14.431  0.0844 -0.0575 -0.0368
 9384W        W22798   6.460   4.840  14.940  0.0037  0.1604 -0.1550
 9385W        W22799  13.012   6.703   0.958 -0.0004  0.0266  0.0683
 9386W        W22800   8.611   6.503   0.962  0.0795 -0.2511  0.1111
 9387W        W22801  13.311   6.901   4.432  0.1322 -0.2322  0.1185
 9388W        W22802  17.459   9.665   4.212  0.1780 -0.1113  0.0834
 9389W        W22803   5.349   9.337  11.340  0.1384  0.1430 -0.0403
 9390W        W22804   4.233  15.284   2.412 -0.0035  0.1021  0.1209
 9391W        W22805  10.288  13.722   1.339  0.3587 -0.2316 -0.0570
 9392W        W22806   3.198  17.483   3.289  0.0095  0.0960 -0.0190
 9393W        W22807   9.607  14.224   0.104 -0.2248  0.2788  0.4287
 9394W        W22808   3.851  14.998   2.279  0.2514  0.0789  0.0467
 9395W        W22809  10.678   3.557   2.609 -0.0953  0.0435  0.3372
 9396W        W22810  16.019   6.289   2.173 -0.2866  0.1427 -0.0357
 9397W        W22811  17.773   3.311  12.851 -0.1181 -0.3914 -0.0994
 9398W        W22812  11.582   4.644  10.579  0.1207 -0.1252  0.1147
 9399W        W22813   7.644   9.105   1.604 -0.2334  0.1760  0.1837
 9400W        W22814   5.900   3.555  14.074 -0.1674 -0.3398 -0.1135
 9401W        W22815  12.187   3.605   3.645  0.3813 -0.1281  0.1685
 9402W        W22816   4.685  10.878   4.319 -0.1900 -0.2737 -0.0897
 9403W        W22817   8.139   7.574   3.855  0.1102 -0.1827  0.1299
 9404W        W22818  18.079   6.320   3.895 -0.3387 -0.0460 -0.0252
 9405W        W22819   5.183   6.952   3.707  0.1610 -0.1111 -0.3420
 9406W        W22820   4.508   8.151   2.651  0.0698  0.3007  0.0162
 9407W        W22821  17.564   5.211   3.743  0.1823 -0.1488  0.3864
 9408W        W22822   2.910   3.377  13.576  0.1051  0.2059  0.1529
 9409W        W22823   9.844  10.978   5.761 -0.0377 -0.2186  0.1169
 9410W        W22824   1.157   6.359   4.091 -0.1819 -0.1790  0.1377
 9411W        W22825  11.810   1.148  12.605 -0.1367 -0.1442 -0.1533
 9412W        W22826  10.081   4.382   4.425  0.2696 -0.0956 -0.1053
 9413W        W22827   7.889   4.157  11.912  0.0209  0.2259  0.0116
 9414W        W22828   7.423  16.566   2.047 -0.2604  0.1828  0.3206
 9415W        W22829  12.905  16.671  12.699 -0.1672  0.0605 -0.0386
 9416W        W22830   6.311   6.168  11.469 -0.0051  0.0491 -0.0056
 9417W        W22831  13.712  13.226  13.088  0.1617 -0.0846  0.3631
 9418W        W22832   1.318  17.331   2.734 -0.0786  0.0285 -0.1970
 9419W        W22833   6.254  17.242  15.844 -0.2139  0.2309  0.1044
 9420W        W22834   9.867  14.652  15.429 -0.1634  0.0103  0.1972
 9421W        W22835   4.562   7.738  14.978  0.0427 -0.0870 -0.1900
 9422W        W22836  15.628   5.439  15.369 -0.1252 -0.4344 -0.0917
 9423W        W22837  10.392  14.296   3.208  0.0773  0.0847 -0.2952
 9424W        W22838   3.705  11.828  16.236 -0.6114 -0.1218 -0.0909
 9425W        W22839  13.503   6.760  13.707 -0.0850  0.2239 -0.3980
 9426W        W22840   8.060  16.825  15.021 -0.2227 -0.1183 -0.2618
 9427W        W22841  16.324   0.000   6.288 -0.0007 -0.0540  0.1332
 9428W        W22842   9.159  12.278  14.100  0.0606  0.0733 -0.0659
 9429W        W22843   3.157  12.116   4.838 -0.1452 -0.1814  0.0218
 9430W        W22844   5.687  13.823   3.383  0.1683 -0.1060 -0.0103
 9431W        W22845  16.745   8.123  14.024 -0.0951 -0.0834  0.1816
 9432W        W22846   5.283   6.450   4.910  0.1169  0.2064 -0.0458
 9433W        W22847  15.964   9.286  13.816  0.0540 -0.1114  0.2760
 9434W        W22848  13.406   0.890  12.472 -0.0470  0.1824 -0.0762
 9435W        W22849  14.672   3.766   4.441  0.5366  0.5103 -0.0796
 9436W        W22850  15.170   6.888  12.659 -0.1205 -0.0952 -0.0958
 9437W        W22851  10.378   9.035   4.027  0.1770 -0.0757  0.1476
 9438W        W22852   3.096   6.885  12.648 -0.0052 -0.0136  0.4466
 9439W        W22853   6.425   7.525   3.574  0.0869 -0.2802  0.2888
 9440W        W22854   1.939   0.584  14.664 -0.2117  0.0218 -0.1905
 9441W        W22855  13.977   6.880   1.091  0.2652  0.1991  0.1273
 9442W        W22856   6.328  17.029   5.569  0.1507  0.5233  0.1496
 9443W        W22857   9.922   2.002  15.405 -0.0149  0.1736 -0.1262
 9444W        W22858   1.482  16.665   5.625  0.1207  0.0342  0.0980
 9445W        W22859  13.570   5.671  11.050 -0.2969  0.2692  0.0609
 9446W        W22860  12.102  11.543  15.100 -0.1828  0.1546 -0.0970
 9447W        W22861   6.943  13.616  15.854 -0.0390 -0.0562 -0.3300
 9448W        W22862   0.341  13.496  14.680 -0.0938  0.0404 -0.1922
 9449W        W22863  13.565  11.006   1.381  0.0941 -0.1464  0.1577
 9450W        W22864  16.224   6.955  14.743 -0.2573 -0.2161  0.0440
 9451W        W22865   5.253   9.277  14.143 -0.1135 -0.0699  0.2179
 9452W        W22866   1.409   4.761   4.071 -0.1555 -0.0363  0.1904
 9453W        W22867   4.934  15.252   1.669  0.1794  0.1127 -0.0701
 9454W        W22868  10.692  10.288  13.338 -0.1647  0.2484  0.3668
 9455W        W22869  17.942  16.099   5.415  0.1066  0.0964 -0.0464
 9456W        W22870  11.202   2.171   0.726 -0.1566 -0.0895  0.0515
 9457W        W22871   3.105   8.875   5.025 -0.4628 -0.1781 -0.1472
 9458W        W22872   8.763  14.287  15.274 -0.0547 -0.0251 -0.0725
 9459W        W22873  16.408   3.434  14.951 -0.0688  0.0796  0.0581
 9460W        W22874   0.951  15.637   2.602 -0.3255 -0.0852 -0.0176
 9461W        W22875   0.001   9.687   0.606 -0.0278 -0.4063  0.0180
 9462W        W22876   8.089   0.154   0.557 -0.0528  0.0539 -0.1109
 9463W        W22877   9.100   1.417   0.853 -0.0031 -0.2076  0.0306
 9464W        W22878  14.234  10.062   5.018 -0.1513  0.0696  0.1422
 9465W        W22879   5.578  17.112   3.450  0.0028 -0.1717 -0.0593
 9466W        W22880   8.683   4.565   3.115 -0.2778  0.0160  0.1346
 9467W        W22881   7.777   6.063  11.056  0.0407 -0.0648 -0.2843
 9468W        W22882   8.180   0.447   1.031 -0.0025  0.0888  0.0129
 9469W        W22883   1.709   7.613   5.946 -0.2438  0.0970 -0.0841
 9470W        W22884   1.879   3.174   4.581 -0.1557  0.1317  0.2686
 9471W        W22885   3.434  16.620  11.936 -0.4078  0.2226 -0.2040
 9472W        W22886   7.009  13.442   1.171 -0.3366 -0.1633 -0.3906
 9473W        W22887   3.420  10.612  14.761  0.1258  0.2435 -0.0328
 9474W        W22888   0.488  12.900   3.986 -0.1707  0.0741  0.1865
 9475W        W22889  11.938  13.683   4.551 -0.0241 -0.3412 -0.0793
 9476W        W22890   8.884   1.811   1.064 -0.2133 -0.0747  0.2678
 9477W        W22891   4.949   7.327  13.365 -0.0741 -0.3303 -0.0830
 9478W        W22892  14.634   1.234   3.666 -0.1418  0.1434  0.1264
 9479W        W22893   9.338  16.796   0.128 -0.2913 -0.2273 -0.0514
 9480W        W22894  12.314  10.328   1.873  0.0569 -0.1996 -0.0203
 9481W        W22895   6.908  16.920   4.057 -0.2380 -0.1198  0.0834
 9482W        W22896   1.047  17.387  10.345  0.2156 -0.1825  0.1643
 9483W        W22897  10.094  17.242   0.079  0.0128  0.0462  0.3230
 9484W        W22898  16.555  11.637   2.871 -0.2522 -0.3924  0.0825
 9485W        W22899  18.241   9.426   3.448  0.0661  0.0736  0.1341
 9486W        W22900   6.063   7.224  10.397  0.0997 -0.1709  0.2476
 9487W        W22901  14.358   5.405   5.400 -0.1817 -0.0304 -0.0913
 9488W        W22902   0.929  15.197   4.536 -0.1150  0.0947 -0.2254
 9489W        W22903   3.231  15.419  13.945 -0.1277 -0.1970 -0.4866
 9490W        W22904  17.605   6.676   5.114  0.2063 -0.0683  0.4952
 9491W        W22905   5.292   2.389   2.925 -0.2994 -0.3204  0.0507
 9492W        W22906  11.218   7.816   5.063  0.1762 -0.1269  0.2645
 9493W        W22907   2.913   5.767  13.886 -0.3115 -0.0135  0.2040
 9494W        W22908   5.808   8.796  14.050  0.0104  0.2618  0.2231
 9495W        W22909   8.886   1.751  12.839 -0.0493  0.4284 -0.1558
 9496W        W22910  15.885   7.526   6.387 -0.1288  0.0476  0.1450
 9497W        W22911   3.033  15.041  12.921  0.0268 -0.0481  0.0836
 9498W        W22912   4.905  14.756  12.149 -0.0347 -0.1524 -0.1176
 9499W        W22913  16.592   9.986  14.876 -0.0401 -0.2825  0.0747
 9500W        W22914  17.793  15.167   4.413 -0.0309  0.1500 -0.3400
 9501W        W22915   1.317   4.670  12.397 -0.0611 -0.2309 -0.0575
 9502W        W22916   6.517  11.211  13.498 -0.0751  0.1072 -0.0070
 9503W        W22917  16.649  16.620   1.616 -0.0309  0.0967  0.0090
 9504W        W22918  11.791  18.093  11.610  0.1078  0.0389  0.4507
 9505W        W22919   4.576   8.948   3.014  0.1538 -0.0559 -0.0669
 9506W        W22920   2.731   5.132   4.679 -0.0733 -0.1364 -0.0293
 9507W        W22921   9.507   1.667  13.083  0.2421 -0.2277 -0.3435
 9508W        W22922   7.549  17.366   1.148  0.1190  0.2989  0.0867
 9509W        W22923  17.243   3.302   4.457  0.2276  0.1382  0.3035
 9510W        W22924   0.759   7.462  11.083  0.0988 -0.0684 -0.0945
 9511W        W22925  13.612  12.961  12.677  0.0704 -0.0482  0.1777
 9512W        W22926   7.087  15.159  10.505  0.2027  0.0023 -0.3063
 9513W        W22927   0.558   1.759   5.162 -0.1629 -0.0757 -0.1486
 9514W        W22928  18.210  16.502  11.810  0.2549  0.0058  0.3059
 9515W        W22929  14.208  14.760  11.896  0.0428 -0.1414  0.1769
 9516W        W22930   5.556   0.131   1.361 -0.1075 -0.1560 -0.2038
 9517W        W22931  12.420   2.040   1.578  0.0510 -0.0616 -0.1400
 9518W        W22932  16.632   6.356  16.149  0.2492 -0.2117 -0.3851
 9519W        W22933   6.693   8.250  14.423 -0.1837  0.1659  0.0379
 9520W        W22934   5.993   1.706  15.281  0.0195  0.1216  0.1681
 9521W        W22935  17.273   3.089  15.675 -0.1792  0.0890  0.0221
 9522W        W22936   2.844   8.748  12.693  0.0646  0.1940 -0.0175
 9523W        W22937  16.823  11.414  10.494  0.0659  0.1274  0.1610
 9524W        W22938   3.177  13.715   0.887  0.1331 -0.1776 -0.0705
 9525W        W22939  11.059  10.021  12.950 -0.0903 -0.3992  0.2862
 9526W        W22940  15.721  11.813   5.204  0.2928 -0.1208  0.1774
 9527W        W22941   4.794   4.136  11.755  0.4338  0.0897  0.0934
 9528W        W22942   4.966   0.589   3.325 -0.1119  0.1095  0.0109
 9529W        W22943   7.318   5.484  14.696 -0.1084  0.1812  0.1881
 9530W        W22944  17.250   9.714  12.895 -0.0748 -0.1440 -0.1397
 9531W        W22945   6.909  13.045   4.452 -0.2419  0.1691  0.0055
 9532W        W22946  14.170   9.071   0.377 -0.2237 -0.3158  0.0958
 9533W        W22947  15.498   8.295   1.837  0.0723  0.0540 -0.0853
 9534W        W22948  13.126  15.881  10.481  0.2074  0.1803  0.1546
 9535W        W22949   7.348   7.860  12.715  0.1234  0.1133  0.1020
 9536W        W22950  13.827   7.207  13.752  0.0790 -0.1440  0.2469
 9537W        W22951  12.613   6.480  14.063 -0.2459  0.2565 -0.2674
 9538W        W22952  12.288  12.918   5.783  0.0825 -0.1650  0.0010
 9539W        W22953   7.761  17.852   5.791 -0.0759 -0.0057 -0.1009
 9540W        W22954  16.815  17.082  11.529 -0.1188  0.0760  0.0991
 9541W        W22955   9.515  16.967  13.700  0.0554  0.1855 -0.0636
 9542W        W22956  15.410  13.570  11.434 -0.0867  0.2014 -0.2956
 9543W        W22957  15.374   4.185  15.580  0.0995 -0.1548  0.1729
 9544W        W22958   7.809  12.590   3.433  0.0258 -0.0173  0.0872
 9545W        W22959  17.567   8.905   2.981 -0.2140  0.0949 -0.0628
 9546W        W22960  14.813  15.474   6.527 -0.1458  0.1698 -0.1345
 9547W        W22961  12.785  10.299  14.827 -0.1023  0.0287 -0.2588
 9548W        W22962   7.764   3.886   3.579  0.1799 -0.0698 -0.0955
 9549W        W22963   6.671   4.065  14.009  0.2031 -0.2807 -0.0440
 9550W        W22964  11.342  11.579   0.772 -0.1252  0.0683  0.0994
 9551W        W22965   5.503  14.860   3.993 -0.1342  0.0790  0.0825
 9552W        W22966  11.239   2.487   3.371 -0.0404  0.0245  0.0527
 9553W        W22967   8.550   6.488  15.504 -0.0800 -0.0889 -0.0148
 9554W        W22968  12.297   9.675  14.137  0.1782  0.1221  0.0946
 9555W        W22969   5.489   9.459   6.358 -0.1266  0.1404 -0.2788
 9556W        W22970  14.287  13.027  11.545 -0.1033  0.1588 -0.0389
 9557W        W22971   3.619   6.769  13.841 -0.1531  0.2176 -0.1161
 9558W        W22972   7.607  12.125   5.865  0.1117  0.0610  0.2146
 9559W        W22973   4.212  14.755   4.799 -0.1098  0.5215  0.0842
 9560W        W22974  17.542   2.279  12.522 -0.1835  0.2409  0.0755
 9561W        W22975   7.852  15.334  14.569  0.0757  0.2150 -0.1191
 9562W        W22976   6.550  10.364  15.030 -0.1947 -0.2719 -0.0239
 9563W        W22977  16.318  18.047   4.513 -0.2012 -0.0622 -0.0972
 9564W        W22978  15.401  10.804   5.302  0.3547  0.1781 -0.0122
 9565W        W22979  12.131   8.166   2.748 -0.2047  0.0683 -0.3226
 9566W        W22980   3.704   6.270   1.057  0.0763  0.0719  0.0707
 9567W        W22981  12.597   8.160   2.445 -0.0245 -0.0109 -0.0352
 9568W        W22982   8.654   5.137   1.496 -0.0291 -0.0372 -0.0128
 9569W        W22983   9.624   6.045   4.843  0.3047 -0.0841 -0.0628
 9570W        W22984  12.399  15.772   1.962  0.0788  0.2151 -0.2023
 9571W        W22985  13.950  14.715  14.949  0.3421  0.0666 -0.1208
 9572W        W22986   6.685   2.277   5.813  0.0632 -0.0558  0.2660
 9573W        W22987   8.793  15.573   3.643 -0.2132  0.3574  0.1736
 9574W        W22988  12.906  14.128   0.412 -0.1732 -0.2296  0.0413
 9575W        W22989  17.088  16.345  16.483 -0.0555 -0.0918  0.0544
 9576W        W22990   2.436   2.356   1.680 -0.3333 -0.0449 -0.0094
 9577W        W22991   3.311   2.192  14.188 -0.0029 -0.0038  0.0357
 9578W        W22992  14.277   6.700  10.576  0.0788 -0.0524  0.0265
 9579W        W22993   1.469   5.502   1.963 -0.2529  0.0720 -0.0302
 9580W        W22994  17.844  10.911   1.663 -0.1530  0.0807 -0.1230
 9581W        W22995  11.927   9.428  13.143  0.1440 -0.0430 -0.1338
 9582W        W22996   2.073   2.411  13.492 -0.0245 -0.0184 -0.1341
 9583W        W22997   1.362  13.300   3.156  0.2707  0.0096  0.2910
 9584W        W22998  14.623   2.583   0.756  0.1732 -0.0415  0.0964
 9585W        W22999   5.613   4.532  16.304  0.0258  0.1505 -0.0932
 9586W        W23000   4.222   5.487   1.224  0.0999  0.1263  0.0786
 9587W        W23001  15.270   6.541   3.283 -0.1125 -0.2872  0.0301
 9588W        W23002  11.568   4.588  12.037  0.1771 -0.1084  0.1846
 9589W        W23003   4.458   7.167  13.722 -0.0675 -0.1919  0.2765
 9590W        W23004  12.884  12.174   3.039 -0.0808  0.1863 -0.1813
 9591W        W23005   3.997  13.307   4.619 -0.1086 -0.0224 -0.0092
 9592W        W23006  16.970  16.725  12.707 -0.2142 -0.1066  0.0570
 9593W        W23007  13.739  12.365   0.808 -0.0988  0.2317  0.0706
 9594W        W23008   4.479   2.689  16.123  0.3676  0.1510  0.1356
 9595W        W23009   3.888  15.077   2.852 -0.0253 -0.0879  0.0476
 9596W        W23010   5.306  12.183  12.989 -0.1033  0.0957 -0.3190
 9597W        W23011   8.082   6.973   3.025  0.1852 -0.3332 -0.0998
 9598W        W23012  12.657  11.057  12.703  0.2142  0.1405 -0.1095
 9599W        W23013   5.250  17.326   2.075  0.0513  0.0670 -0.0407
 9600W        W23014  15.874  16.269  13.406  0.3133 -0.1629 -0.0262
 9601W        W23015   6.603  11.345   3.640 -0.1656 -0.0074 -0.1786
 9602W        W23016   0.504   0.462  13.233  0.1617  0.1537  0.0022
 9603W        W23017  16.830  14.676  12.801  0.0944  0.2023  0.3242
 9604W        W23018   1.217   1.763  12.707 -0.0469 -0.1214 -0.0034
 9605W        W23019  14.349  14.545  11.452  0.0738  0.0912 -0.0427
 9606W        W23020   3.045   4.653  12.833  0.2779 -0.3675  0.0642
 9607W        W23021  14.813  12.493  11.981 -0.0368 -0.3264 -0.1153
 9608W        W23022   2.571  12.027  13.505 -0.2679 -0.0546 -0.0496
 9609W        W23023   7.990   7.576   5.641 -0.2104 -0.1889 -0.0615
 9610W        W23024  15.177  11.618  11.591  0.1830 -0.0675 -0.0015
 9611W        W23025  17.470   9.586  10.725  0.1858  0.3287  0.1859
 9612W        W23026  10.606  15.643  10.951 -0.0550  0.0351  0.1506
 9613W        W23027   7.802  16.392   4.979  0.1320  0.1422 -0.2687
 9614W        W23028   2.821   5.702  13.318  0.2676 -0.0129 -0.3041
 9615W        W23029  12.622  14.360  16.049  0.4094  0.0380  0.1007
 9616W        W23030  12.554   5.940   3.203  0.0101  0.1576 -0.1202
 9617W        W23031   2.673   7.582   2.458 -0.1464 -0.0398 -0.1822
 9618W        W23032  16.275   4.965   5.755  0.0982 -0.0864  0.0650
 9619W        W23033  15.045  15.276  16.366  0.0300  0.1246  0.1631
 9620W        W23034  11.350   6.641  14.568 -0.1046  0.3221 -0.0564
 9621W        W23035   0.063   0.979   0.004 -0.0533 -0.3616  0.0270
 9622W        W23036  11.385   0.948   2.988  0.2209  0.0294  0.1714
 9623W        W23037  14.612  16.045  14.199 -0.1649  0.1284 -0.1492
 9624W        W23038   6.749   7.737   3.152 -0.0017  0.1351 -0.0100
 9625W        W23039   3.321   0.762  14.014  0.1666 -0.0580  0.1812
 9626W        W23040   1.199  15.303  14.360 -0.2248  0.0838 -0.0273
 9627W        W23041   7.871  15.059  15.140 -0.2779  0.0471 -0.3006
 9628W        W23042  16.978  11.444   5.832  0.1601 -0.2780 -0.2952
 9629W        W23043  14.496   1.168   2.777  0.1339  0.0180 -0.0084
 9630W        W23044   5.538   3.010  15.441 -0.0602  0.1329 -0.0649
 9631W        W23045  14.235   2.610   1.596  0.2689  0.1368 -0.3346
 9632W        W23046  15.788  16.324  14.764 -0.1340  0.1980 -0.1124
 9633W        W23047   0.583  15.658  11.446 -0.0509 -0.2731  0.3113
 9634W        W23048  12.678   7.700   1.928 -0.1742 -0.1699 -0.4168
 9635W        W23049   7.560  17.568   4.369 -0.0687 -0.0055 -0.0668
 9636W        W23050   9.922  17.545   2.545 -0.3228  0.1476  0.0010
 9637W        W23051   1.552   8.423  11.573  0.1317 -0.2524 -0.1774
 9638W        W23052  14.229  16.146  12.094 -0.2366 -0.0177 -0.0076
 9639W        W23053   4.558   8.139   1.345 -0.3907 -0.1765  0.1636
 9640W        W23054   6.188  11.615   3.631 -0.1498 -0.1563 -0.0498
 9641W        W23055   9.473  13.064   4.536  0.2707 -0.2692 -0.1685
 9642W        W23056   4.345  12.015   2.116  0.1392 -0.2452  0.1145
 9643W        W23057  11.584  16.905  13.898  0.0001 -0.2068  0.0097
 9644W        W23058   1.615   2.051   3.439  0.2932 -0.0530 -0.0371
 9645W        W23059   1.364   9.226   4.539 -0.2607 -0.0382  0.0219
 9646W        W23060  11.091  12.878  10.801 -0.1283 -0.1815 -0.1671
 9647W        W23061   0.467   8.195  11.481 -0.0646  0.3107 -0.2310
 9648W        W23062  10.736   4.091  16.261  0.2899 -0.2004  0.1609
 9649W        W23063  13.653   6.339   3.323  0.0012 -0.0091  0.0866
 9650W        W23064   1.955  14.497   2.838 -0.1573  0.0730  0.1977
 9651W        W23065  10.354   6.769   4.805 -0.1194 -0.1250 -0.1705
 9652W        W23066   6.312  11.699   5.618  0.1615 -0.0210  0.0145
 9653W        W23067   4.460  15.843  10.545  0.1567  0.0252 -0.0144
 9654W        W23068  14.431  11.209   5.740  0.2179  0.1127  0.0244
 9655W        W23069  16.634  15.278   1.518  0.0595 -0.0637 -0.2959
 9656W        W23070  15.127   3.652   2.623 -0.1383  0.1537  0.1183
 9657W        W23071  12.932   6.730   2.227  0.2464  0.1216  0.2521
 9658W        W23072   4.808   4.552   4.739  0.2009  0.0330 -0.2444
 9659W        W23073   1.026   0.914   5.264  0.1165 -0.0653  0.2795
 9660W        W23074  12.983  18.047   3.391 -0.1769  0.0750 -0.0337
 9661W        W23075   9.391  11.761  13.461  0.0598  0.1243 -0.0416
 9662W        W23076  10.000   1.870  14.092  0.1136 -0.1303 -0.1576
 9663W        W23077   2.946  12.043   3.802 -0.2959 -0.2211 -0.0837
 9664W        W23078  10.985   5.044   2.354  0.2653 -0.3898  0.1809
 9665W        W23079  17.619  12.151  15.953 -0.0303 -0.1974 -0.1830
 9666W        W23080  10.194   4.272   0.945  0.0312 -0.2181 -0.2009
 9667W        W23081   2.989  11.656  12.601  0.1415  0.1378 -0.1078
 9668W        W23082   1.798   4.205  12.932  0.1459  0.2041 -0.1371
 9669W        W23083   9.089  17.734   1.521  0.1477 -0.0275 -0.3632
 9670W        W23084   3.869  15.425  14.803 -0.0713 -0.2323 -0.1228
 9671W        W23085   6.369   6.739  10.128  0.3455 -0.0947 -0.1789
 9672W        W23086   5.618  16.152  13.141 -0.1633 -0.0836 -0.2351
 9673W        W23087  15.438   1.834   5.785 -0.1279 -0.0573  0.2432
 9674W        W23088  13.841   8.050  15.126  0.0155  0.0807 -0.2785
 9675W        W23089   0.839   2.622  11.741 -0.2224 -0.0599  0.0771
 9676W        W23090  15.644   8.473  16.389 -0.0594 -0.1409 -0.0455
 9677W        W23091   9.980  10.922  15.640  0.2571 -0.2198  0.3332
 9678W        W23092   5.265  15.185  11.620 -0.1590 -0.0509 -0.2659
 9679W        W23093  11.438  11.913   1.685 -0.1227 -0.0406  0.1078
 9680W        W23094   0.207   8.178   0.329 -0.4653  0.0090  0.0842
 9681W        W23095   4.913  16.222  14.460  0.3310 -0.1863 -0.0405
 9682W        W23096   7.931   0.930  15.273  0.3382  0.0312 -0.1147
 9683W        W23097  13.088   3.077  14.840 -0.1159  0.0458 -0.2003
 9684W        W23098   7.147  14.113  15.763 -0.0697  0.1068  0.2963
 9685W        W23099   6.598   9.775   2.756  0.0685  0.0785  0.2519
 9686W        W23100  15.342   3.790  14.429  0.2791 -0.2714 -0.1044
 9687W        W23101  17.387   2.807   3.378  0.1098  0.0379 -0.3055
 9688W        W23102  18.035  15.757   4.786  0.1921  0.1111  0.2618
 9689W        W23103  10.931   5.857   3.718  0.0042 -0.0881 -0.1436
 9690W        W23104   8.331  14.254  16.361 -0.1619  0.0016  0.0681
 9691W        W23105   2.316  16.368   3.915 -0.0955 -0.0530  0.2947
 9692W        W23106   3.121   8.000  12.119 -0.2057 -0.1418 -0.3187
 9693W        W23107  10.455   6.017  10.569  0.1772 -0.0810  0.0269
 9694W        W23108  17.329  11.174   2.496 -0.1726  0.1617 -0.0062
 9695W        W23109   1.586   5.623  15.892  0.1624 -0.2906 -0.1393
 9696W        W23110   0.307  12.075  15.797  0.0516 -0.4267 -0.0183
 9697W        W23111   4.521  13.244   4.592  0.2457 -0.2133  0.3659
 9698W        W23112  14.054   9.040   2.972 -0.2044  0.3321  0.3782
 9699W        W23113  14.869  15.259   5.439 -0.1671  0.1204 -0.1635
 9700W        W23114  14.542   6.036   5.114  0.0485  0.0483 -0.2590
 9701W        W23115   6.005  16.524  11.971  0.0711 -0.1198  0.2512
 9702W        W23116  15.421  17.995  13.235  0.1471 -0.0564 -0.1248
 9703W        W23117   2.875  11.497   5.896 -0.0356 -0.0407 -0.0797
 9704W        W23118   3.708   4.916   3.817 -0.0390 -0.3591 -0.1681
 9705W        W23119  13.191   9.417  15.986 -0.1722  0.0362 -0.0498
 9706W        W23120  14.697   3.322   4.193 -0.1761 -0.0850 -0.2836
 9707W        W23121  10.501  17.270   5.215 -0.3807 -0.0283 -0.4765
 9708W        W23122  10.646  15.972   0.037  0.2630 -0.1854  0.1392
 9709W        W23123   6.246   7.798  13.877 -0.3224  0.2051 -0.1380
 9710W        W23124   2.528   9.448   3.222 -0.1824  0.1238 -0.1141
 9711W        W23125   0.071   9.905  13.144 -0.2987 -0.0298 -0.0195
 9712W        W23126   0.294  17.262  12.932 -0.0391  0.0276  0.1176
 9713W        W23127  14.539   3.809   5.106  0.1990  0.2777 -0.0010
 9714W        W23128   2.158   2.074  14.864 -0.1498 -0.0349 -0.1143
 9715W        W23129  13.004   8.481  11.948 -0.2486 -0.1023  0.0617
 9716W        W23130  15.614   7.178  12.808  0.1513 -0.0585  0.4308
 9717W        W23131  11.302   4.590  14.549  0.0364  0.2278  0.0116
 9718W        W23132   1.162   8.836   2.595 -0.1066 -0.2471 -0.1715
 9719W        W23133   9.182   4.852  14.751  0.4550  0.0310  0.1152
 9720W        W23134   8.996  16.810   1.917  0.2974 -0.2138  0.0504
 9721W        W23135   2.433  17.004  11.009 -0.3858 -0.0350  0.0492
 9722W        W23136   6.400   8.523   1.115  0.1281  0.1066 -0.0640
 9723W        W23137  10.632  16.543   4.800 -0.2029  0.1951 -0.2173
 9724W        W23138   3.196   3.302   5.398 -0.1260  0.0015  0.2003
 9725W        W23139   4.338  10.782  14.150  0.0190  0.1664 -0.2551
 9726W        W23140  16.193  14.676  16.169  0.1338  0.1421  0.0588
 9727W        W23141  16.892   2.883   1.883 -0.0551 -0.2676 -0.2021
 9728W        W23142  11.013   3.336  15.979  0.0027  0.0862  0.4260
 9729W        W23143   9.820   5.526  10.014  0.2240 -0.0970 -0.0229
 9730W        W23144   3.696  15.456   1.123  0.0010  0.0271 -0.2649
 9731W        W23145   1.231   0.910   6.628 -0.0373  0.2546 -0.0636
 9732W        W23146  11.115  14.826   4.984  0.0189 -0.0420 -0.0963
 9733W        W23147   8.804  17.920   0.639 -0.0989 -0.0444 -0.1060
 9734W        W23148  11.016   3.102   3.364  0.3832 -0.2806  0.4625
 9735W        W23149   8.651   8.364   6.303 -0.2184  0.0761 -0.1971
 9736W        W23150  12.383  12.377  10.841  0.0862  0.0576  0.1861
 9737W        W23151   7.685  15.715   1.877  0.3579 -0.2894  0.1627
 9738W        W23152  10.551   5.691  16.078 -0.1940 -0.3313  0.3622
 9739W        W23153  11.974   5.658  10.004 -0.1371 -0.0872 -0.1096
 9740W        W23154  18.174  13.527   3.474  0.3759 -0.2650  0.0794
 9741W        W23155   4.585   3.579   1.681  0.0164 -0.0279 -0.0741
 9742W        W23156   0.832   2.811  13.059  0.3001  0.2134 -0.0169
 9743W        W23157  11.990  17.029  15.366  0.0480 -0.3714  0.2436
 9744W        W23158   7.511   1.822   5.534 -0.0721 -0.2037 -0.0484
 9745W        W23159  16.373   6.577  12.857  0.1037  0.1078 -0.0494
 9746W        W23160  17.291  10.116   4.412  0.2858  0.3760 -0.0851
 9747W        W23161   7.673  12.660   0.140  0.0365 -0.0414 -0.0874
 9748W        W23162  16.345  17.540   1.405  0.2541 -0.3918 -0.1305
 9749W        W23163   9.539   5.031  10.788  0.1721 -0.1443 -0.2014
 9750W        W23164  10.474  17.364   3.588  0.0598 -0.1184  0.2799
 9751W        W23165   3.539  14.548  14.067  0.2589  0.2774 -0.3542
 9752W        W23166  17.518   2.265  14.693 -0.0365 -0.0903 -0.0440
 9753W        W23167   3.161  12.882  15.405 -0.0922  0.2825  0.2684
 9754W        W23168   5.372  10.654   1.810 -0.2359  0.2535  0.6300
 9755W        W23169  18.013   6.020  10.780  0.0708  0.0433  0.3355
 9756W        W23170  10.438  10.738   2.650 -0.4305  0.0842  0.1146
 9757W        W23171  15.894  16.764  13.353 -0.2380 -0.0986 -0.2166
 9758W        W23172   7.646   7.511   1.593 -0.0214 -0.1470 -0.0880
 9759W        W23173   0.753   0.469  15.455  0.0339  0.1820  0.4875
 9760W        W23174   5.968   6.406  15.795  0.0016  0.0439  0.0790
 9761W        W23175  16.492  15.117   1.062 -0.0020  0.1708 -0.2677
 9762W        W23176  12.545  14.662   4.337  0.0987  0.1916  0.1270
 9763W        W23177  16.651  14.194  13.973 -0.0689 -0.2215 -0.2876
 9764W        W23178   4.911   5.809  11.674  0.0240  0.1669  0.2011
 9765W        W23179   4.939   6.899  15.246  0.3591  0.0030 -0.1623
 9766W        W23180   5.664   7.887   2.170 -0.0894 -0.0873 -0.4906
 9767W        W23181  13.672   0.968   0.644  0.1291  0.2531  0.0592
 9768W        W23182  12.236  14.077  10.306 -0.0780 -0.0010  0.0591
 9769W        W23183  11.944  13.228   4.350 -0.0787  0.0939  0.1724
 9770W        W23184   0.794   0.252   2.355  0.0772  0.1864  0.1245
 9771W        W23185   3.351  15.141   1.734 -0.0610  0.0018 -0.1948
 9772W        W23186  10.040   0.370  13.819 -0.2696 -0.3157  0.5270
 9773W        W23187  14.828   5.231  15.335 -0.0489 -0.0036 -0.0642
 9774W        W23188   1.419   9.517  11.669 -0.0324 -0.1909 -0.0313
 9775W        W23189   0.110  10.041  14.642  0.2677  0.0905 -0.2515
 9776W        W23190  16.165   6.248  14.817  0.0871 -0.3431 -0.5232
 9777W        W23191   3.885  17.168  11.775  0.1738  0.3011 -0.0220
 9778W        W23192  13.715   0.163   2.697 -0.0372 -0.0198  0.1122
 9779W        W23193  15.367   4.837   3.324 -0.2358 -0.2910 -0.1713
 9780W        W23194   2.705  15.122  13.304  0.1545  0.1882  0.0183
 9781W        W23195  16.817   3.462   0.865 -0.1899 -0.0959  0.1205
 9782W        W23196  11.361   8.058   2.053 -0.2831  0.0858 -0.0154
 9783W        W23197   7.033   9.679   1.419  0.0263 -0.2391 -0.1901
 9784W        W23198  12.369   6.589   1.334  0.0942  0.0853 -0.2738
 9785W        W23199  14.841   3.599   3.713  0.2374  0.1888 -0.2066
 9786W        W23200  10.232   8.155  15.237  0.1858  0.2992 -0.0134
 9787W        W23201   6.540   7.001  12.108  0.0927  0.0394  0.0642
 9788W        W23202   0.764  14.671   4.351 -0.0680 -0.3615 -0.2599
 9789W        W23203   7.335   0.815  11.283  0.1744  0.0323  0.0244
 9790W        W23204  14.568   5.809  11.129 -0.0878 -0.4607  0.2618
 9791W        W23205   9.639  17.414  10.891  0.1507  0.2575 -0.1240
 9792W        W23206   7.648   1.762  15.256  0.1167 -0.2053  0.0075
 9793W        W23207   7.534   2.413   5.708 -0.0580  0.1604 -0.1684
 9794W        W23208   6.908  15.751   1.074  0.1759 -0.0854 -0.2085
 9795W        W23209   5.117   6.803   5.539  0.0119 -0.1693 -0.2867
 9796W        W23210  16.649  16.728  15.678  0.0080 -0.2880  0.0458
 9797W        W23211   1.300   7.574   3.113 -0.1336 -0.0035  0.0172
 9798W        W23212   8.931  15.963  16.157 -0.3965 -0.1674  0.1074
 9799W        W23213  16.646   2.326   5.016  0.0095  0.1833 -0.3226
 9800W        W23214  13.577  17.820   1.067 -0.3019  0.0509  0.0485
 9801W        W23215   6.594  14.378  14.379  0.1102  0.0864 -0.0418
 9802W        W23216  10.384   8.908  10.616 -0.0460  0.1803  0.3118
 9803W        W23217   5.618  18.049  13.679 -0.1490  0.0827 -0.2098
 9804W        W23218   6.671  12.040   0.777  0.2212 -0.0859  0.0099
 9805W        W23219   8.305  14.648   0.857  0.0181 -0.3150  0.1493
 9806W        W23220  14.385   3.957  14.315 -0.2365 -0.2134 -0.0448
 9807W        W23221  10.054  17.440   5.149  0.1647 -0.0682 -0.2376
 9808W        W23222   0.955   3.335  14.896 -0.0992 -0.0634 -0.1900
 9809W        W23223   5.428  12.424  12.145 -0.1577  0.0097  0.1011
 9810W        W23224   4.055   8.850   2.351 -0.0174  0.0653 -0.3996
 9811W        W23225   0.969   6.871   3.809  0.0837 -0.1557 -0.1315
 9812W        W23226   3.517   6.214   3.501  0.0182 -0.0817  0.0051
 9813W        W23227  12.979  10.736   3.752  0.0997  0.1153  0.1198
 9814W        W23228   0.765   1.055   5.716  0.0557  0.1920 -0.0175
 9815W        W23229   3.030   5.976  16.188 -0.0848 -0.0051  0.2101
 9816W        W23230   8.305   2.631   1.357  0.0248 -0.1839 -0.0345
 9817W        W23231   4.458   4.872   4.473  0.1084  0.1416  0.1002
 9818W        W23232   4.625   5.519   0.851 -0.1273 -0.0714  0.0727
 9819W        W23233  18.146  12.011   3.340 -0.2519 -0.0920  0.1446
 9820W        W23234  16.943  13.623   4.027  0.0796 -0.0109  0.0837
 9821W        W23235  14.879   0.324   2.428  0.1781 -0.0497  0.1305
 9822W        W23236   0.375  12.425  12.195  0.1299 -0.1464 -0.0935
 9823W        W23237  16.326   3.520   2.177  0.1503  0.0170  0.2844
 9824W        W23238   0.884   9.859   0.900 -0.1015  0.2758  0.1700
 9825W        W23239   3.027  17.150   2.528 -0.3334 -0.3011 -0.2011
 9826W        W23240   7.295   7.051   0.499  0.0732 -0.2465  0.0025
 9827W        W23241   4.624  14.718   0.512 -0.0204 -0.0260  0.0937
 9828W        W23242   0.998   3.805   3.218  0.0511  0.0642 -0.0140
 9829W        W23243   1.500   3.425   5.396 -0.0856  0.0988 -0.0027
 9830W        W23244  17.280  13.950   5.966  0.2068  0.0022  0.1605
 9831W        W23245   8.248   0.386   2.859  0.4609  0.0881  0.0243
 9832W        W23246  13.153  10.687  14.512 -0.0109 -0.0984  0.0415
 9833W        W23247  11.969   8.353   5.147  0.0987 -0.0666 -0.0712
 9834W        W23248   5.460   7.191   4.108  0.3061 -0.0284 -0.6116
 9835W        W23249   3.696   7.030   4.667  0.4128  0.1125  0.1835
 9836W        W23250   1.134  10.029  14.946 -0.0707 -0.1260 -0.1004
 9837W        W23251   9.106   6.861   4.360 -0.0671  0.0674  0.1518
 9838W        W23252  17.308  12.120  11.971 -0.1842  0.0251 -0.2726
 9839W        W23253  12.098   5.627   4.004  0.0040 -0.2224  0.1560
 9840W        W23254  16.803  16.038  11.878  0.0368 -0.1438 -0.1697
 9841W        W23255   3.740   4.112  11.347 -0.3714  0.2890  0.2101
 9842W        W23256   6.127   2.149  11.397  0.1135 -0.0398 -0.0361
 9843W        W23257  10.948  15.476   1.813 -0.0327 -0.2942  0.0647
 9844W        W23258  16.694   5.274   0.364 -0.3484 -0.0650 -0.1074
 9845W        W23259   1.453   1.224   3.781 -0.2534 -0.3306 -0.3870
 9846W        W23260   9.980  12.239   4.572  0.0437 -0.1256  0.2133
 9847W        W23261   6.704  17.502  11.596  0.2146  0.1611 -0.0192
 9848W        W23262  13.553  17.050   1.558  0.1168 -0.0254  0.3745
 9849W        W23263   3.991  12.248   5.487  0.1026  0.0363  0.0667
 9850W        W23264  10.649   6.348   4.438  0.1537  0.0052  0.5850
 9851W        W23265   6.459  11.223  14.024 -0.2420  0.2359 -0.0659
 9852W        W23266   3.764   9.466   5.548 -0.1970 -0.0095 -0.1351
 9853W        W23267   5.374  11.363   6.921  0.1138 -0.0913  0.0763
 9854W        W23268   9.767   1.262  13.192  0.1850 -0.0191  0.0471
 9855W        W23269  11.439   0.356   0.612  0.2030 -0.2480  0.2619
 9856W        W23270   5.992  16.585   2.960 -0.0885  0.0156  0.1371
 9857W        W23271  11.179   7.324   4.973 -0.1426 -0.2551  0.0543
 9858W        W23272  17.286   4.044  13.556  0.0699  0.0462  0.2841
 9859W        W23273   4.307   2.929  10.563 -0.1586  0.3143 -0.1073
 9860W        W23274   7.293   6.951   4.349 -0.2626  0.1413  0.1200
 9861W        W23275  11.846  12.527   5.049  0.3554  0.0897 -0.0397
 9862W        W23276   6.673  12.053  13.872 -0.1178 -0.0264 -0.0243
 9863W        W23277   3.065  15.979  12.726  0.0437 -0.0313  0.3053
 9864W        W23278  13.178  16.305   1.073  0.2398 -0.1940 -0.1950
 9865W        W23279   6.218   2.494   4.027 -0.1471 -0.5203 -0.0715
 9866W        W23280   8.528   1.708   5.399  0.0327 -0.1721  0.1492
 9867W        W23281  17.283   5.210  15.684  0.0939  0.2518  0.1695
 9868W        W23282   6.521  12.140   5.468  0.1455  0.0096  0.0336
 9869W        W23283  17.652  15.731   1.785 -0.2308  0.3832 -0.0033
 9870W        W23284  10.670   1.193   2.784 -0.0110  0.0615 -0.3980
 9871W        W23285   0.481   6.511  12.440  0.1364  0.0808 -0.0614
 9872W        W23286   8.411   6.584  14.473 -0.2484 -0.1726  0.0810
 9873W        W23287  10.105  12.945   5.864  0.0491  0.2180 -0.0278
 9874W        W23288   5.189   7.625   4.042  0.2197  0.2241  0.0597
 9875W        W23289  10.707  14.909   2.730 -0.2534  0.1178  0.3077
 9876W        W23290  17.047   7.331   0.619  0.1977  0.0273 -0.1334
 9877W        W23291   6.008   0.223   2.292  0.0467 -0.1093 -0.0027
 9878W        W23292  11.335   8.505  13.693  0.2191  0.1968  0.0314
 9879W        W23293  10.591   2.779   4.113 -0.2358 -0.1039 -0.0114
 9880W        W23294  17.747  16.094  11.961 -0.0785  0.0756 -0.2201
 9881W        W23295  15.116  17.853   3.022  0.0831 -0.0419  0.1001
 9882W        W23296   4.557  14.509  11.900 -0.0749  0.2364  0.2868
 9883W        W23297   0.464  16.609  10.580 -0.0450  0.2224 -0.1441
 9884W        W23298  16.735  12.137  11.220 -0.3850 -0.1039  0.0691
 9885W        W23299  17.932   0.601   3.680 -0.1080 -0.1992 -0.0585
 9886W        W23300  10.242   0.982  14.031  0.0862  0.0543 -0.3478
 9887W        W23301  15.411   3.880  16.025  0.1703  0.1547 -0.1488
 9888W        W23302   7.280  15.615   2.237 -0.0620 -0.0754  0.0399
 9889W        W23303   0.980  14.744  15.993  0.2715 -0.0422 -0.0170
 9890W        W23304   2.918  12.509  14.025 -0.1362  0.1772 -0.1033
 9891W        W23305  14.554  16.937   4.781  0.0741 -0.0424 -0.2873
 9892W        W23306   7.541   4.301   3.158 -0.1157  0.0339 -0.3268
 9893W        W23307  13.321  17.722   5.016  0.1657 -0.2926  0.2071
 9894W        W23308   3.083  15.220  15.995 -0.1308  0.0257  0.1806
 9895W        W23309   7.304   8.167  15.466  0.0204  0.0817 -0.1609
 9896W        W23310  13.105   8.614   2.490  0.1261 -0.0173  0.1998
 9897W        W23311  13.824   3.270  12.821  0.0238 -0.1499  0.1000
 9898W        W23312   8.858  12.119  11.047  0.2515  0.0041  0.1755
 9899W        W23313   6.541   5.879  15.563  0.0270 -0.2203 -0.0189
 9900W        W23314  12.585  17.958  15.260  0.2716 -0.1861  0.2470
 9901W        W23315   3.106   8.655   6.416  0.0032  0.2464  0.0747
 9902W        W23316  13.120   9.831   0.168 -0.2101 -0.1031  0.0061
 9903W        W23317   6.177   5.418   4.246 -0.0208  0.1771  0.2239
 9904W        W23318   7.241  13.791  10.620  0.3061 -0.0176 -0.2538
 9905W        W23319   7.547  17.258  13.483 -0.0254 -0.0203 -0.1835
 9906W        W23320  11.875   7.428  12.222  0.1757  0.0333 -0.1346
 9907W        W23321  12.397   8.018  15.218  0.1734  0.4757 -0.0246
 9908W        W23322   3.650   1.357  11.819  0.0762  0.1390  0.1840
 9909W        W23323   7.147   8.073  13.735 -0.0122 -0.3276  0.0524
 9910W        W23324   4.075   2.943  13.150 -0.0882  0.0757  0.0006
 9911W        W23325   3.230  11.164  15.417 -0.1614 -0.0492 -0.3992
 9912W        W23326  15.659  16.383   2.983 -0.0528  0.4912 -0.0966
 9913W        W23327   2.610   3.949  10.791 -0.0516  0.0134  0.0521
 9914W        W23328  16.452  14.634  11.849 -0.0424  0.1138 -0.3561
 9915W        W23329   2.888  18.090  14.094  0.1816  0.1794 -0.1816
 9916W        W23330   2.307  14.350   2.453  0.1679 -0.0425 -0.0814
 9917W        W23331   0.290  12.322   3.434 -0.2225  0.0113 -0.2194
 9918W        W23332   8.431   5.333   1.914  0.3063  0.1359  0.0334
 9919W        W23333   0.962   4.854   5.757 -0.1928  0.1592 -0.2100
 9920W        W23334  15.643   5.937  11.965  0.2753 -0.3181  0.0384
 9921W        W23335  17.320  10.433  13.535 -0.1065 -0.1480  0.0552
 9922W        W23336  14.453   9.773  15.551 -0.1624  0.0168  0.2928
 9923W        W23337   1.955   3.545   4.223 -0.1636 -0.1210  0.2007
 9924W        W23338  12.026  13.485  15.753  0.0265 -0.0861  0.0474
 9925W        W23339   0.755  17.919  11.858 -0.2639  0.3332 -0.0050
 9926W        W23340   3.758   2.090  14.395  0.2426  0.1181  0.2051
 9927W        W23341   3.171   6.740   2.723 -0.2050 -0.2271  0.0250
 9928W        W23342  16.847  13.828   2.713 -0.1074  0.0312 -0.2102
 9929W        W23343   5.780  13.127   1.053 -0.2322  0.0894  0.3690
 9930W        W23344   0.796  11.487   2.608  0.0295  0.1081  0.0195
 9931W        W23345  11.273   9.015  16.367  0.0124 -0.0633 -0.0853
 9932W        W23346   1.149  14.983  15.234  0.0134 -0.3757  0.0900
 9933W        W23347   4.473   8.068  12.819  0.0088  0.0767 -0.0755
 9934W        W23348  11.080  13.882  15.278  0.2792  0.1277 -0.3423
 9935W        W23349  13.889  17.710   2.597  0.0252  0.2623 -0.1914
 9936W        W23350  16.625   3.391   0.346  0.1945 -0.0641  0.2628
 9937W        W23351   2.443   3.314  13.336 -0.0188 -0.2511 -0.1852
 9938W        W23352  15.123   4.517  11.375 -0.0537 -0.1257 -0.1730
 9939W        W23353   0.070  11.769   1.632 -0.3550  0.2273  0.3172
 9940W        W23354  11.915   5.001  13.182 -0.1941 -0.0384  0.1178
 9941W        W23355   0.367   4.346  15.366 -0.2499  0.1157 -0.3008
 9942W        W23356   9.306   9.984   0.167 -0.0484  0.3064 -0.1136
 9943W        W23357  15.844  10.478   0.967 -0.0262  0.2135  0.2181
 9944W        W23358   7.302  14.692   4.576 -0.1845  0.3301 -0.1295
 9945W        W23359   3.808   1.382  12.288 -0.2324 -0.0408  0.1693
 9946W        W23360   2.671  14.138   5.393 -0.2769 -0.0648 -0.1388
 9947W        W23361   6.489   5.649  16.043 -0.2141 -0.1920 -0.1453
 9948W        W23362  13.573   6.570   5.810 -0.2717 -0.0880  0.1753
 9949W        W23363  16.744  11.972  11.809  0.3844 -0.2120  0.1371
 9950W        W23364  14.707   4.510  11.665  0.0010  0.1014 -0.3894
 9951W        W23365   1.582   0.395   3.054 -0.1327  0.0064 -0.0666
 9952W        W23366   0.269   2.788  12.296 -0.0093  0.0856 -0.1997
 9953W        W23367   0.308  15.820   5.592  0.0977  0.1790  0.1244
 9954W        W23368  17.480   7.240   5.191 -0.1820  0.0191 -0.0444
 9955W        W23369   0.175  10.061  10.968  0.3333  0.1943 -0.0068
 9956W        W23370   1.970  15.652   1.176  0.1059  0.4688  0.1508
 9957W        W23371   2.558   0.742  14.024 -0.0469 -0.0176  0.1093
 9958W        W23372   0.782   7.499  15.698 -0.0638 -0.2225 -0.1455
 9959W        W23373   3.329  10.601  11.648  0.1321 -0.0665 -0.1825
 9960W        W23374  11.490   0.459  13.534  0.1953 -0.1635  0.0680
 9961W        W23375   6.434  14.558  15.854 -0.1673  0.0824  0.3101
 9962W        W23376  13.056   0.310   3.387 -0.0054  0.1177 -0.1511
 9963W        W23377   2.903   9.742   1.113  0.0797 -0.0784  0.0385
 9964W        W23378   8.857  11.093  15.062  0.2355  0.2132 -0.0410
 9965W        W23379   6.292   5.947   0.911  0.3087 -0.1960  0.1877
 9966W        W23380   3.779   2.276  16.033  0.0432  0.1779 -0.1903
 9967W        W23381   6.035  16.023  14.383  0.0058  0.0710 -0.1036
 9968W        W23382   6.654   9.390  13.279 -0.2245 -0.1911 -0.2323
 9969W        W23383  15.684   0.738  14.632 -0.0531  0.0386 -0.0872
 9970W        W23384  11.425  17.507   3.606  0.0266  0.2877  0.1567
 9971W        W23385  17.561  12.500   1.281 -0.0096  0.0314  0.1784
 9972W        W23386   0.419  12.459  14.271  0.0742 -0.0761 -0.0565
 9973W        W23387   7.117  13.980   2.079 -0.0007  0.1495  0.4341
 9974W        W23388   2.803   0.134  16.012 -0.0167 -0.0349 -0.0797
 9975W        W23389   1.749  11.042  13.329 -0.0200  0.2245 -0.0428
 9976W        W23390  12.225  10.006   3.092  0.0008  0.1479 -0.0432
 9977W        W23391   8.677  14.513   4.803  0.0798 -0.0591  0.0472
 9978W        W23392  11.031  11.033  11.570 -0.0886  0.1954 -0.0557
 9979W        W23393  16.712   0.720  15.846  0.3000 -0.0562 -0.0028
 9980W        W23394  17.172   7.889  14.383  0.0222 -0.0292 -0.0078
 9981W        W23395   1.502   5.186   6.501 -0.2444 -0.0005  0.1068
 9982W        W23396  13.283  10.179  12.551  0.0852 -0.0714 -0.2519
 9983W        W23397   4.236  15.694  14.406  0.0771 -0.0791 -0.1176
 9984W        W23398  16.409  13.011   2.953 -0.0649 -0.1461  0.1213
 9985W        W23399   1.991   8.184  14.544  0.1131  0.1361 -0.0285
 9986W        W23400   5.971  17.133   3.882 -0.0584  0.0108 -0.1536
 9987W        W23401  15.548  14.005  11.116  0.0676  0.0850 -0.0491
 9988W        W23402   1.854  18.124  13.976 -0.2077  0.2493  0.2018
 9989W        W23403  11.325   9.863   5.632 -0.1138 -0.2890  0.0531
 9990W        W23404  17.914   5.202  14.326  0.0414  0.0073  0.4152
 9991W        W23405  16.222  17.882  15.184 -0.1899 -0.0216  0.1105
 9992W        W23406  17.628   3.744  13.811  0.4372 -0.2997  0.1202
 9993W        W23407   9.392   4.614  10.598  0.2672  0.0576  0.1237
 9994W        W23408   0.246  11.450  16.001 -0.1320  0.0552 -0.3983
 9995W        W23409  13.830  14.483   4.822  0.0995 -0.6126 -0.1533
 9996W        W23410  17.013  17.032   4.728 -0.0971  0.0858 -0.0218
 9997W        W23411  15.191   3.487   5.749 -0.0790  0.0772 -0.2284
 9998W        W23412   1.486   4.260   5.740 -0.1850  0.0219 -0.1505
 9999W        W23413  10.004   9.736   4.901  0.0905 -0.2089 -0.2009
10000W        W23414   1.565   2.635  11.762 -0.0252 -0.0068 -0.0207
10001W        W23415  15.146   7.003  15.957  0.1373 -0.0977 -0.3009
10002W        W23416  10.533   7.352  11.505 -0.1106  0.2158  0.2626
10003W        W23417   0.347   3.204   2.089 -0.0368 -0.3916  0.1316
10004W        W23418   2.396   3.275  10.922  0.0121 -0.0249 -0.0907
10005W        W23419   2.699   2.004   1.363 -0.0048 -0.2990  0.1496
10006W        W23420   5.117  13.411  12.801 -0.3558  0.1943  0.1652
10007W        W23421  14.079  16.958   2.956 -0.2444 -0.1757 -0.2849
10008W        W23422  17.655  16.431  14.724  0.3767 -0.2874  0.0994
10009W        W23423   0.143   7.503   5.527  0.1652  0.0770 -0.0388
10010W        W23424   1.404  11.300   4.858  0.3600  0.2195 -0.0669
10011W        W23425  14.437   5.133   4.975  0.2663 -0.1081  0.2786
10012W        W23426   5.022  14.396   0.492 -0.4871 -0.2543  0.0153
10013W        W23427  17.338   8.638  14.697 -0.1191 -0.0072  0.1058
10014W        W23428   6.264   5.366  11.775  0.0830 -0.1064  0.0474
10015W        W23429   6.200   1.557   4.919  0.1633 -0.0204 -0.0094
10016W        W23430   9.215   8.880   3.725  0.1014 -0.0725 -0.1212
10017W        W23431   4.258  11.240   6.455 -0.0876  0.1328 -0.0587
10018W        W23432   3.102   4.309   5.681  0.1082  0.4230 -0.0010
10019W        W23433  10.502  15.918   1.557  0.1945  0.1010 -0.0992
10020W        W23434   6.597  10.037   2.305  0.0846  0.2339  0.1725
10021W        W23435   5.146   1.305  10.854 -0.0455  0.2649 -0.0084
10022W        W23436  11.642  10.781   4.280 -0.1451  0.1902 -0.3297
10023W        W23437  14.089   3.705  15.894 -0.1291  0.1365  0.1960
10024W        W23438   9.893   2.455  14.284 -0.0822  0.3987  0.2952
10025W        W23439  16.686  13.577  13.264 -0.0836 -0.0628 -0.2839
10026W        W23440  14.361  17.325  10.621  0.2034 -0.1557  0.0467
10027W        W23441  11.928   8.290   5.686  0.0185  0.2245  0.0753
10028W        W23442   9.573   6.458  13.753 -0.1403  0.4850 -0.0262
10029W        W23443  15.154   5.316   5.533  0.0358 -0.4458  0.0347
10030W        W23444   9.002   9.679   3.898  0.0292 -0.2171  0.0740
10031W        W23445   6.211   8.914  16.226  0.0875  0.1108 -0.2702
10032W        W23446  15.717  11.044   1.152 -0.2850  0.2570  0.0109
10033W        W23447   9.427   5.979   1.528  0.1800  0.2688 -0.1160
10034W        W23448  10.402   5.270  14.673  0.2296  0.3564  0.0025
10035W        W23449  16.972  14.021  15.310 -0.1454 -0.1313 -0.1401
10036W        W23450   5.063  11.394  16.475  0.1130  0.2717 -0.3081
10037W        W23451   3.140   7.061   4.716 -0.1437 -0.0641 -0.0780
10038W        W23452   4.324  12.641  14.043 -0.0775 -0.2728  0.0459
10039W        W23453  11.649   4.753  12.840 -0.0461  0.1068 -0.0347
10040W        W23454  10.204   1.092   3.634  0.1504  0.1829 -0.1295
10041W        W23455   4.218   1.329  12.797  0.2047  0.1744  0.1870
10042W        W23456   1.345  14.794   1.331  0.0543 -0.0406 -0.3410
10043W        W23457   3.979   5.280   4.226  0.1120  0.1918 -0.2959
10044W        W23458   4.444   3.613  15.719  0.0320 -0.1379 -0.2500
10045W        W23459   5.463   5.952   0.939  0.1626  0.1177 -0.4698
10046W        W23460   8.878   1.566  11.070 -0.2487 -0.2432  0.1110
10047W        W23461  14.366  15.638  15.210 -0.1681 -0.2152  0.1376
10048W        W23462  14.081   6.184   4.232 -0.1803  0.3459  0.1655
10049W        W23463   0.116   9.275  10.901  0.1508 -0.2415  0.0836
10050W        W23464  16.813   8.535  12.748  0.1193 -0.2370  0.1545
10051W        W23465   0.573   3.308   1.191 -0.0114  0.0964 -0.0460
10052W        W23466  11.930   7.883  10.319  0.0376 -0.0973  0.3974
10053W        W23467   8.622  11.444  12.274  0.0166 -0.1523  0.1345
10054W        W23468  11.395  13.527   3.884  0.3106 -0.0372 -0.0680
10055W        W23469   7.364   2.554  11.516 -0.0500 -0.1129  0.2443
10056W        W23470   9.305   8.674  12.705  0.0033 -0.1361  0.0787
10057W        W23471   2.042   4.374   4.805 -0.0178 -0.2294  0.0727
10058W        W23472   3.836  14.753  16.397  0.2755  0.1286 -0.2065
10059W        W23473   6.758  15.257  15.539 -0.4955 -0.1143 -0.0181
10060W        W23474   1.568   9.400  12.126 -0.1237 -0.3944  0.0552
10061W        W23475  11.285  17.624   0.405 -0.0346  0.1407 -0.1651
10062W        W23476   5.762   6.192   4.197  0.3821 -0.3145 -0.0021
10063W        W23477   3.095  12.816   3.342  0.0931 -0.3218 -0.1110
10064W        W23478   6.897   6.255   2.638 -0.0085  0.1170  0.0944
10065W        W23479  14.470  10.298  14.242 -0.0556 -0.0068 -0.1144
10066W        W23480  14.703  11.604   3.447  0.5436 -0.2239  0.3064
10067W        W23481   8.294   2.425  12.919 -0.1849 -0.0314 -0.1400
10068W        W23482   6.145   6.795   0.462 -0.0071  0.0756 -0.4046
10069W        W23483   8.095   1.002   4.673  0.2981  0.0308 -0.1248
10070W        W23484   1.076  10.345  14.488  0.2423  0.1560 -0.2148
10071W        W23485   1.625   0.836   2.700 -0.3702  0.1468 -0.0442
10072W        W23486   0.736  14.681   6.002  0.0512 -0.0740 -0.0026
10073W        W23487   8.669   7.701   2.173 -0.2580 -0.0103  0.0459
10074W        W23488  14.168   7.581  15.178 -0.2253 -0.2704 -0.0861
10075W        W23489   5.395  11.400   0.447  0.3168 -0.1422  0.3076
10076W        W23490  17.288  17.325   0.225 -0.4077 -0.1893 -0.2251
10077W        W23491   0.344  11.882  14.415 -0.0364  0.1894 -0.2546
10078W        W23492   4.832  14.615  11.288  0.3161 -0.0883  0.1219
10079W        W23493  16.452   6.199  10.798 -0.1094 -0.0772  0.0166
10080W        W23494  16.046  16.849   4.902  0.0785  0.0847  0.1331
10081W        W23495   1.611  16.769  11.933  0.2017  0.1540  0.2452
10082W        W23496  14.484   6.902  11.481 -0.2579  0.0799 -0.0191
10083W        W23497   9.148   3.239  14.581 -0.3005 -0.0433 -0.1530
10084W        W23498  10.921   6.075  15.890 -0.0866  0.0669  0.2036
10085W        W23499   8.870   6.598  14.918  0.2590 -0.0678 -0.2144
10086W        W23500  12.236   2.039  13.813 -0.1727 -0.3301  0.1072
10087W        W23501  14.504   8.734   0.529 -0.0225  0.1045 -0.0289
10088W        W23502  15.265  16.411   3.217 -0.0685  0.2684 -0.1394
10089W        W23503   0.799  16.667  10.976 -0.2482 -0.1038 -0.0802
10090W        W23504   6.597   6.985  11.294 -0.1298 -0.1509 -0.0049
10091W        W23505   8.804  13.139   2.013  0.1657 -0.2245  0.2114
10092W        W23506   7.003   5.229   4.144  0.0741 -0.0322 -0.0080
10093W        W23507   7.296   8.876  13.436  0.1590  0.0254  0.1472
10094W        W23508  17.059   5.752   0.309 -0.0334  0.0862 -0.2959
10095W        W23509   5.354  11.771   0.045 -0.3228 -0.2049 -0.0797
10096W        W23510   0.393  14.768  14.323 -0.0926 -0.1902 -0.2943
10097W        W23511   4.033   1.298  15.872  0.0142 -0.1424 -0.3151
10098W        W23512   4.900  12.696   5.101 -0.1029 -0.0534 -0.1260
10099W        W23513  10.436   2.942   3.459  0.0853 -0.3506  0.2559
10100W        W23514   5.657  12.212   0.054  0.1474 -0.1210  0.0802
10101W        W23515  13.457   2.023  13.027  0.0795 -0.0707  0.3956
10102W        W23516   5.846  15.181   0.670 -0.1131 -0.0911  0.0174
10103W        W23517   6.440  14.360   0.445 -0.0274 -0.2592 -0.1815
10104W        W23518   2.847   8.457   1.516 -0.0053 -0.2057  0.0149
10105W        W23519  13.667   5.578   0.605  0.1007 -0.0914 -0.0666
10106W        W23520   6.100  14.902  12.128 -0.0579  0.0840 -0.1026
10107W        W23521   4.083   5.178   4.709 -0.0413 -0.0586 -0.1594
10108W        W23522  11.812  17.742  11.199  0.0096 -0.1825 -0.0986
10109W        W23523   5.099   7.145   3.206 -0.2944 -0.3638 -0.0785
10110W        W23524   6.007   2.437  11.785 -0.0003 -0.0861 -0.0032
10111W        W23525  17.352  13.908  12.692 -0.1564  0.1894  0.1213
10112W        W23526   4.598   0.125   5.300  0.3111  0.0352  0.0692
10113W        W23527   8.085  16.087   3.651 -0.1160  0.0907  0.0052
10114W        W23528  12.445  17.308  11.484  0.0323 -0.0190  0.0443
10115W        W23529   1.791   5.904   5.426 -0.0263  0.1866  0.5783
10116W        W23530   8.284   2.441   6.418 -0.2343 -0.0124 -0.0425
10117W        W23531   9.339  16.063  13.730 -0.1353 -0.2229 -0.0777
10118W        W23532   4.664  15.390   2.156  0.1804  0.1214 -0.0282
10119W        W23533  15.536   2.167  11.767 -0.5191  0.1453 -0.3878
10120W        W23534   6.114   0.303  13.779 -0.0116  0.1002 -0.2077
10121W        W23535   1.176  15.109   3.700 -0.0332 -0.0505 -0.1014
10122W        W23536   6.815   4.369   5.027 -0.0702  0.0599 -0.2121
10123W        W23537   9.732  15.993   0.388  0.2349 -0.2398  0.1494
10124W        W23538  15.298   3.483   1.400  0.3121 -0.0496 -0.0989
10125W        W23539  11.317   1.275  12.255  0.0433 -0.0007  0.1104
10126W        W23540  17.846   3.900  16.374  0.3015  0.0549 -0.3554
10127W        W23541   3.711  13.515   5.042  0.3863 -0.2231 -0.2694
10128W        W23542   2.832  17.557  13.967  0.0402  0.0352  0.3188
10129W        W23543  10.737   1.256  15.414 -0.0842 -0.0270  0.3097
10130W        W23544   8.993  17.548  14.559 -0.0396 -0.0275 -0.0911
10131W        W23545  12.657  17.265  12.612 -0.1576  0.1228 -0.0224
10132W        W23546   5.672   6.147   4.680 -0.1504 -0.0679 -0.2098
10133W        W23547  11.541  11.238  12.497 -0.2037  0.1841 -0.1633
10134W        W23548   7.793  12.551   1.493 -0.2860  0.1962  0.3276
10135W        W23549   2.430   1.332   3.985 -0.1784 -0.1655  0.1463
10136W        W23550   4.535   6.597  11.620 -0.0638 -0.1515 -0.3154
10137W        W23551  10.368   0.441   0.365 -0.1501 -0.1140 -0.0974
10138W        W23552   9.204  16.516   2.416  0.0265  0.0726  0.2042
10139W        W23553   2.341  13.209   1.163 -0.1445  0.0540 -0.0511
10140W        W23554   2.837  17.212   3.047 -0.0128 -0.0024  0.0780
10141W        W23555  18.143   9.937   1.628 -0.1049  0.1150  0.1311
10142W        W23556  15.270  16.503   2.228 -0.1202  0.0854  0.0072
10143W        W23557  15.676   4.945   0.555 -0.1917  0.0013 -0.3045
10144W        W23558  11.938  10.680  10.940 -0.1922  0.5300 -0.0511
10145W        W23559   7.513   6.791   0.917  0.0115 -0.0488 -0.1982
10146W        W23560   6.562   9.384   4.444 -0.0836 -0.2010 -0.0684
10147W        W23561   4.218   7.554   2.112 -0.3707 -0.3389  0.0318
10148W        W23562   3.485   0.098  11.120 -0.1453  0.0224  0.4094
10149W        W23563   6.829  17.076   5.420 -0.2942  0.0466 -0.1407
10150W        W23564  17.265  10.343  15.946 -0.2519  0.2158 -0.1103
10151W        W23565   8.899   5.246  14.328 -0.0124  0.0473 -0.0191
10152W        W23566   1.370  13.685  13.224 -0.1382  0.2289 -0.0042
10153W        W23567   7.643   7.812   4.653  0.1321  0.1246 -0.1958
10154W        W23568  16.298   6.474   2.582  0.1508 -0.1000 -0.2098
10155W        W23569   0.188   2.063   5.266 -0.3798 -0.0221  0.0204
10156W        W23570   9.772  15.705  13.616 -0.1686 -0.0788  0.3933
10157W        W23571   8.606  10.163   5.095 -0.2125  0.1585 -0.2579
10158W        W23572   9.299   9.070  15.349 -0.0616  0.1910 -0.2522
10159W        W23573   7.650  16.118   1.586  0.1249  0.2006 -0.0523
10160W        W23574   7.693   2.738   0.104  0.3370  0.0589  0.0221
10161W        W23575  17.804  11.093  15.553 -0.2309 -0.0030  0.0242
10162W        W23576  16.539   6.108   2.944  0.4547  0.1546 -0.0185
10163W        W23577  15.876   1.837  15.676 -0.1380 -0.1798 -0.0900
10164W        W23578  17.860   6.030  14.215 -0.2756  0.0879 -0.0899
10165W        W23579   7.755   8.323  15.868 -0.1777 -0.3654 -0.1512
10166W        W23580  10.336   8.289   1.496  0.0528 -0.0995  0.0515
10167W        W23581   3.755  16.370   2.676 -0.1525 -0.0602 -0.0764
10168W        W23582   3.035   9.377   6.243  0.0495  0.1325 -0.3686
10169W        W23583   2.450   9.581  13.022 -0.1684 -0.2424 -0.3147
10170W        W23584  16.719   6.094   0.542  0.1117 -0.0113  0.2285
10171W        W23585   2.633   7.766   4.339 -0.0145  0.1171 -0.1142
10172W        W23586  17.750  17.284   5.007 -0.1888  0.3306 -0.0773
10173W        W23587   4.680   0.107  11.449 -0.1281  0.2427  0.0718
10174W        W23588  12.937   8.621   1.200  0.0744  0.0355  0.1519
10175W        W23589   4.051   8.276  14.119 -0.1698 -0.3507 -0.1042
10176W        W23590  11.418  17.123  11.428 -0.1159 -0.3428  0.1127
10177W        W23591   5.214   4.028  15.592  0.0051  0.3349  0.3759
10178W        W23592   2.797  16.234  10.574 -0.3026 -0.2595  0.2740
10179W        W23593  15.232  10.424   0.162  0.0100  0.1030  0.3472
10180W        W23594   2.093   1.177   3.524  0.0503 -0.1361 -0.1270
10181W        W23595   3.141   5.017  13.977  0.0249  0.0696 -0.1505
10182W        W23596   2.894  12.043   3.305 -0.0258  0.1405  0.2605
10183W        W23597   0.788  17.307  13.093 -0.0382  0.1103 -0.0358
10184W        W23598  16.397  17.571   0.363  0.1160 -0.0852  0.1011
10185W        W23599   3.208   4.009  14.255  0.1482  0.0674  0.1237
10186W        W23600   5.706  16.160   6.152  0.1551 -0.0998 -0.3037
10187W        W23601  16.868   2.831   0.491  0.0528 -0.2618 -0.1276
10188W        W23602   3.805  13.306   1.706  0.1325  0.0603 -0.0090
10189W        W23603   7.366  14.484  13.106  0.0980  0.3881  0.0277
10190W        W23604   7.164  14.009  13.259  0.1305  0.1068 -0.2575
10191W        W23605   5.005   8.805  15.955 -0.1645 -0.2453  0.2201
10192W        W23606  13.411  15.423  15.397 -0.0196 -0.3260 -0.2027
10193W        W23607   9.617   9.736   2.746 -0.1871 -0.0547  0.5364
10194W        W23608  11.448  15.289  12.039 -0.0099 -0.0381  0.1324
10195W        W23609   1.816   3.812   5.395 -0.1814  0.0758 -0.0191
10196W        W23610  16.113  14.408   4.272 -0.1896  0.0970 -0.0912
10197W        W23611  17.099  12.140  12.990 -0.1180  0.0148  0.2036
10198W        W23612   7.908  13.440   5.890  0.5463 -0.1611 -0.0093
10199W        W23613   8.855   1.107   5.628  0.2058  0.0230  0.0319
10200W        W23614   9.808   2.674   5.345  0.4350  0.0590  0.0035
10201W        W23615   2.702  16.596  16.364  0.1814  0.1403  0.1164
10202W        W23616   4.862   5.797   4.522  0.0450 -0.0015  0.2520
10203W        W23617   4.525  13.721   0.491  0.0542 -0.0079  0.2332
10204W        W23618  10.375   4.954  14.318 -0.1330 -0.2371  0.0994
10205W        W23619   0.634   3.384  13.035 -0.2519 -0.4353  0.3101
10206W        W23620  16.493   7.568  11.801  0.0412 -0.0334 -0.1933
10207W        W23621   3.695  13.756   6.311 -0.0678 -0.0696  0.0860
10208W        W23622   8.802   6.139  14.773 -0.2662 -0.1519 -0.4102
10209W        W23623   1.395  16.188   5.400 -0.0035  0.1014  0.4080
10210W        W23624   1.984  12.159   2.248 -0.1024  0.2516 -0.0461
10211W        W23625  10.653  16.895   2.540  0.1272 -0.0067 -0.0936
10212W        W23626  15.747  15.797   1.215 -0.3523  0.0361  0.2877
10213W        W23627  10.754  16.489   2.958 -0.3017  0.1550 -0.0938
10214W        W23628  12.168   3.537   1.257 -0.1181 -0.1682 -0.1297
10215W        W23629   6.912   0.075   4.944  0.1768 -0.1890  0.0123
10216W        W23630   3.580  13.179   3.309  0.1022  0.2198 -0.0372
10217W        W23631   4.905   2.752  10.734  0.2165  0.1738 -0.0602
10218W        W23632  11.334   4.340  14.954 -0.2543  0.4705 -0.0060
10219W        W23633  16.936   7.979   3.508 -0.2014 -0.3715  0.0055
10220W        W23634   8.089  16.347   5.397  0.1365 -0.1600 -0.1998
10221W        W23635   9.925   6.446   5.726  0.1503 -0.1716 -0.1908
10222W        W23636   8.161  12.782  15.183  0.2204 -0.2490  0.1732
10223W        W23637   3.186   2.897   5.688 -0.1564  0.0194 -0.0693
10224W        W23638  12.403   8.671  13.645  0.3598  0.3438 -0.0666
10225W        W23639  16.498   1.635   1.228 -0.0803 -0.2934 -0.0768
10226W        W23640   7.882  15.455  11.979  0.0364  0.0280  0.2534
10227W        W23641   8.925  13.711  12.913 -0.4718 -0.0934  0.3261
10228W        W23642   9.846  16.139  10.853  0.3217 -0.3248 -0.1954
10229W        W23643  12.333  14.141   1.232 -0.1371  0.1478 -0.0545
10230W        W23644   6.552  17.906   0.457  0.2068 -0.1448 -0.1209
10231W        W23645   5.860   8.954  13.140 -0.1080  0.0097  0.1036
10232W        W23646  17.149   2.312   2.234  0.0311 -0.0108 -0.1499
10233W        W23647  14.823  15.925   1.773 -0.0044  0.0503  0.0513
10234W        W23648  17.689   9.505   2.040  0.0255  0.2470  0.0529
10235W        W23649  13.306   8.270   4.718  0.0079  0.1420  0.2947
10236W        W23650   1.439   5.711  12.419  0.1903  0.0957 -0.0053
10237W        W23651   1.074   0.695   0.248  0.1073  0.0628  0.1031
10238W        W23652   2.010   7.641  14.536  0.3102 -0.0986  0.0176
10239W        W23653  16.846   5.791   2.099  0.4976 -0.1542 -0.1618
10240W        W23654  17.996   2.293   2.206 -0.1352 -0.2681  0.1197
10241W        W23655  11.994  17.491   1.073 -0.2060 -0.1712  0.2847
10242W        W23656  16.236   5.303  14.784  0.0317 -0.3096  0.0744
10243W        W23657   7.133  13.360  14.468  0.1905 -0.2487  0.0231
10244W        W23658  16.561   2.467  11.075 -0.1114  0.0419 -0.1048
10245W        W23659  15.281  13.507   5.985 -0.0648 -0.0247  0.0796
10246W        W23660   8.633  14.241  12.720  0.1569 -0.2893  0.2166
10247W        W23661  16.105   9.899  14.728  0.1219 -0.0198 -0.0463
10248W        W23662   7.660  17.377   0.219  0.0967 -0.1811  0.2316
10249W        W23663   1.428  16.089  13.289  0.1020 -0.1406  0.0443
10250W        W23664   1.793   6.060   3.500  0.0350 -0.1048 -0.0661
10251W        W23665  17.017   7.553   4.555 -0.2178  0.0429 -0.1591
10252W        W23666  13.703   5.835  16.295 -0.0540 -0.2200  0.0870
10253W        W23667   5.812   5.501   5.369 -0.1140  0.5496  0.0672
10254W        W23668  10.009  17.527   1.614  0.0574 -0.0963 -0.1250
10255W        W23669   3.049  17.409   4.265  0.0070  0.0772  0.4644
10256W        W23670   1.401   7.903   2.345  0.0372  0.1753 -0.0536
10257W        W23671  17.257   4.212   4.689  0.2060 -0.2983 -0.2105
10258W        W23672   1.544   3.341   3.991 -0.1210 -0.0598 -0.1178
10259W        W23673   4.913   4.174   3.331 -0.1483  0.1138  0.1122
10260W        W23674   9.837  11.006   5.157  0.2354 -0.1106  0.1721
10261W        W23675  14.167   0.738   5.186  0.1897 -0.1687 -0.3533
10262W        W23676  10.208  15.176  14.779 -0.0672 -0.1713  0.0596
10263W        W23677   5.368  14.947   1.290 -0.0455  0.2927 -0.2251
10264W        W23678  13.285   3.498   6.186  0.3346 -0.0016  0.0383
10265W        W23679   8.066   2.911  12.770 -0.1336  0.4457 -0.1682
10266W        W23680   8.399   5.529   5.414  0.2357  0.1859 -0.1958
10267W        W23681   6.631   5.400  15.305  0.0583 -0.0227 -0.0327
10268W        W23682   5.994  10.917  15.324 -0.0172 -0.1740  0.1563
10269W        W23683   1.150   1.595  11.223 -0.1530 -0.0782  0.2720
10270W        W23684  15.467   9.043  12.644  0.1954 -0.0290  0.3365
10271W        W23685   5.063   3.740  11.561 -0.0058  0.0604 -0.1849
10272W        W23686  10.001   8.120   0.626 -0.1249  0.0461 -0.0034
10273W        W23687  12.210   6.753  15.918 -0.0613 -0.1019 -0.0968
10274W        W23688   1.389   8.397   6.238  0.2721 -0.0511  0.2642
10275W        W23689   9.555   9.675   5.675  0.1534  0.2247 -0.0093
10276W        W23690  17.750  16.658   2.369 -0.0916 -0.2719  0.1752
10277W        W23691  15.955  13.502  12.354 -0.1794 -0.1480 -0.1048
10278W        W23692   9.090  15.226  15.112  0.2350 -0.3538  0.1737
10279W        W23693   4.970  14.463   3.177 -0.7145  0.1748  0.2189
10280W        W23694  15.511  10.742  13.504  0.2152 -0.2764 -0.3089
10281W        W23695  11.470  16.995  14.787 -0.2634 -0.1088  0.0269
10282W        W23696   6.255  15.550   2.998  0.0157 -0.0463  0.0785
10283W        W23697  16.507  17.681   3.090 -0.3026  0.0147  0.1016
10284W        W23698  15.868   7.635   5.151  0.0241 -0.1315 -0.0074
10285W        W23699  13.508  11.454  14.339 -0.5125  0.1983  0.1444
10286W        W23700   2.796   0.860  13.111  0.5148  0.0655 -0.1019
10287W        W23701   0.857   1.627   2.659  0.0968  0.1304  0.0876
10288W        W23702  16.088  12.300  15.020 -0.1859 -0.1302  0.0455
10289W        W23703  16.177   5.593   1.228 -0.1229 -0.1540  0.3284
10290W        W23704  13.399   4.767   1.162 -0.2975 -0.3141 -0.0105
10291W        W23705   6.466   7.170   0.667 -0.1673 -0.2662 -0.1816
10292W        W23706   7.722  16.465  12.309 -0.0103 -0.0091  0.2129
10293W        W23707  17.709   7.599   2.233 -0.0089 -0.2461 -0.1151
10294W        W23708  10.403   1.458   5.297  0.2974 -0.0437 -0.0839
10295W        W23709   0.813   6.700   4.341 -0.0423 -0.0239  0.1661
10296W        W23710   4.766   9.571  11.592 -0.1725 -0.1129  0.0042
10297W        W23711   2.416   9.605   5.300  0.0480  0.1938  0.3660
10298W        W23712   3.963   9.849  15.939 -0.2874  0.0146 -0.2130
10299W        W23713   8.060   2.496  13.904 -0.1410 -0.1106 -0.2917
10300W        W23714   8.640  11.570  13.272 -0.0255  0.0510  0.0013
10301W        W23715   8.200   7.912  13.217 -0.1226  0.0885 -0.2048
10302W        W23716  12.940   8.613  13.612  0.2008 -0.0269  0.0904
10303W        W23717   5.735   0.311   1.841  0.0462 -0.0965  0.0807
10304W        W23718  10.818   2.751  15.222 -0.1332  0.4469 -0.1265
10305W        W23719  17.178   3.586   1.234  0.3390 -0.1581  0.0889
10306W        W23720   6.689   5.886  10.421 -0.1300 -0.1827 -0.1902
10307W        W23721  16.377   2.990  15.406 -0.3711 -0.0870 -0.1299
10308W        W23722   2.212   8.808   5.486 -0.0308 -0.0330  0.1264
10309W        W23723   3.377   9.064  11.293 -0.0385 -0.2694 -0.1595
10310W        W23724  16.443   6.501  14.487  0.1343  0.0467  0.0198
10311W        W23725   3.109   4.289   0.613  0.2029 -0.1070  0.3051
10312W        W23726   6.138  13.880   5.188  0.2946 -0.0481 -0.0595
10313W        W23727  16.457  11.424   3.957 -0.0369 -0.1190  0.1652
10314W        W23728  15.614   7.938  16.435 -0.1360 -0.0373 -0.2517
10315W        W23729  13.269  17.948   5.560 -0.4970  0.0236  0.0505
10316W        W23730  17.159   6.594  15.891 -0.2214  0.1363  0.1656
10317W        W23731   2.962   6.053   4.093 -0.3295 -0.1149 -0.0031
10318W        W23732   8.492  18.164   5.442  0.1120 -0.2378 -0.1571
10319W        W23733  17.389  12.636  11.783 -0.1901  0.1108 -0.2711
10320W        W23734  10.447  10.521   4.377  0.0060 -0.0245  0.0084
10321W        W23735   0.667   5.108   2.126 -0.0453 -0.1821  0.0392
10322W        W23736  11.520  12.372   0.386  0.0212 -0.3086  0.0874
10323W        W23737   8.814   2.304  12.841  0.0499 -0.1706 -0.1944
10324W        W23738   1.590   5.289  13.802 -0.0038  0.0320  0.3890
10325W        W23739   6.761   6.521   4.982 -0.2059  0.0468 -0.1792
10326W        W23740   7.431  10.160  12.233  0.1309  0.1479 -0.0153
10327W        W23741   5.301  10.318   6.663  0.1113 -0.3320 -0.0026
10328W        W23742   1.189  11.239  14.485  0.0913  0.3293 -0.0735
10329W        W23743  15.248  15.986  14.127 -0.0400  0.1710  0.3196
10330W        W23744  10.593  13.016  13.214 -0.2264  0.1160  0.0343
10331W        W23745  10.359  13.647   4.605  0.2239 -0.0631 -0.2807
10332W        W23746  11.699   8.979   2.442  0.0063 -0.0052  0.1604
10333W        W23747  17.865  11.371   6.775  0.1982  0.0564  0.2770
10334W        W23748   3.360   3.107  11.426  0.1714  0.1104 -0.0133
10335W        W23749  10.294  13.291   5.386  0.0703  0.1373 -0.2050
10336W        W23750   0.610   0.045  12.990  0.3011  0.0220 -0.0532
10337W        W23751  15.602   9.464  10.803 -0.3389 -0.0947  0.0170
10338W        W23752   0.360   2.967  14.430 -0.2223  0.1054  0.0601
10339W        W23753  15.739   2.958   2.679  0.3670 -0.0163 -0.0522
10340W        W23754   7.061   5.638  12.273 -0.0488 -0.0403 -0.1421
10341W        W23755   3.646   3.934  11.798  0.1978 -0.1490 -0.0103
10342W        W23756   4.952   2.212   5.302 -0.2468  0.0193  0.0309
10343W        W23757   9.208   1.428   1.358  0.3775 -0.0855  0.1304
10344W        W23758   3.199  16.638   5.006  0.2157  0.1032 -0.3109
10345W        W23759  16.695  11.318  13.857 -0.3458 -0.0578 -0.0347
10346W        W23760   4.478   7.776  10.676  0.1623  0.0702  0.0748
10347W        W23761  12.105   2.617  15.079  0.4603  0.0963 -0.0856
10348W        W23762   0.905   1.858  15.026 -0.1437  0.3568  0.0579
10349W        W23763  11.872   1.197   5.345  0.2360 -0.0748 -0.1680
10350W        W23764  10.878  11.753   5.678 -0.2552 -0.2063 -0.1153
10351W        W23765   4.385   9.701  10.589 -0.3609 -0.0660  0.1080
10352W        W23766   9.302  11.828   3.659 -0.2977 -0.1193 -0.0325
10353W        W23767   8.350   2.196   5.140  0.2711  0.0217 -0.0618
10354W        W23768  11.140   3.069  11.247  0.1509  0.1361 -0.0744
10355W        W23769  12.293   9.623   1.850  0.2623  0.1426 -0.0221
10356W        W23770  16.111   1.028  12.965 -0.3882  0.3677  0.1790
10357W        W23771  16.820  13.962  12.940  0.1748  0.0923 -0.2158
10358W        W23772   7.783  14.897   0.964 -0.3323 -0.1810 -0.2590
10359W        W23773  16.010   2.672  14.342 -0.0932  0.1223 -0.0048
10360W        W23774   2.957   0.776  13.574  0.0720 -0.2753 -0.0824
10361W        W23775   9.289  14.905   4.829 -0.1792 -0.1019  0.0182
10362W        W23776   1.456  12.412   5.069 -0.1971 -0.1629 -0.0444
10363W        W23777   8.450  12.522  12.330 -0.1460  0.0274  0.1722
10364W        W23778   5.887  10.709   5.877 -0.0825 -0.1284  0.0611
10365W        W23779   1.190   7.417   5.310  0.0405 -0.0753 -0.2308
10366W        W23780   6.290   4.912   0.925 -0.0240 -0.0349 -0.0234
10367W        W23781   1.459   3.809  11.261  0.1208  0.1929  0.1700
10368W        W23782   3.011  11.760  14.047  0.0701 -0.1431  0.0225
10369W        W23783   2.023  11.041  16.067 -0.1169  0.0339 -0.0329
10370W        W23784  14.859  13.464  12.393  0.2561  0.0515  0.0272
10371W        W23785   8.845   5.204  10.787 -0.1636  0.0878  0.2918
10372W        W23786   2.784   5.763  12.430 -0.1830 -0.2884 -0.2484
10373W        W23787   6.695   2.814  14.449 -0.0785 -0.2079  0.1478
10374W        W23788  10.626   3.846   3.524 -0.3321 -0.2673 -0.1421
10375W        W23789  10.889   2.424   2.166 -0.3030 -0.4425  0.0101
10376W        W23790  15.724   9.321  13.327 -0.1829 -0.1368 -0.1193
10377W        W23791   0.938   2.919  14.186 -0.2086 -0.1069 -0.0334
10378W        W23792  11.306   5.904  15.533 -0.0597  0.0359  0.0677
10379W        W23793   1.226   6.469   6.173 -0.1159 -0.1331 -0.1135
10380W        W23794   4.248  10.245   0.985 -0.0416 -0.1531 -0.0172
10381W        W23795   6.214   7.626   3.055 -0.0877  0.2301 -0.1317
10382W        W23796   0.662  13.497  13.807  0.0294 -0.1842 -0.4935
10383W        W23797   6.220   2.465  14.799  0.0928  0.2400 -0.1143
10384W        W23798  12.103   3.626  15.322  0.0879  0.0482  0.1561
10385W        W23799  14.139  15.351  12.381  0.0644  0.1198 -0.3538
10386W        W23800   6.448   0.149   1.352  0.0652 -0.1111 -0.0254
10387W        W23801   2.767   8.024  11.049 -0.2374  0.2345  0.0045
10388W        W23802   8.687  10.066   5.576 -0.1085 -0.0537  0.1594
10389W        W23803   9.803  17.953  14.952 -0.0626 -0.0415 -0.0076
10390W        W23804   1.392   3.890  12.141 -0.0899 -0.0191  0.1077
10391W        W23805   2.496  15.002  15.561 -0.0131  0.3711  0.0058
10392W        W23806   2.736  10.609   4.283 -0.2192 -0.0170  0.1166
10393W        W23807   6.162  11.922   1.902 -0.2647  0.0906 -0.3051
10394W        W23808   8.960  15.115   4.339 -0.0630  0.0119 -0.0654
10395W        W23809  17.826   7.733   4.328 -0.1633  0.0618  0.1485
10396W        W23810  10.785   9.889  16.323 -0.0381  0.1182 -0.2469
10397W        W23811   2.604   8.329   0.030  0.0950 -0.0807 -0.1437
10398W        W23812  14.581  14.152   5.521 -0.2926 -0.0951  0.1327
10399W        W23813  13.088  17.401   5.479  0.0330  0.3659 -0.3462
10400W        W23814   8.795  11.903  16.228 -0.0719 -0.0646  0.0944
10401W        W23815  13.986  12.868   0.862 -0.0977 -0.0250  0.1484
10402W        W23816  13.662   8.476   4.400 -0.1425 -0.1485  0.2764
10403W        W23817   9.633  15.477   0.961 -0.1037 -0.4251 -0.2464
10404W        W23818   9.610   8.666  10.792 -0.0678 -0.2488  0.0347
10405W        W23819   5.554   0.971   0.807 -0.2759 -0.0703 -0.0528
10406W        W23820   1.811  10.557   3.347  0.1664 -0.2788 -0.0529
10407W        W23821  13.232  12.691   4.218 -0.0159  0.2003 -0.1261
10408W        W23822  16.755  11.862   5.039 -0.1958 -0.0018  0.1862
10409W        W23823  10.758  16.029  12.256  0.2659  0.0732  0.0657
10410W        W23824  14.459   2.677  14.266  0.0700 -0.1839  0.0721
10411W        W23825  11.035   8.147   5.328  0.0904 -0.1281  0.0708
10412W        W23826  14.782   9.825  15.125 -0.0637 -0.0153 -0.1439
10413W        W23827   1.347  15.389  11.497 -0.2723 -0.2438  0.2172
10414W        W23828   0.448  14.684  15.309  0.1163  0.0167 -0.2860
10415W        W23829  10.167  15.083   5.187 -0.1108 -0.1300 -0.1612
10416W        W23830  14.884   2.062  15.499 -0.3436 -0.3603  0.1488
10417W        W23831   6.909   8.367   0.807 -0.1893 -0.2547 -0.3488
10418W        W23832  15.131   0.727   4.104  0.0970  0.0811 -0.0810
10419W        W23833  11.388   3.458  11.412 -0.0733  0.1342 -0.2203
10420W        W23834   6.627   7.692   1.921 -0.1848 -0.2541  0.2592
10421W        W23835   0.882  13.055  14.788  0.0165  0.4657 -0.0344
10422W        W23836  10.275   4.402  16.434 -0.1235 -0.1310  0.2524
10423W        W23837   4.504   0.516  11.744  0.1008 -0.1469 -0.3315
10424W        W23838   0.706  17.682   0.944  0.0887 -0.4718  0.3841
10425W        W23839  15.449   9.257   4.627  0.0353  0.1153 -0.0962
10426W        W23840   7.411  13.117  10.750 -0.1394  0.0845 -0.2711
10427W        W23841   3.443   4.092   3.898  0.3450  0.3971 -0.0401
10428W        W23842  16.217  11.858   5.008  0.2029  0.0155 -0.0084
10429W        W23843  10.163   8.893  12.881 -0.3021  0.1642 -0.1046
10430W        W23844  16.425   0.861   0.785 -0.0011  0.3723 -0.0956
10431W        W23845  13.314  11.185  13.868  0.3488 -0.1317 -0.4416
10432W        W23846   9.845  16.703   3.228  0.1148  0.0844 -0.6684
10433W        W23847  12.286  11.997   0.951 -0.0001 -0.0005 -0.3902
10434W        W23848   5.708   0.779   3.901  0.1021 -0.0328  0.3073
10435W        W23849  16.076   5.501   2.653 -0.0011  0.1597  0.2451
10436W        W23850   7.250   9.055  14.654  0.3357  0.0330 -0.1074
10437W        W23851   7.144  12.169  13.692  0.4289  0.0902  0.0404
10438W        W23852  14.534  17.885  12.947  0.2477  0.1287 -0.1927
10439W        W23853  16.896   3.614  14.529 -0.0926 -0.0719 -0.2134
10440W        W23854   9.778  10.477  11.058  0.0484  0.0516 -0.0365
10441W        W23855   5.225   4.566  11.030  0.1523  0.2318  0.2748
10442W        W23856  13.757  12.989  13.698  0.1790  0.3669 -0.0468
10443W        W23857   3.388  15.502  15.772 -0.0059 -0.1201 -0.1093
10444W        W23858  18.074  15.706   5.756  0.1508 -0.1821 -0.1947
10445W        W23859   6.418  12.850   1.687  0.0832  0.1222 -0.0986
10446W        W23860   7.653   8.868  13.027  0.3725  0.2055  0.0379
10447W        W23861  12.731   8.820   2.985  0.2813  0.2699 -0.1783
10448W        W23862  14.224   2.854   0.989  0.0933  0.1795  0.0093
10449W        W23863  17.979  13.683  11.483 -0.0371 -0.1290 -0.0667
10450W        W23864   2.682   3.239  11.871 -0.1489  0.1395  0.2954
10451W        W23865   8.541  13.061   4.678 -0.1115  0.1019 -0.3549
10452W        W23866  16.968   7.142  15.054  0.0231  0.1830 -0.0606
10453W        W23867   2.783  13.346  13.144 -0.0627 -0.1728  0.0289
10454W        W23868   4.415   1.524   1.461 -0.1092  0.2979 -0.3105
10455W        W23869   5.464  14.072   0.392 -0.0574 -0.0845  0.2083
10456W        W23870   2.928  12.876  12.328 -0.1382 -0.1769 -0.1321
10457W        W23871   4.039   5.407   3.145 -0.2195  0.2627 -0.0851
10458W        W23872   4.527  10.798  15.404  0.1711  0.1448  0.0352
10459W        W23873   6.920   8.181   3.283 -0.0062 -0.1180  0.2019
10460W        W23874   9.627  10.717   4.233  0.0395  0.1250  0.2232
10461W        W23875  13.707   0.446   2.263 -0.0463 -0.1200 -0.0334
10462W        W23876  14.977   9.557   2.114 -0.1280  0.2945 -0.2936
10463W        W23877   7.085  15.836   3.998 -0.1310 -0.2091 -0.1223
10464W        W23878  11.152  13.211  16.477  0.0258 -0.1478 -0.3739
10465W        W23879   5.758  10.559   1.380  0.0746 -0.0176  0.0354
10466W        W23880   4.004   3.216   0.239 -0.0052  0.0026 -0.1962
10467W        W23881   4.178   6.738  16.350  0.0825  0.0710  0.2126
10468W        W23882   6.307  13.943  15.245 -0.1137  0.1190 -0.0554
10469W        W23883  15.792   4.062   0.299  0.2047  0.0352  0.0946
10470W        W23884  18.244  14.981  13.566  0.0850 -0.1734 -0.0592
10471W        W23885  16.074   5.249  14.300  0.2411 -0.0016  0.1607
10472W        W23886  14.820  11.651  13.132 -0.0057  0.0418  0.1249
10473W        W23887   6.247   1.028   5.217  0.0152 -0.0600 -0.1179
10474W        W23888   2.799   7.471  12.381  0.0339 -0.4957  0.0626
10475W        W23889   0.811  14.071   5.785 -0.0984  0.1806 -0.0135
10476W        W23890   2.241   2.876  14.732 -0.2488 -0.0529  0.2051
10477W        W23891   4.249   4.630  16.493 -0.1955 -0.1157  0.0325
10478W        W23892  11.390  15.241   1.731  0.3242 -0.4984 -0.1799
10479W        W23893   7.369   0.893  13.166 -0.3634 -0.1184  0.0194
10480W        W23894   5.892   1.993  14.738  0.3183 -0.2245 -0.0388
10481W        W23895   5.455   1.140  15.917 -0.0322  0.1782  0.0613
10482W        W23896   7.491  17.594  16.283 -0.0281  0.4959 -0.0528
10483W        W23897   7.872  10.360  12.406  0.0769 -0.3197 -0.0376
10484W        W23898  11.145   2.448  12.986  0.0183  0.1236  0.0809
10485W        W23899   6.886  16.583   4.895 -0.1982  0.1147 -0.2451
10486W        W23900   4.136   4.646   2.686 -0.0446 -0.1311  0.0242
10487W        W23901  13.814   7.135   2.800  0.0583 -0.1916  0.2517
10488W        W23902  17.230   4.679   9.813 -0.0629 -0.2494  0.1953
10489W        W23903   2.500  14.011   0.940  0.4130  0.1335 -0.1813
10490W        W23904  15.531   7.032   4.975 -0.0838  0.0737  0.1785
10491W        W23905   2.342  17.439   5.362  0.0060  0.0392  0.1566
10492W        W23906  17.197  15.398  11.878  0.0661 -0.0712 -0.0237
10493W        W23907   4.709  17.898  16.358 -0.0239  0.1694 -0.2037
10494W        W23908   2.372   9.995   1.109  0.0213  0.2124 -0.0418
10495W        W23909   4.642   1.238   3.184 -0.0248  0.0301 -0.1695
10496W        W23910   4.565  16.140   4.526  0.1803 -0.2717  0.1426
10497W        W23911  11.110   8.350  14.633  0.3409 -0.0169  0.0417
10498W        W23912  11.042   9.886  10.528  0.0433  0.2886  0.1638
10499W        W23913  17.075  10.314  11.816 -0.0203 -0.1180 -0.0431
10500W        W23914   0.263   9.222   1.347  0.0476 -0.1545 -0.0846
10501W        W23915   0.776   4.306   3.349 -0.2797  0.3990  0.1745
10502W        W23916  15.398  17.586   4.909 -0.1290  0.2961 -0.0332
10503W        W23917  11.431  16.601  10.454 -0.0976  0.0606  0.0020
10504W        W23918  12.712  13.158  11.526 -0.0689 -0.1864  0.0738
10505W        W23919   4.497  16.680   4.281  0.0212 -0.0951 -0.1196
10506W        W23920   7.367   5.529  10.957  0.2084  0.0509 -0.4129
10507W        W23921  12.217   2.516  10.410 -0.1019 -0.1012  0.2187
10508W        W23922  18.169  11.022   3.811  0.1367 -0.0421  0.0380
10509W        W23923  11.677  10.711   2.905 -0.1779  0.3751 -0.2396
10510W        W23924   9.028  12.499   1.319  0.0419 -0.5688 -0.4147
10511W        W23925   8.375  17.159   2.661 -0.1271  0.2273 -0.3216
10512W        W23926   9.587  12.553  10.510 -0.1482  0.0658 -0.2265
10513W        W23927  15.717   8.927   4.896  0.1935 -0.3347 -0.0326
10514W        W23928   3.520  13.273   5.610 -0.2714  0.2724 -0.3066
10515W        W23929  13.269  14.560   3.182 -0.0173 -0.0310 -0.4095
10516W        W23930   4.898  15.378   2.577 -0.1705  0.0259 -0.2139
10517W        W23931  10.518   9.257   1.111  0.0923  0.2470 -0.0670
10518W        W23932   6.904   7.239  15.629 -0.1516  0.1973  0.4045
10519W        W23933  10.892  16.178   1.158  0.1308  0.0347 -0.2300
10520W        W23934  13.082  11.185  10.099 -0.1046 -0.2971 -0.1053
10521W        W23935   5.957   7.304  13.155  0.3454 -0.1302 -0.2927
10522W        W23936   9.755   8.983  14.141 -0.0448 -0.1305  0.1538
10523W        W23937   0.484  17.479   0.112 -0.0492 -0.0492  0.0603
10524W        W23938   2.675   6.122  13.109 -0.1951  0.2137  0.1767
10525W        W23939  16.809  11.597   3.515  0.2165  0.0362  0.0333
10526W        W23940   5.058   8.995   1.772 -0.0102 -0.0799  0.1073
10527W        W23941  10.646   8.486   4.590  0.0298  0.1305  0.1690
10528W        W23942  13.523  16.743  15.790  0.2446 -0.0841 -0.1781
10529W        W23943   7.293   0.576  14.832 -0.0219  0.1320  0.1708
10530W        W23944   4.686   8.443   4.444  0.2535  0.0232  0.1099
10531W        W23945   5.107   3.936   2.501  0.2147 -0.1228  0.1826
10532W        W23946   8.137  11.662   3.699  0.2672 -0.1182  0.1510
10533W        W23947   7.701   0.824  14.037 -0.1106 -0.1885  0.4545
10534W        W23948   9.159  14.020  15.343  0.0953 -0.1263  0.1440
10535W        W23949   0.636  15.354   1.022  0.1458 -0.0172 -0.1614
10536W        W23950   6.175  14.508   2.805 -0.1105  0.1057 -0.1612
10537W        W23951   9.008   9.213   5.237  0.0894 -0.2539  0.5282
10538W        W23952   6.339   0.389  15.462  0.0959  0.0741  0.2605
10539W        W23953   3.507  13.196  11.075  0.0229  0.1745  0.2716
10540W        W23954   0.230  17.845   1.182  0.3841  0.4671 -0.2208
10541W        W23955   4.275   6.891  10.728  0.3806  0.4453 -0.1191
10542W        W23956   9.927  11.336  14.884 -0.1770  0.0771 -0.0659
10543W        W23957   6.831   3.960  12.318  0.0095 -0.0256  0.1223
10544W        W23958  11.615  16.753  15.615  0.1372  0.0692  0.1685
10545W        W23959  16.874   6.126   0.030  0.0111  0.0806 -0.0450
10546W        W23960   2.518  15.057  14.225 -0.2359  0.2007  0.1338
10547W        W23961  12.652  10.254   0.639 -0.2757 -0.2063 -0.2945
10548W        W23962   6.747  15.841  13.955 -0.1085 -0.1915  0.0015
10549W        W23963  13.715   2.026   5.658  0.0475  0.2357 -0.1050
10550W        W23964   4.681  12.975   3.449  0.0175  0.3578 -0.0404
10551W        W23965   8.539  10.576   4.232  0.1034 -0.0097  0.0274
10552W        W23966   7.156  10.987  14.733 -0.1320 -0.0131 -0.2296
10553W        W23967   1.088   3.885   1.540 -0.0192  0.1428 -0.1390
10554W        W23968   6.342  12.323  13.641  0.4153  0.0903  0.1042
10555W        W23969  12.109   1.888   3.314  0.1758  0.0025  0.2142
10556W        W23970   4.969  10.222  11.670 -0.1686  0.0871 -0.1964
10557W        W23971   7.010   6.247  13.416 -0.2564 -0.2074 -0.2869
10558W        W23972   5.181  15.641   5.156 -0.0320 -0.1572 -0.0601
10559W        W23973  10.696  14.967   4.014 -0.4082 -0.1989 -0.0156
10560W        W23974  12.896  16.911  15.659  0.1130 -0.0579  0.1288
10561W        W23975   2.930  17.361   6.844  0.3169  0.0915 -0.3007
10562W        W23976   5.537   9.494  11.836 -0.0961  0.1180  0.0832
10563W        W23977   8.111   7.651   1.707 -0.0174 -0.3825 -0.0695
10564W        W23978   9.925   2.923  15.198  0.1991  0.2107 -0.0017
10565W        W23979   3.703   6.480  16.405  0.1812  0.2500 -0.2190
10566W        W23980  15.804   2.053  13.067 -0.3041  0.0840 -0.1232
10567W        W23981   1.960  15.425  14.067  0.2057  0.1618 -0.1195
10568W        W23982  14.609  10.964  15.120 -0.1431  0.2216  0.1365
10569W        W23983   9.939  15.560   0.545  0.2545 -0.0496 -0.0220
10570W        W23984  10.152   4.320   1.725  0.0003 -0.3112 -0.1649
10571W        W23985   3.433   1.166  15.935 -0.2757 -0.1007  0.0983
10572W        W23986   6.203  14.390   1.720  0.2997  0.0533  0.1393
10573W        W23987   4.596   6.117   3.625  0.3319  0.0523 -0.0738
10574W        W23988   5.679  12.273   1.571 -0.0645  0.0642  0.0656
10575W        W23989   2.052   6.242  14.806  0.3030 -0.0304  0.1015
10576W        W23990   4.935   4.272  15.298  0.2001  0.0156 -0.4797
10577W        W23991  13.689   6.763   3.631  0.1781 -0.0151  0.0114
10578W        W23992  10.972  12.005   3.669 -0.1388 -0.3479 -0.0109
10579W        W23993  14.444   4.638  15.905 -0.2120 -0.3063  0.1266
10580W        W23994  16.434   3.893  12.946  0.2146 -0.2470  0.2868
10581W        W23995  14.650  17.030   5.262  0.3262 -0.0905  0.1325
10582W        W23996  17.447   0.801   5.203  0.1201  0.3088 -0.0483
10583W        W23997   8.460   6.000  10.394 -0.1111 -0.2055  0.2442
10584W        W23998   9.890   7.042  12.927  0.1472 -0.1794  0.1888
10585W        W23999  13.690   4.334   3.498  0.0273 -0.0308  0.1443
10586W        W24000   5.512  10.782   4.298  0.3064 -0.2490  0.2559
10587W        W24001   2.457   6.571   4.970  0.2792 -0.0722  0.0792
10588W        W24002   1.932   1.068   0.578 -0.1110 -0.1427 -0.0235
10589W        W24003   1.337   0.606  11.609 -0.0992 -0.0662 -0.1397
10590W        W24004  16.367   8.147   1.834 -0.0214 -0.2423  0.0053
10591W        W24005  14.767  11.180   3.641 -0.0303  0.0998 -0.1871
10592W        W24006  11.841   7.180  15.061 -0.0293  0.1919 -0.1560
10593W        W24007  18.220   9.200   4.181  0.4192  0.0205  0.1475
10594W        W24008   0.310   3.588   5.062  0.0533  0.3803 -0.3808
10595W        W24009   0.624  17.116  11.190  0.0164  0.0820 -0.0111
10596W        W24010   3.371   6.627  12.248 -0.2738  0.2521  0.1957
10597W        W24011   0.288  13.089  15.675 -0.1730  0.0936  0.0634
10598W        W24012  13.373   2.350   0.476 -0.1301 -0.0322 -0.1525
10599W        W24013   9.631  14.166   5.502  0.1156 -0.2073 -0.0142
10600W        W24014  11.708  12.665   3.549  0.2386 -0.0405  0.2527
10601W        W24015  17.480  13.280   5.437  0.1107 -0.2361 -0.1749
10602W        W24016  10.666   1.110   6.334  0.0888 -0.1293  0.1228
10603W        W24017  16.941   3.290  11.243 -0.2858 -0.3275  0.0020
10604W        W24018   8.457   1.355  10.931 -0.4948 -0.1728  0.2853
10605W        W24019   4.311   8.569   4.800 -0.0953  0.1403 -0.3518
10606W        W24020  17.018   7.953  11.996 -0.1293  0.0075  0.1435
10607W        W24021  14.407  12.704  14.760 -0.0737  0.2713  0.2466
10608W        W24022   4.889  13.901   2.092 -0.3599 -0.0129 -0.3151
10609W        W24023   3.408   7.673  15.543 -0.4078  0.0104  0.0159
10610W        W24024   1.503   1.974   0.424 -0.1322 -0.1606  0.0402
10611W        W24025   4.835   0.885  10.980  0.0974 -0.1031 -0.1536
10612W        W24026   4.697   9.461  12.440  0.0218 -0.1887  0.3330
10613W        W24027   1.862  14.087   2.563  0.2953  0.1744 -0.0150
10614W        W24028  11.913   7.567   0.730  0.0578 -0.3414 -0.1442
10615W        W24029  16.637   2.226   2.621 -0.2265  0.0067 -0.0878
10616W        W24030   7.924   8.045  14.453 -0.1268  0.4778 -0.0624
10617W        W24031  10.587  14.746  16.168 -0.0761 -0.1198 -0.1573
10618W        W24032   1.175  14.545   2.954 -0.1980  0.2843 -0.1592
10619W        W24033  12.182   0.351  14.484 -0.1067 -0.4441 -0.0962
10620W        W24034  13.118  17.359  12.385  0.0516  0.1170 -0.0553
10621W        W24035  12.785  17.255   2.040 -0.2880 -0.0118 -0.3046
10622W        W24036  15.387  11.197   2.008  0.0869 -0.0557 -0.1979
10623W        W24037   4.950   9.666   5.086 -0.1609  0.0443  0.1830
10624W        W24038   0.041   4.656   1.044  0.2602  0.0195  0.1448
10625W        W24039   4.347  11.973   0.373  0.1546 -0.1086  0.0520
10626W        W24040   1.863   3.387   2.769  0.1816 -0.3024 -0.1645
10627W        W24041  16.719  17.771   1.797 -0.1760  0.0953 -0.0034
10628W        W24042   4.387   3.518   3.012 -0.5623 -0.1839  0.1540
10629W        W24043   7.249   1.431  13.041 -0.3748 -0.3366  0.1626
10630W        W24044   5.328  16.561   4.319  0.0173  0.0728  0.1247
10631W        W24045   9.604   3.359  14.391 -0.0492 -0.0361  0.2234
10632W        W24046   7.972   5.753  12.826  0.0125  0.1497 -0.1427
10633W        W24047   2.352  11.989   3.665 -0.2476  0.3086 -0.0050
10634W        W24048   2.632   9.062  12.405 -0.3965  0.2895 -0.0685
10635W        W24049   5.728   0.219  15.768 -0.0144 -0.2594 -0.1610
10636W        W24050   1.456  13.821   3.326 -0.2711  0.2966  0.2410
10637W        W24051  14.612   7.895   5.110  0.0658  0.1606 -0.0404
10638W        W24052  13.746  14.423  14.138 -0.0590 -0.0955 -0.0603
10639W        W24053  16.625   6.286  11.744 -0.0184 -0.1969 -0.1801
10640W        W24054  12.716   4.364   3.664  0.1866 -0.0714  0.0694
10641W        W24055   6.029  14.000   5.674  0.1898 -0.2210 -0.2500
10642W        W24056   5.202   1.148   3.946 -0.0065 -0.1512 -0.3418
10643W        W24057  10.108   1.042  15.384  0.2137  0.0757  0.0615
10644W        W24058  16.765   7.909  12.708 -0.1042 -0.2363 -0.2054
10645W        W24059   3.897  18.012  13.145  0.0191 -0.2218 -0.3522
10646W        W24060  14.453  13.228   2.591  0.0692 -0.2020  0.4929
10647W        W24061  11.821  18.067   1.289  0.2694 -0.2506 -0.0856
10648W        W24062   0.978   0.025  15.599 -0.0743  0.0342  0.0823
10649W        W24063   6.778   3.448   5.326 -0.1859  0.0523  0.2464
10650W        W24064  10.211  11.395   1.597  0.0846  0.0237 -0.3775
10651W        W24065   4.239  14.852  10.611  0.1590 -0.0130 -0.1401
10652W        W24066   2.983   4.071  15.019 -0.3155  0.0570  0.1434
10653W        W24067   0.698  12.151   3.124 -0.1526  0.0009 -0.1342
10654W        W24068   5.901   8.666  13.524  0.2620 -0.4084 -0.0548
10655W        W24069   7.042   6.928   3.201 -0.1384 -0.0450 -0.2053
10656W        W24070   8.513   6.792   5.195 -0.1184  0.0911  0.1619
10657W        W24071  12.796   5.772  15.910  0.1702  0.2145 -0.2573
10658W        W24072   0.277   9.008  11.902 -0.0050 -0.0180 -0.1930
10659W        W24073   4.794  18.029  12.357 -0.1330  0.2876 -0.2169
10660W        W24074   4.312   2.849   3.243  0.3163 -0.0709 -0.0673
10661W        W24075   8.829  13.836   4.064  0.2739  0.1042 -0.0319
10662W        W24076   2.682  15.840   3.293  0.0063  0.0429 -0.0485
10663W        W24077  12.630  16.872  11.194  0.1540 -0.2984  0.0201
10664W        W24078   5.457   4.129  12.378 -0.1821 -0.3131  0.1005
10665W        W24079  12.979  10.132  12.041 -0.2347 -0.2726  0.0918
10666W        W24080   8.392   1.403  14.601  0.1496 -0.1267  0.3371
10667W        W24081  12.738   8.043  11.597 -0.3182 -0.0654  0.1406
10668W        W24082  16.879  10.957  13.555 -0.0745  0.2237  0.4368
10669W        W24083   1.524   9.885   2.355  0.1634  0.1078  0.1896
10670W        W24084  16.377  16.255   5.760  0.3530 -0.0824  0.3216
10671W        W24085   7.008  17.654   0.386  0.0021 -0.1632  0.0330
10672W        W24086   6.261  15.712   1.824  0.0661  0.1199 -0.0218
10673W        W24087  18.200  14.627   4.951  0.2599  0.0631  0.3086
10674W        W24088  16.704   8.594   4.133  0.0780 -0.1352  0.0022
10675W        W24089  13.099  10.619   5.699 -0.0208 -0.0362  0.1904
10676W        W24090  12.358  11.767   6.427  0.0761 -0.2745  0.0281
10677W        W24091  12.113   9.990  11.832  0.0631  0.1786 -0.3865
10678W        W24092  13.875   2.557   3.909  0.2446  0.0808 -0.2362
10679W        W24093   9.311  14.719   4.327  0.0797 -0.0147 -0.2961
10680W        W24094   8.560   2.283   0.912 -0.0314  0.0224  0.4716
10681W        W24095   7.073   9.396  12.038 -0.3283  0.2899  0.1246
10682W        W24096   3.006  15.897  13.855  0.0123  0.0851 -0.2905
10683W        W24097  11.323   1.046   1.113 -0.1766 -0.1247  0.2012
10684W        W24098   0.951  15.442   0.017  0.3102 -0.2037  0.1186
10685W        W24099  15.357   9.826   5.792  0.1397  0.1607 -0.1168
10686W        W24100  12.857  14.528   2.949  0.1798  0.2005 -0.1325
10687W        W24101   5.388  16.111   3.947 -0.0211 -0.0470 -0.1089
10688W        W24102   3.482   9.576  10.969  0.1459 -0.1068  0.1372
10689W        W24103   9.547   7.117   3.976  0.0907  0.3764  0.1358
10690W        W24104  11.909   9.557  12.626 -0.0346 -0.1148 -0.0320
10691W        W24105  12.699  13.242  12.736  0.0664  0.0794  0.1333
10692W        W24106  13.753   0.210  15.418  0.0311 -0.0900 -0.0592
10693W        W24107   0.471  16.032  14.170 -0.1942  0.0837  0.0134
10694W        W24108   9.972  12.076  11.160  0.1632  0.0447  0.0648
10695W        W24109  14.901   5.183   9.785  0.1167 -0.3309  0.2090
10696W        W24110   8.920   7.932   2.558  0.1560 -0.3723 -0.0292
10697W        W24111   1.073  17.959  15.104 -0.0479 -0.2488  0.0522
10698W        W24112   7.347  14.775   6.326  0.2318 -0.0473  0.0196
10699W        W24113  10.937  11.080   2.633  0.0242  0.2854 -0.0346
10700W        W24114   4.208   7.341  15.324  0.1698  0.0138 -0.0551
10701W        W24115   1.439   0.009   1.365 -0.1215  0.1613  0.3089
10702W        W24116   0.905  13.722   2.483  0.0866 -0.0904 -0.0148
10703W        W24117  15.483   5.957  15.166 -0.0995 -0.1174  0.0806
10704W        W24118   7.460  14.266  12.554  0.0190  0.0212  0.0231
10705W        W24119   8.822  14.641   2.412  0.0426  0.4083  0.0186
10706W        W24120   0.116   5.294  12.741 -0.2593 -0.1370  0.2541
10707W        W24121   1.603  16.926  16.156 -0.1279 -0.0296 -0.0423
10708W        W24122   5.190   4.458  16.044 -0.0999 -0.1700 -0.3139
10709W        W24123  11.800   7.412  10.925  0.1039  0.2098 -0.0746
10710W        W24124  11.690   1.597  12.355 -0.2381  0.1544 -0.2252
10711W        W24125   8.594   7.026  14.732  0.0395  0.1676 -0.0318
10712W        W24126  16.728   4.437  11.844  0.2006  0.1432 -0.1310
10713W        W24127   3.725   9.848   4.494  0.0376  0.0189  0.3009
10714W        W24128   6.226   1.114   0.220  0.2178  0.3065  0.2167
10715W        W24129   5.688   1.404  14.451  0.1679  0.1078  0.0414
10716W        W24130   2.421   2.307   4.922 -0.0462  0.1515 -0.1468
10717W        W24131   7.369   3.752   6.396 -0.2563  0.0202 -0.2893
10718W        W24132   1.391   4.817   5.377  0.1503  0.0477  0.1025
10719W        W24133  15.149   4.082   2.239 -0.5103  0.0892  0.1122
10720W        W24134   5.474   2.269  14.891 -0.0228  0.2257 -0.1575
10721W        W24135  11.683   1.813   4.596 -0.0674  0.0110  0.1182
10722W        W24136   8.339   3.327  15.765  0.1549  0.0473  0.1093
10723W        W24137   8.324  15.653  10.448  0.3232  0.3169 -0.1674
10724W        W24138  11.161   5.132   3.821  0.0011 -0.0127 -0.3455
10725W        W24139   6.672   1.068  13.815 -0.0662 -0.2451  0.0236
10726W        W24140   3.580   3.185   1.649 -0.0287 -0.0503  0.0829
10727W        W24141  14.433  13.711  14.902 -0.1332  0.2287  0.3374
10728W        W24142   8.787   9.966  15.392  0.0243  0.2550 -0.1555
10729W        W24143  13.870  12.422   4.854  0.0322 -0.0561  0.2115
10730W        W24144   7.985  12.813  14.697  0.0739 -0.0205  0.0848
10731W        W24145   7.567   6.865   4.830  0.1177  0.1350 -0.1693
10732W        W24146   7.722  13.097   2.132 -0.2341  0.1040  0.3322
10733W        W24147  13.683  14.163  15.535  0.0889 -0.1758 -0.0862
10734W        W24148  16.895   7.812  15.606 -0.0378  0.3081 -0.2280
10735W        W24149   3.509  13.627   3.042  0.0192 -0.2158  0.1986
10736W        W24150  14.481   9.570  16.003 -0.3866  0.5835  0.2550
10737W        W24151   3.681   5.883   0.575  0.1960  0.4309 -0.0956
10738W        W24152  13.969   9.160  10.316 -0.0266 -0.0983 -0.3369
10739W        W24153   6.390  15.498  12.026 -0.0922  0.0787 -0.1987
10740W        W24154   8.110   3.702   5.328  0.2938 -0.1196 -0.3635
10741W        W24155   6.687   4.856   4.980 -0.0061 -0.0717 -0.2054
10742W        W24156   5.006   7.775   4.498 -0.1851 -0.1409 -0.2525
10743W        W24157  12.762  14.853  12.462 -0.0768  0.2511  0.0177
10744W        W24158   7.356  15.741  15.777 -0.3429 -0.3157 -0.0807
10745W        W24159  11.641   7.557   3.767 -0.0705 -0.0362 -0.1277
10746W        W24160   3.844   5.657  12.092  0.0950  0.0342  0.0240
10747W        W24161  12.260  17.476  11.018  0.1614  0.1337 -0.1758
10748W        W24162  12.698   1.562   2.514  0.2440  0.0361 -0.1797
10749W        W24163  12.963   1.710  11.540  0.1259 -0.2186  0.0387
10750W        W24164  12.843  10.571  10.445  0.1212 -0.1007 -0.1278
10751W        W24165  11.096   8.395  15.494 -0.0941  0.0052 -0.2899
10752W        W24166  17.871  10.002   6.401 -0.0412 -0.0181 -0.0719
10753W        W24167  15.831   4.523  14.243 -0.1172  0.3369 -0.1259
10754W        W24168   6.646   6.550   5.591  0.1271  0.2840 -0.0658
10755W        W24169  16.559   5.922   9.765 -0.0166 -0.1002  0.2410
10756W        W24170  14.108  12.561   1.281  0.0752  0.0905  0.0608
10757W        W24171   8.898   0.611   1.487 -0.1669 -0.1059 -0.1181
10758W        W24172  12.857   2.009  13.158 -0.0395 -0.3680  0.1702
10759W        W24173   1.000   3.220   3.950  0.0270  0.2175  0.1419
10760W        W24174   5.557  13.717   4.124 -0.1363 -0.0371 -0.1086
10761W        W24175   5.491   8.609  16.150 -0.0511 -0.1542  0.0123
10762W        W24176   8.872  13.420   3.783 -0.0352  0.2215  0.1773
10763W        W24177  14.478  15.546   4.181  0.0477  0.0032 -0.1727
10764W        W24178  13.386  12.124   4.202  0.1811 -0.0524 -0.0302
10765W        W24179   3.545   7.606  14.627 -0.2494 -0.0073 -0.1275
10766W        W24180   7.099   0.861   0.145 -0.0910  0.2774  0.2018
10767W        W24181   6.590   2.767   3.561 -0.0728 -0.0353 -0.1262
10768W        W24182  10.385  17.971  11.597 -0.1077 -0.1673  0.1397
10769W        W24183   5.563   1.997  11.498  0.1049 -0.3892 -0.1383
10770W        W24184   2.017   5.192   0.284  0.0736  0.1471  0.1148
10771W        W24185  16.108  14.236  15.388 -0.1418 -0.0656  0.2844
10772W        W24186  16.875  10.391  12.718 -0.1993 -0.3543 -0.4076
10773W        W24187  18.025  14.225   3.075 -0.3886  0.0119  0.1301
10774W        W24188   4.520  12.922   5.428 -0.0501  0.1432 -0.1970
10775W        W24189   3.590  11.879   5.635  0.4220  0.0512  0.1954
10776W        W24190  15.824   4.927   1.693  0.1039 -0.1800  0.2822
10777W        W24191   4.829   1.301   2.660 -0.1457  0.3118 -0.2002
10778W        W24192  11.225   1.088  15.519 -0.1890  0.2470  0.1844
10779W        W24193  17.598  10.932  16.023 -0.0312 -0.0621 -0.2015
10780W        W24194  13.796   3.691  14.609 -0.1597  0.1928 -0.0130
10781W        W24195  11.538  15.960  12.997  0.0248  0.0139 -0.1079
10782W        W24196  17.057  17.812  12.704 -0.0407  0.0048 -0.2116
10783W        W24197  13.920  10.880  13.585  0.0759 -0.1314  0.0697
10784W        W24198   7.840  10.956   3.140 -0.2059  0.1071  0.0186
10785W        W24199   8.481   2.018   3.988 -0.0171  0.1511 -0.1736
10786W        W24200  18.126   7.410  16.339  0.1316 -0.2143 -0.0835
10787W        W24201  10.244   5.133   2.880 -0.1600  0.1591  0.0412
10788W        W24202   4.468   8.820   4.222 -0.1720 -0.0774 -0.2659
10789W        W24203  17.006  12.184   2.441 -0.1759  0.1122 -0.0472
10790W        W24204  13.234   3.094  15.334  0.1400 -0.3309  0.0184
10791W        W24205   0.038  13.505   0.583 -0.1099  0.0560  0.0354
10792W        W24206  17.196   6.157   2.775  0.0295  0.1636  0.0284
10793W        W24207   6.232   6.265   5.772  0.0523 -0.0725  0.0041
10794W        W24208   0.839  12.415   0.653 -0.0536  0.0514 -0.0968
10795W        W24209   7.321  17.664   2.149 -0.5310 -0.1787  0.0830
10796W        W24210  15.172   7.068  10.490 -0.2771 -0.1201  0.0139
10797W        W24211   9.163  12.621   3.150  0.0754 -0.0411 -0.0907
10798W        W24212   4.952   5.932   0.771 -0.0807  0.1245  0.1724
10799W        W24213   7.903  14.263   0.258  0.0984 -0.1420  0.0514
10800W        W24214   0.632   1.947   5.936 -0.0126  0.0722  0.1613
10801W        W24215  12.946   6.633  14.477 -0.0716  0.2364  0.0252
10802W        W24216   0.212  11.384  14.113  0.3596  0.0076  0.3095
10803W        W24217   4.293   4.939   3.110  0.3211 -0.0670 -0.1671
10804W        W24218  11.975   9.036  12.840  0.3937  0.1474 -0.1501
10805W        W24219  10.083   8.616   3.364  0.4846 -0.0479 -0.1154
10806W        W24220  16.280  16.605  14.697  0.2794  0.3189 -0.0713
10807W        W24221   2.416  11.973  14.600  0.1437 -0.1555  0.1076
10808W        W24222   7.467  13.379  10.309  0.1264  0.4349  0.0380
10809W        W24223   3.021   0.654   6.223  0.1443 -0.0067  0.5491
10810W        W24224  15.544  16.931   4.916  0.0133  0.2643 -0.0290
10811W        W24225  10.066   4.459   4.929  0.3847  0.1480 -0.2469
10812W        W24226  14.483   3.627  15.195 -0.0227  0.0186 -0.2200
10813W        W24227   5.073   1.545  16.464  0.0418 -0.1226  0.5766
10814W        W24228  15.197   8.254   3.170  0.0733 -0.0782 -0.2931
10815W        W24229  17.471   5.711  14.945 -0.1369 -0.0432 -0.0982
10816W        W24230   9.730  16.205  13.455 -0.1264  0.4060 -0.3071
10817W        W24231   7.425  18.121   2.436 -0.2111 -0.1222 -0.1476
10818W        W24232  14.877   2.069   4.537 -0.0403 -0.0770  0.1434
10819W        W24233   5.311   7.286   0.032  0.0634 -0.0056  0.2993
10820W        W24234   0.675  15.148  15.263 -0.4226 -0.1278 -0.1157
10821W        W24235  13.290   6.879  12.818  0.3266  0.2687  0.2113
10822W        W24236  12.420   7.305  13.797 -0.1729 -0.1413 -0.1127
10823W        W24237  16.561  13.161  14.272 -0.1141  0.0919 -0.0195
10824W        W24238  11.193  13.587   2.307 -0.0533 -0.0829  0.2437
10825W        W24239   1.630   9.539   4.192  0.0017  0.1788  0.2700
10826W        W24240  16.756  14.720  16.006  0.1526  0.2389 -0.1013
10827W        W24241   5.921  14.382  13.704  0.1154  0.0498  0.1113
10828W        W24242   6.146   1.517   6.457  0.1333 -0.0329  0.4272
10829W        W24243   6.098   5.123   2.108  0.1528  0.1987 -0.1113
10830W        W24244  12.708  14.286  12.653 -0.0237 -0.3312 -0.1087
10831W        W24245   1.618   5.524   3.769 -0.0810 -0.0527 -0.1149
10832W        W24246   8.774  12.309  14.407 -0.0181  0.0521  0.1914
10833W        W24247  12.971  17.629   5.925  0.1100 -0.0651 -0.2229
10834W        W24248  10.496   0.831  15.531 -0.0973  0.0346  0.1019
10835W        W24249   2.802   1.951   4.792  0.1653 -0.1414 -0.0501
10836W        W24250  17.590  15.816  15.084 -0.2374  0.0079 -0.1292
10837W        W24251   9.478  17.563   3.227  0.1898  0.0850 -0.1968
10838W        W24252   1.403  14.262  12.367 -0.1717  0.2797  0.3231
10839W        W24253   0.307  18.085   4.040 -0.3523  0.0743 -0.1078
10840W        W24254   2.028  14.536  13.628 -0.2087 -0.1194 -0.0428
10841W        W24255  13.195  16.830   5.437 -0.1358 -0.0641  0.0673
10842W        W24256   2.766  18.256  10.676  0.1959 -0.0630  0.0822
10843W        W24257   8.605   6.498  14.002 -0.1996 -0.0470  0.0009
10844W        W24258   3.165   6.065  12.266 -0.1381 -0.0081  0.0996
10845W        W24259   2.712  13.226   0.802  0.1309 -0.1602 -0.0908
10846W        W24260   5.390  12.359  15.219 -0.1523 -0.0690  0.0355
10847W        W24261  18.222  16.946   2.490 -0.0663 -0.0497  0.0293
10848W        W24262  15.943   6.925  13.676  0.1549 -0.2368  0.2227
10849W        W24263  12.233   5.398  13.135  0.1630 -0.1582 -0.0548
10850W        W24264   3.149   0.419  11.329 -0.1038 -0.1496  0.2913
10851W        W24265   6.671  15.403  13.540  0.1403  0.0454  0.1414
10852W        W24266  16.369   8.186  14.440 -0.1401 -0.0169 -0.2137
10853W        W24267   5.600   3.255   4.264  0.2274  0.2051  0.3742
10854W        W24268   8.417   8.305  14.414  0.2371  0.3788 -0.2821
10855W        W24269  11.756   3.805  13.665  0.1349 -0.1210 -0.0114
10856W        W24270  15.212   6.419   1.742  0.1063 -0.2651 -0.0346
10857W        W24271  13.430  14.766  16.271  0.0590  0.1958 -0.0041
10858W        W24272   3.232   6.450  16.251 -0.2197 -0.0784 -0.2614
10859W        W24273  12.688  12.955   2.362 -0.1119  0.0354  0.1145
10860W        W24274  12.714  15.509   3.528 -0.3286  0.0719 -0.3345
10861W        W24275   7.336   6.485  12.095  0.1256  0.1760 -0.2518
10862W        W24276   1.933   3.641   1.136 -0.1450  0.2122  0.0481
10863W        W24277   1.238  10.773   6.646 -0.1190  0.1731  0.1270
10864W        W24278   5.992   7.401  14.219 -0.1036 -0.1757  0.0056
10865W        W24279   0.317  10.853  14.275 -0.2329 -0.0176 -0.0861
10866W        W24280   6.395   0.043  11.027 -0.0212 -0.0395  0.0190
10867W        W24281   7.377  14.439  14.811 -0.3191  0.1177  0.2020
10868W        W24282   0.678  11.063   0.663  0.1091 -0.1648 -0.1756
10869W        W24283  13.035   7.852   0.339  0.0647  0.1754 -0.0475
10870W        W24284  16.143   6.816   3.532 -0.1591  0.2805 -0.0888
10871W        W24285   4.428  11.762   2.691  0.1953 -0.1100  0.3506
10872W        W24286  14.166  11.345  16.104 -0.0468 -0.3843  0.2039
10873W        W24287  17.643  10.689   5.581 -0.0686  0.0459 -0.3836
10874W        W24288   4.801   0.240  15.449  0.0048  0.0144 -0.0176
10875W        W24289   0.400  17.900  12.240 -0.3603 -0.0134 -0.0700
10876W        W24290  15.002   4.247  15.949  0.0534 -0.0497 -0.3352
10877W        W24291   7.598  11.576  15.698 -0.0151  0.0839  0.0899
10878W        W24292   4.743   7.774   2.290  0.1261  0.0725 -0.0964
10879W        W24293   5.666  16.333  11.052 -0.0389 -0.1327  0.0937
10880W        W24294  16.239   2.128  15.086  0.1060  0.1613  0.1854
10881W        W24295  10.328   2.183   4.351  0.0306  0.0195  0.0930
10882W        W24296  11.608  11.627   5.257 -0.3390  0.4599  0.0875
10883W        W24297  15.731   7.295  11.788  0.1653 -0.1867 -0.1362
10884W        W24298   0.401   5.297  13.130 -0.0719 -0.3377  0.2662
10885W        W24299   2.361  10.824   3.982  0.0218 -0.1799  0.3526
10886W        W24300  10.774   3.395  10.758  0.1450  0.0070 -0.3445
10887W        W24301  15.994   7.378  10.101 -0.1588  0.2350 -0.0240
10888W        W24302  16.885  14.908  14.091 -0.1720 -0.0522 -0.0465
10889W        W24303  13.401   1.983   5.264  0.0950  0.0993  0.1484
10890W        W24304  13.483  17.714  14.304 -0.0170  0.0327 -0.1314
10891W        W24305  17.581  18.181  16.451 -0.2185 -0.0399 -0.2694
10892W        W24306   6.629  14.635   3.691 -0.3269 -0.1617  0.1642
10893W        W24307   1.356  12.602   6.101 -0.2652  0.2847 -0.2706
10894W        W24308  10.696  16.060  11.448  0.2409  0.1270 -0.1878
10895W        W24309  16.510   2.948   5.427  0.4704  0.2105  0.1651
10896W        W24310   3.823   0.511   2.205  0.0563  0.1247 -0.0470
10897W        W24311   2.436  16.178  12.796  0.4423 -0.2741  0.1052
10898W        W24312  10.413  16.314   3.799  0.1244 -0.1741 -0.0911
10899W        W24313   9.465  12.223  15.218  0.4039 -0.3001  0.2486
10900W        W24314  12.941   0.671   1.402  0.2818 -0.2364 -0.2583
10901W        W24315  18.163  12.522   3.103  0.1298 -0.2375  0.0790
10902W        W24316  17.593   2.672   2.581  0.0090 -0.1521 -0.1606
10903W        W24317  12.062   4.683  10.351 -0.2303  0.0588  0.0657
10904W        W24318  12.415  16.130  13.454  0.1061 -0.1413  0.2190
10905W        W24319  10.069  15.783  10.611 -0.1549 -0.0127 -0.0783
10906W        W24320  15.706  17.195  14.575 -0.0072  0.0164 -0.1770
10907W        W24321   3.461   0.084   5.643  0.1904  0.1767  0.0536
10908W        W24322   5.777   0.298  15.305 -0.0758 -0.0888  0.0817
10909W        W24323  12.927   3.039  12.390  0.0131  0.0054  0.0189
10910W        W24324   8.414  16.503   3.632 -0.1236 -0.1691 -0.0447
10911W        W24325   0.506  10.546   6.243  0.2276 -0.0201  0.0348
10912W        W24326  15.386   8.856   0.221  0.1129  0.1332  0.1192
10913W        W24327   2.925  11.944   2.842  0.2452 -0.0937  0.0232
10914W        W24328  14.355   5.111   0.395  0.0178  0.2453  0.0253
10915W        W24329   2.999  10.641  15.666  0.0671 -0.3211 -0.3202
10916W        W24330   3.250  16.226   5.419  0.3141  0.1682  0.0898
10917W        W24331   5.588   6.055   5.192 -0.3677  0.0951 -0.0698
10918W        W24332  12.656   4.770  11.547 -0.1226  0.0245  0.1305
10919W        W24333  14.009   1.160  13.035  0.2313 -0.1184 -0.0558
10920W        W24334   3.459   9.482  12.313 -0.0300  0.1404 -0.1348
10921W        W24335  12.159   7.838  13.108 -0.1549  0.1223 -0.1289
10922W        W24336   2.553   6.382   4.004  0.0518 -0.1193 -0.0153
10923W        W24337  10.667  13.270   3.146 -0.0924 -0.4140 -0.1896
10924W        W24338   4.486   4.782  11.658  0.0674 -0.0846 -0.0092
10925W        W24339  14.488  17.256   3.205  0.1690 -0.0561  0.0933
10926W        W24340   6.126  12.154  14.658  0.5239  0.1579  0.2110
10927W        W24341   4.940   6.915   4.196  0.0384  0.0444 -0.2284
10928W        W24342   1.915  15.265   3.008 -0.1423  0.0732 -0.0155
10929W        W24343  17.456   1.341   4.541 -0.0377 -0.0091 -0.1035
10930W        W24344  14.146  15.705  13.067 -0.0516  0.0242 -0.1222
10931W        W24345  12.655  16.215   1.742  0.2423  0.0657  0.4735
10932W        W24346   3.051  12.190  13.444 -0.1689  0.0885 -0.0221
10933W        W24347   5.174   7.854   1.833  0.1219  0.2062  0.2644
10934W        W24348  17.581   4.141   0.940 -0.4292  0.0127 -0.0152
10935W        W24349  14.854   6.061   1.931 -0.0271  0.0593 -0.3061
10936W        W24350   2.104  15.350  15.483 -0.0588 -0.3505  0.1047
10937W        W24351  12.167   8.430   2.162  0.0159 -0.2220  0.1260
10938W        W24352  10.114  12.737   1.811  0.1978 -0.0118 -0.2431
10939W        W24353  10.387  11.941   4.485  0.0079  0.0219 -0.2665
10940W        W24354  14.816  14.147  11.698  0.1056 -0.1197 -0.1795
10941W        W24355  13.408   6.038  11.340  0.0064 -0.1770  0.0288
10942W        W24356  14.378  17.554  14.142  0.0557 -0.3616 -0.1528
10943W        W24357  15.647   5.741   4.273 -0.0914  0.1792  0.4311
10944W        W24358  14.237   1.089  12.581  0.3381 -0.1699  0.1302
10945W        W24359   1.698  10.724  16.248  0.2006 -0.0969 -0.3909
10946W        W24360   0.894   7.910  11.428 -0.0701 -0.1003 -0.1872
10947W        W24361   6.626  13.635  11.857  0.2688  0.3656 -0.1015
10948W        W24362   6.243   9.807  15.748  0.1871  0.5154  0.0585
10949W        W24363   6.311  13.958   3.325 -0.3268  0.1992 -0.1522
10950W        W24364   5.738  16.747  11.452 -0.0169  0.0275 -0.4078
10951W        W24365  12.766   4.122  13.913 -0.0411  0.0530  0.1728
10952W        W24366  12.455   9.869   2.246 -0.1591 -0.2317 -0.2220
10953W        W24367   7.828   7.523  12.685  0.0351  0.1258 -0.0886
10954W        W24368  12.528  17.592   4.708 -0.0767  0.1003 -0.1740
10955W        W24369  17.666   7.743   3.846 -0.1778 -0.0144 -0.0013
10956W        W24370   1.375   2.110  14.544 -0.1630  0.2582  0.1756
10957W        W24371   6.885  10.392  15.373 -0.2975  0.1363 -0.4009
10958W        W24372   0.493   6.998   1.885  0.0175  0.0057  0.1297
10959W        W24373   3.612   3.758  15.036  0.0429 -0.0068  0.0698
10960W        W24374  16.604   6.625  12.429 -0.1192  0.1948  0.2682
10961W        W24375   6.814   0.458  14.767 -0.1118  0.0710 -0.1424
10962W        W24376   3.194  14.267   5.113  0.0850 -0.0954  0.0620
10963W        W24377  14.020  16.991   1.821 -0.3590 -0.0103 -0.1211
10964W        W24378   1.453   0.778   1.169  0.2126  0.1989 -0.3503
10965W        W24379   2.481  12.499  14.779 -0.1214 -0.0371  0.1314
10966W        W24380  13.691   2.661   0.806  0.1208  0.0380  0.1876
10967W        W24381  14.811   8.011  12.260 -0.0165  0.1055  0.0008
10968W        W24382  15.643   4.725  16.257  0.1694  0.1661  0.3871
10969W        W24383   2.098   6.856   0.853  0.0184  0.1569 -0.0888
10970W        W24384   8.997  13.384   0.244 -0.3947  0.1657 -0.0092
10971W        W24385   7.194   3.588   0.135 -0.1674 -0.0407  0.1763
10972W        W24386   8.036   9.310   5.789  0.3076  0.4145  0.1009
10973W        W24387  13.462   3.055   5.017 -0.2214 -0.1362 -0.0773
10974W        W24388   8.537   9.117  13.435 -0.0847 -0.1628  0.0925
10975W        W24389   8.182   1.591  14.146  0.1965 -0.2608  0.3120
10976W        W24390  16.686  13.685   0.993  0.1285  0.2467  0.2328
10977W        W24391   9.781   0.423  11.328  0.1872  0.0682  0.0511
10978W        W24392   5.445  17.462  15.802  0.0095  0.0543 -0.0213
10979W        W24393  10.022   4.773   2.537  0.3554  0.4968 -0.0668
10980W        W24394  12.694  13.983   5.015  0.1546  0.2302  0.2082
10981W        W24395   7.641   3.220  16.436 -0.2263 -0.1814 -0.1956
10982W        W24396   3.325   9.572   5.357  0.2724  0.2177 -0.1254
10983W        W24397  14.589  11.598   2.598  0.0230  0.0733 -0.3196
10984W        W24398  11.522   7.672   1.731 -0.0654  0.1041  0.3493
10985W        W24399  17.174  15.731   5.965 -0.0968  0.1933  0.0010
10986W        W24400   6.530  10.059   5.298  0.4129 -0.0451  0.2331
10987W        W24401   9.839   8.528  16.469  0.1019 -0.2304 -0.0611
10988W        W24402  15.055   7.132  11.408 -0.3828  0.1004 -0.2277
10989W        W24403  15.257   3.660  12.254 -0.0078 -0.2857  0.1765
10990W        W24404  13.554   9.940   2.144 -0.1300  0.0192  0.0022
10991W        W24405   8.779   9.812   4.677 -0.0972 -0.1177 -0.0038
10992W        W24406   4.754   3.882  14.846  0.2137 -0.0820  0.0734
10993W        W24407  15.352  17.539  14.018 -0.2536 -0.1545 -0.2564
10994W        W24408  15.875  13.540  10.231 -0.0558 -0.2081  0.1233
10995W        W24409   6.145  15.325   0.237 -0.0135  0.0375  0.0404
10996W        W24410   9.649   1.805   4.712  0.2395 -0.0455  0.0364
10997W        W24411  18.095   5.443  11.823  0.3399  0.2556  0.0274
10998W        W24412   7.153  15.521  10.859  0.2898  0.1660 -0.1205
10999W        W24413   5.883  17.137  13.982  0.4756  0.1223  0.1533
11000W        W24414  14.511   6.310   3.877  0.2359 -0.0549 -0.1344
11001W        W24415  11.249  12.457   3.680  0.2337 -0.1966  0.1592
11002W        W24416  12.994  11.390   1.376  0.0503  0.0699  0.2741
11003W        W24417   0.123   5.127   5.932  0.1121 -0.0673 -0.1983
11004W        W24418   1.020  15.021   1.921  0.1932 -0.0029  0.0080
11005W        W24419   7.303   5.043   0.752  0.1915  0.0086 -0.1212
11006W        W24420   6.205   5.476   1.645  0.1091 -0.0651  0.1121
11007W        W24421   1.972  13.868   1.671 -0.1191 -0.2587  0.3197
11008W        W24422  17.684   9.187  14.811  0.3396 -0.0299 -0.0786
11009W        W24423   1.931   8.664   3.811 -0.1338  0.1247 -0.2267
11010W        W24424  11.472  15.172  15.324  0.3324  0.1246  0.0047
11011W        W24425  11.440   8.866  12.850  0.0783  0.0832  0.1983
11012W        W24426   2.255   9.271  15.262  0.0347 -0.0013  0.0264
11013W        W24427  12.335  16.377   5.657 -0.1214  0.2994  0.3282
11014W        W24428  14.215   0.874   3.093  0.0514 -0.1393 -0.2791
11015W        W24429  12.517   6.287  11.592  0.0642 -0.0017  0.1286
11016W        W24430  16.319  14.159  16.162  0.2895 -0.1092 -0.2475
11017W        W24431   5.390  13.930  13.241  0.0187  0.0098  0.1035
11018W        W24432  12.221   7.641   1.081  0.0986  0.0882 -0.0364
11019W        W24433   6.533   1.836  16.241 -0.1092 -0.2232 -0.1441
11020W        W24434   1.881  11.401  13.739  0.1131  0.1125  0.1366
11021W        W24435  12.487  10.927   4.784 -0.0281  0.0170  0.2673
11022W        W24436   5.150   2.718  10.099  0.0941 -0.0786  0.0121
11023W        W24437   9.972   9.105  13.409 -0.2646 -0.0198  0.0101
11024W        W24438   1.109  10.870  12.838 -0.1823 -0.3322 -0.0209
11025W        W24439   9.268   1.933   0.597 -0.6277 -0.0290 -0.0724
11026W        W24440  11.535   0.287   2.610 -0.4812  0.0516 -0.0374
11027W        W24441   4.812   0.876   2.411  0.1938 -0.0646  0.2972
11028W        W24442   3.572   5.154  12.061  0.0230 -0.1534 -0.0754
11029W        W24443   7.860   7.413  13.320 -0.1922 -0.0486  0.1685
11030W        W24444  15.033   0.126  15.009  0.0485 -0.3024 -0.1167
11031W        W24445  13.016  13.992   1.066 -0.2271  0.0039 -0.0166
11032W        W24446  11.971  11.896   1.844 -0.0203 -0.1429  0.0636
11033W        W24447  12.790   0.968   0.982 -0.0821  0.0002  0.1232
11034W        W24448  13.399  17.121  11.647  0.2508  0.1353  0.1725
11035W        W24449  14.658   6.930  16.093 -0.1651  0.2790 -0.0120
11036W        W24450  17.089   3.160   0.125  0.1164 -0.1920 -0.1919
11037W        W24451   6.208  14.099  13.400  0.0664 -0.2709 -0.0821
11038W        W24452  15.024   8.489   2.602  0.1847 -0.1479 -0.1557
11039W        W24453  13.188  11.324  10.661  0.0274  0.0530  0.0074
11040W        W24454  14.218   5.578  12.336 -0.0905  0.0992 -0.0278
11041W        W24455   8.579  16.285  16.178 -0.1311 -0.0115 -0.1561
11042W        W24456  10.304   5.533  13.682 -0.2881  0.0419  0.2117
11043W        W24457   8.473   7.091  11.716 -0.0097  0.0210  0.0205
11044W        W24458  14.568  13.333  10.304  0.4468  0.2424  0.0116
11045W        W24459   8.447  10.819  14.846 -0.3200 -0.0033  0.0456
11046W        W24460   0.199   9.583   5.011 -0.1492 -0.2434  0.2066
11047W        W24461   5.828   6.793  11.766 -0.2064 -0.1820 -0.1195
11048W        W24462  13.288   3.994  15.059 -0.1075 -0.1239  0.1025
11049W        W24463  16.115   8.176   1.409 -0.1508 -0.1473 -0.0356
11050W        W24464   6.758   8.944   0.519 -0.1301 -0.1428 -0.0525
11051W        W24465  13.341   2.699  15.526 -0.0481 -0.0448  0.1795
11052W        W24466   5.436   2.392  11.784  0.1170 -0.0573  0.0418
11053W        W24467   4.441   7.696   0.181 -0.2282  0.1933 -0.0234
11054W        W24468   2.370   6.725   2.418 -0.2155 -0.3324 -0.3113
11055W        W24469  17.913  17.485  12.471 -0.0579 -0.1062  0.1108
11056W        W24470   8.507   5.053  12.363 -0.2467  0.2521 -0.0881
11057W        W24471   6.191  17.069   1.922 -0.0426 -0.0557  0.2604
11058W        W24472   2.463  15.117   5.010  0.2695 -0.1979 -0.3963
11059W        W24473   6.976   4.990   1.449 -0.0718  0.4397 -0.1881
11060W        W24474  17.726   1.751  13.938  0.0734 -0.0204  0.2277
11061W        W24475   3.476   0.047  14.606  0.1989 -0.1161 -0.0804
11062W        W24476   8.208  10.656   4.623  0.3685 -0.2026  0.2272
11063W        W24477  11.095   5.031  15.823 -0.0398  0.4445  0.0566
11064W        W24478   5.500  15.492  16.260  0.1589  0.0896 -0.0603
11065W        W24479   4.285   4.114   4.124 -0.0773 -0.0056  0.3388
11066W        W24480   4.780   3.987   1.488 -0.1936  0.0425 -0.2225
11067W        W24481   5.839  17.304   4.891 -0.0139 -0.0350 -0.0314
11068W        W24482  15.826  10.315  14.834  0.1634  0.0127  0.0576
11069W        W24483   1.348  11.431   0.238  0.2147 -0.0480 -0.1264
11070W        W24484  11.260   4.862  14.056 -0.0183 -0.1485 -0.3269
11071W        W24485  15.094   3.379   0.788  0.1087 -0.0548 -0.0137
11072W        W24486   3.758   8.302   6.011 -0.4804  0.1779 -0.0151
11073W        W24487   9.728  14.180   2.474  0.0384 -0.1867 -0.0589
11074W        W24488   1.981  14.411  10.504 -0.1387 -0.1918  0.2673
11075W        W24489   0.621   1.334   1.901 -0.1791 -0.0376  0.2026
11076W        W24490   7.655   7.112  14.198 -0.2801  0.0666  0.0896
11077W        W24491   7.013   8.554   4.553 -0.1140 -0.1266  0.1563
11078W        W24492   6.725   3.609   1.211  0.2145  0.2187 -0.1356
11079W        W24493   3.102  16.390  14.059  0.0592 -0.1561 -0.1725
11080W        W24494   0.883  18.170   6.136 -0.2815 -0.4503 -0.0192
11081W        W24495  16.028   0.485  15.355 -0.2026  0.1190  0.0972
11082W        W24496  11.027   0.073   3.493  0.1683 -0.2003 -0.1263
11083W        W24497   2.883   1.745  14.172 -0.0258  0.1281 -0.2352
11084W        W24498   7.620   0.660   1.804 -0.2151 -0.0631 -0.1592
11085W        W24499  16.106  17.547   6.065  0.1551 -0.0262  0.1523
11086W        W24500  11.140   7.628   5.495 -0.0251  0.2033 -0.0319
11087W        W24501   0.731   3.162   0.330  0.1775  0.2103 -0.1639
11088W        W24502   6.862   2.038  14.220  0.1562  0.4211 -0.1719
11089W        W24503   0.900   8.649   6.197  0.0275  0.0360  0.3015
11090W        W24504  11.657  10.732  16.103  0.3165 -0.2630 -0.1801
11091W        W24505  10.876  10.688   4.147  0.0857  0.0805  0.0527
11092W        W24506  14.782   8.158  14.179 -0.0691 -0.0982  0.0789
11093W        W24507  13.891   1.162  15.338  0.0698  0.1003 -0.0892
11094W        W24508  17.877   0.640   1.738  0.2445  0.0749 -0.1173
11095W        W24509   0.188   3.812  14.817  0.3710 -0.0422  0.0648
11096W        W24510   2.856   4.163  14.554 -0.4357 -0.0725  0.0659
11097W        W24511  10.021  18.067  12.101 -0.2578 -0.1995  0.3451
11098W        W24512   8.452   7.464  14.132 -0.0826 -0.0033  0.0147
11099W        W24513  17.923   7.906   4.787  0.1563 -0.0034  0.1848
11100W        W24514   0.799   6.643  10.939 -0.1434 -0.1419  0.0661
11101W        W24515   6.894   2.486  11.986 -0.0340 -0.2008 -0.1403
11102W        W24516   3.508  12.185   0.297 -0.0335 -0.2089  0.0877
11103W        W24517  15.425  13.195   2.836 -0.1336  0.1236 -0.2065
11104W        W24518   9.142   7.782   4.458 -0.2337  0.1699 -0.1872
11105W        W24519  13.422  12.717  13.064 -0.0859  0.0688  0.0793
11106W        W24520   1.003   5.624   1.509  0.3230 -0.1485 -0.0252
11107W        W24521   2.984  16.763   0.388  0.0128  0.1282 -0.2056
11108W        W24522   3.745   0.955  13.192 -0.2065 -0.1047 -0.3407
11109W        W24523   8.011  15.845  12.318 -0.0620  0.1763 -0.1754
11110W        W24524   3.178  12.752  13.616 -0.1111 -0.1840 -0.3992
11111W        W24525  13.387  18.008  14.650 -0.3814  0.1764 -0.2881
11112W        W24526   1.748   4.077   0.937  0.1368 -0.0950  0.0148
11113W        W24527   3.295   1.765  15.227  0.0022  0.0337  0.2224
11114W        W24528  15.123  14.176  15.086 -0.1196 -0.0830 -0.2256
11115W        W24529   7.612   8.908   4.045 -0.2412 -0.1580 -0.1701
11116W        W24530   8.686   6.101  14.272  0.4248  0.2250  0.1524
11117W        W24531  16.677  16.833   1.130 -0.1722  0.0444 -0.0640
11118W        W24532   2.643   5.686  12.882  0.3068 -0.0782  0.0788
11119W        W24533  10.420   2.270  14.081  0.0205  0.1344  0.1331
11120W        W24534   6.795   0.573   0.513 -0.3251 -0.2684 -0.2145
11121W        W24535   0.122  13.004  12.789 -0.3963  0.0080  0.2462
11122W        W24536  15.585   0.445   0.016  0.2112  0.2578  0.1879
11123W        W24537   7.399   0.793   5.113  0.1014 -0.1426  0.0541
11124W        W24538  16.996   6.916   0.877 -0.0518  0.3323 -0.0190
11125W        W24539   7.219   6.909  13.985  0.0905 -0.1621 -0.0565
11126W        W24540  11.207  12.832   1.343  0.0937 -0.1062  0.4198
11127W        W24541  17.356   9.149  11.185 -0.0163 -0.0808  0.0778
11128W        W24542   0.101   3.174   6.300  0.1092  0.0069 -0.0216
11129W        W24543  11.374  12.872  16.144  0.1513 -0.0912  0.0517
11130W        W24544   3.455   8.568   0.750 -0.2394  0.2484  0.2732
11131W        W24545  15.322  17.487  12.490  0.0686 -0.1157  0.1944
11132W        W24546   8.031  14.919   1.432 -0.2535  0.1378  0.0194
11133W        W24547   5.734   4.991   0.543  0.4313  0.1227  0.0831
11134W        W24548   6.063  11.337   6.447  0.1554 -0.3877  0.1504
11135W        W24549   2.143   2.061  16.162  0.0700  0.1076 -0.3512
11136W        W24550  14.743   8.838  10.743  0.0580 -0.2641 -0.0023
11137W        W24551  10.807   1.792  11.274 -0.0817  0.1788  0.1033
11138W        W24552  15.890  15.875  12.287 -0.0201  0.0317  0.2044
11139W        W24553   0.705   5.045  15.311  0.0461  0.0071  0.0443
11140W        W24554  14.804  15.473   4.558  0.3314 -0.2997  0.0424
11141W        W24555  15.775   1.141   1.665  0.1516  0.1924 -0.2455
11142W        W24556  11.641   8.671   3.253 -0.1229  0.2100 -0.0124
11143W        W24557   7.155   1.812   4.528 -0.2267 -0.0258  0.0762
11144W        W24558  15.606  10.422   4.987  0.1091 -0.0130  0.0604
11145W        W24559  12.008   1.643   0.931 -0.0821 -0.2438  0.0335
11146W        W24560   7.315  11.910  16.460 -0.1361 -0.0593  0.5393
11147W        W24561  11.763   9.826  12.239  0.0863  0.2447 -0.2753
11148W        W24562  16.736   4.862   4.931 -0.0811  0.0847 -0.0111
11149W        W24563   4.624   7.622   4.785  0.2404 -0.3997 -0.1292
11150W        W24564  18.253  10.498  14.589  0.0328 -0.0946 -0.0171
11151W        W24565   3.405  11.345   4.131  0.0488  0.3262  0.1697
11152W        W24566   7.447  14.383   0.472  0.0619  0.3143  0.1520
11153W        W24567   8.836   7.096   6.626 -0.1340  0.2350 -0.0017
11154W        W24568  17.727  10.291   5.133 -0.0192  0.1705 -0.1129
11155W        W24569  14.758   6.226  11.806  0.2170  0.1903 -0.3601
11156W        W24570   4.398   4.320  10.966 -0.1872 -0.1067  0.0006
11157W        W24571  13.299  11.051   4.458  0.1571 -0.1964  0.0112
11158W        W24572  15.885  16.890  12.754  0.1849  0.0854  0.1070
11159W        W24573  10.072  12.292  10.614  0.1501  0.2396  0.0279
11160W        W24574  16.940   1.540   4.783 -0.1616 -0.0743  0.1147
11161W        W24575   0.028  10.313   3.250 -0.0113 -0.0419  0.1016
11162W        W24576  11.123  13.015   0.493  0.0580 -0.4055 -0.0332
11163W        W24577  16.094   5.417   3.384  0.0165  0.0331 -0.0251
11164W        W24578  10.670   4.071   0.694  0.3677  0.0794 -0.1818
11165W        W24579  10.405  15.217   3.304 -0.2874 -0.2045  0.0234
11166W        W24580   7.015   7.291  14.239  0.0493  0.1938 -0.0261
11167W        W24581  16.140   6.078  11.834  0.0912 -0.1629 -0.0631
11168W        W24582   1.112  16.543  14.528  0.1641  0.0687 -0.0489
11169W        W24583  15.568  16.314   1.416  0.0511  0.5143  0.0570
11170W        W24584   8.180  15.163   0.769 -0.2192 -0.1619 -0.0021
11171W        W24585   3.326  16.173  14.906 -0.4070 -0.0355 -0.0252
11172W        W24586  12.817  15.212  13.876 -0.3311 -0.0292  0.0388
11173W        W24587   5.849   5.866   0.586  0.0159 -0.0059 -0.0486
11174W        W24588   0.067  12.848  16.212  0.0084  0.0894 -0.1760
11175W        W24589   6.308  10.651   2.069 -0.0043  0.2049 -0.0381
11176W        W24590   0.060   3.168  15.779  0.2596  0.0262 -0.0836
11177W        W24591  11.291   6.712   4.454 -0.1162 -0.0989  0.1390
11178W        W24592   4.415   2.649   0.434 -0.0048  0.0702  0.0667
11179W        W24593  10.467   3.400   0.525  0.1997  0.1717 -0.3063
11180W        W24594  13.492   5.846   3.092  0.0075  0.2531  0.0467
11181W        W24595   6.616   2.043   1.897 -0.0779  0.2182 -0.0319
11182W        W24596   7.462  15.505  11.634  0.0728 -0.1602  0.5697
11183W        W24597   1.903   4.005  11.144 -0.1688  0.4960  0.2645
11184W        W24598  15.182   8.629  13.655  0.0451  0.0977 -0.0277
11185W        W24599  12.629   7.508   2.402 -0.1310  0.0576  0.0394
11186W        W24600  13.305   4.841   2.008  0.0545 -0.1633 -0.2423
11187W        W24601   4.228  11.644  14.753 -0.0431 -0.0555 -0.0610
11188W        W24602  17.336   8.867  14.247  0.0017 -0.0781  0.2750
11189W        W24603   2.064   9.188  11.042 -0.1888 -0.1616  0.0636
11190W        W24604   4.374  13.788   6.007  0.0401 -0.0318 -0.0613
11191W        W24605  16.182  15.125  13.442  0.1025 -0.2003 -0.1809
11192W        W24606   8.271  11.905  13.451  0.0290 -0.3528 -0.1063
11193W        W24607   5.759   9.194   0.956  0.1603 -0.1884 -0.0743
11194W        W24608  17.896   5.867   0.105  0.1013  0.0168  0.2693
11195W        W24609   9.586   4.540   1.538 -0.0212 -0.0650  0.1403
11196W        W24610   9.759  14.106  11.611 -0.0699  0.1295  0.0004
11197W        W24611   2.302  11.389  11.566 -0.1641 -0.0953 -0.1401
11198W        W24612   4.703   2.516  12.795  0.0372  0.1976  0.0423
11199W        W24613  17.768   6.907   0.572 -0.0141  0.2167 -0.0620
11200W        W24614   6.720  12.499   1.409  0.2710  0.3329  0.0618
11201W        W24615   2.731  17.884  15.983  0.0662 -0.0628 -0.3221
11202W        W24616  13.826   7.267  15.510  0.0005 -0.3474 -0.1814
11203W        W24617   0.356   8.498   5.070  0.0378  0.1157 -0.2074
11204W        W24618   4.455   9.817   4.196  0.1801 -0.1402  0.0036
11205W        W24619  16.013   4.270  13.027 -0.0472 -0.1845  0.0023
11206W        W24620  16.369  15.736  11.739  0.0662 -0.0407 -0.1890
11207W        W24621   0.452   0.742  15.747 -0.2174  0.0805  0.0050
11208W        W24622  12.361   7.514   1.581  0.1496  0.2022  0.4330
11209W        W24623   4.472  14.566   1.079 -0.2103 -0.0679  0.1717
11210W        W24624   9.746  13.164   2.748 -0.0185 -0.2842  0.0248
11211W        W24625   2.059  17.787  14.431 -0.0619  0.0432  0.0975
11212W        W24626  15.481   1.102  11.327 -0.1966 -0.2260 -0.1763
11213W        W24627  11.665  11.445   1.697 -0.0588 -0.2990 -0.1712
11214W        W24628  14.600   8.792  12.260  0.1197 -0.2113 -0.2797
11215W        W24629   9.293  11.466  11.589  0.0291  0.0100 -0.2730
11216W        W24630  11.590   9.085  15.222  0.2882 -0.4467 -0.0092
11217W        W24631  15.888  11.224  11.050  0.3336  0.2317 -0.1677
11218W        W24632   7.571  15.040   4.273  0.1383 -0.2115 -0.0527
11219W        W24633   6.704   6.889  14.132  0.2898  0.1545  0.0625
11220W        W24634  13.226  10.054   1.208 -0.0108  0.1762 -0.0026
11221W        W24635   2.552   4.261   0.511  0.1784 -0.1890 -0.2048
11222W        W24636   5.012  15.813  12.097 -0.4609 -0.1011 -0.0234
11223W        W24637   2.594  11.445   4.500 -0.0568  0.0845 -0.0599
11224W        W24638   1.578  12.044   0.323  0.0607 -0.0125 -0.1933
11225W        W24639  12.001   5.188   4.318 -0.1125 -0.0966 -0.1616
11226W        W24640   9.673   5.505   1.754  0.0827 -0.1446  0.1268
11227W        W24641   6.747  14.624  10.877 -0.0430 -0.2317 -0.2813
11228W        W24642   5.455   8.559   1.387  0.1040 -0.1512  0.5233
11229W        W24643   2.132   9.514  13.411 -0.1206  0.1429 -0.2893
11230W        W24644  10.738  17.572   5.499  0.1400 -0.0235  0.0238
11231W        W24645   7.387   3.027  11.446  0.2033  0.2856  0.1573
11232W        W24646   5.649  13.605  10.631 -0.0094  0.1228 -0.1703
11233W        W24647   6.531   0.406   4.336  0.0827 -0.0035 -0.2365
11234W        W24648  11.423   0.019  14.012  0.2810  0.3254 -0.2088
11235W        W24649   1.287  15.834   5.860  0.1677 -0.3088  0.0171
11236W        W24650   6.686   4.255  11.721  0.3403  0.0516 -0.1540
11237W        W24651  11.716   9.342  10.213  0.0256  0.1978  0.0188
11238W        W24652   4.577  16.400   2.207 -0.2723  0.3407  0.2669
11239W        W24653   4.834   6.390  13.504 -0.1901 -0.1802  0.0510
11240W        W24654   2.215   6.302  15.989  0.0049  0.1567  0.3889
11241W        W24655   4.017  15.702   2.843  0.2381 -0.1075  0.0342
11242W        W24656  11.259  10.854   1.161  0.0561  0.0638  0.0812
11243W        W24657  16.877  13.317   5.498  0.2560  0.0565 -0.0369
11244W        W24658  16.174   7.267   6.737 -0.0952  0.3868 -0.3561
11245W        W24659   1.168   9.880  12.664  0.2606  0.2791  0.1077
11246W        W24660   5.544   4.054   4.556 -0.1712  0.2447 -0.1773
11247W        W24661   0.711   2.761   3.965  0.1678  0.0443  0.1832
11248W        W24662   0.284  17.787  15.710 -0.1486  0.2984  0.3408
11249W        W24663   4.145  14.199   0.788 -0.2444 -0.2674  0.3024
11250W        W24664   6.004   9.457  14.721 -0.1861 -0.0499 -0.1065
11251W        W24665  17.930  15.624   2.196 -0.1836  0.3142  0.0274
11252W        W24666   0.478   6.180  13.697  0.0272  0.1863 -0.3606
11253W        W24667   6.115  10.700   0.929 -0.0958 -0.1141  0.1906
11254W        W24668   3.591   6.858   4.158 -0.0740  0.0897 -0.0514
11255W        W24669   1.456   1.167   1.840  0.0397  0.2935 -0.6132
11256W        W24670  10.087   0.839   4.618 -0.2808  0.0184  0.2369
11257W        W24671   2.083   9.937  13.761 -0.3989 -0.3306  0.0196
11258W        W24672  15.441   3.578  12.772  0.3573 -0.0056  0.1646
11259W        W24673  10.004  15.117   1.787 -0.2323  0.2670  0.3166
11260W        W24674  10.983   9.627   1.031 -0.0062 -0.2707 -0.1841
11261W        W24675   2.514  17.883  11.114 -0.0712 -0.1283  0.2356
11262W        W24676  16.112  16.482  13.763  0.0522 -0.3322 -0.0942
11263W        W24677   6.799  17.525  14.141 -0.2616  0.0306  0.0680
11264W        W24678   4.706   9.509  13.060 -0.1769 -0.1907  0.1052
11265W        W24679   2.205   8.381   4.794 -0.2321  0.3334 -0.0564
11266W        W24680  14.394   6.073  15.765  0.1990 -0.1425  0.0141
11267W        W24681   7.476  14.589   5.795  0.4484  0.2404 -0.2605
11268W        W24682  11.734   1.188  11.785 -0.0043 -0.3000  0.2219
11269W        W24683  13.355   2.676  13.634  0.1510 -0.0492  0.1446
11270W        W24684  13.128  15.812  12.040  0.0318 -0.0316  0.0481
11271W        W24685   1.016  14.531   3.443 -0.0368 -0.0650 -0.2614
11272W        W24686   1.593  16.187   3.048 -0.0575  0.1635 -0.4197
11273W        W24687   1.032  13.364  11.262 -0.2101 -0.0294  0.0112
11274W        W24688   4.076  18.138   2.591  0.0218  0.1834  0.0496
11275W        W24689   3.976  17.891   3.028  0.0588  0.1173 -0.0058
11276W        W24690  15.982  14.327   2.060 -0.2490  0.1140 -0.1459
11277W        W24691  14.159   3.171  13.400  0.0175 -0.1185 -0.1930
11278W        W24692  15.251  10.334  13.311  0.0704  0.2514  0.0521
11279W        W24693  11.474  10.959  10.934  0.1156  0.0475 -0.2125
11280W        W24694   5.887  14.293   3.279 -0.3037 -0.1192  0.3998
11281W        W24695  11.376  17.398  13.028 -0.2883 -0.4096 -0.2495
11282W        W24696  12.369   2.306   4.030 -0.1840 -0.2225  0.0150
11283W        W24697   4.920  18.083   4.019 -0.0922 -0.3566 -0.1609
11284W        W24698   8.300   6.688  10.780 -0.0560  0.0796 -0.3091
11285W        W24699   4.757  15.823  14.230  0.3162  0.0361 -0.2827
11286W        W24700  15.894  14.755   5.793 -0.1943  0.0706 -0.0971
11287W        W24701  10.996  15.175  15.488  0.2225 -0.1392 -0.1227
11288W        W24702  16.656   3.989   0.167 -0.1208 -0.1344  0.0144
11289W        W24703  11.591   7.039  15.499  0.0185 -0.2698  0.1003
11290W        W24704  10.283  13.009  12.541 -0.0299 -0.0569  0.0063
11291W        W24705  11.939   6.598  10.982 -0.0526  0.2952  0.2101
11292W        W24706  11.758   8.573   0.560  0.0322 -0.2439  0.2923
11293W        W24707   3.886  13.009  14.288  0.2612 -0.0598 -0.2369
11294W        W24708   1.150   2.582  12.112 -0.0617 -0.0784  0.1108
11295W        W24709   7.899  11.750  11.157  0.1446 -0.0808 -0.0218
11296W        W24710   5.186   2.580  12.676 -0.0435  0.3034 -0.0645
11297W        W24711   2.785   3.178   1.195 -0.3950  0.0485 -0.0821
11298W        W24712   6.326  16.226   3.869 -0.2698  0.1615 -0.1281
11299W        W24713  16.051   8.579   1.038 -0.1972 -0.0711 -0.0898
11300W        W24714  10.031   4.966  15.828  0.0909  0.0199 -0.1054
11301W        W24715   0.187  16.226   5.351 -0.1609 -0.0090  0.0394
11302W        W24716   1.496  13.243   1.469 -0.1493  0.3771  0.0344
11303W        W24717   8.187   8.132  14.893  0.2786 -0.1124  0.0659
11304W        W24718   3.161   4.880   1.498  0.0215  0.3057  0.0465
11305W        W24719  11.270   0.379   1.488  0.0509 -0.4414 -0.0576
11306W        W24720   7.016   5.056  12.809  0.1003  0.0288 -0.2038
11307W        W24721   9.239  14.161  11.482 -0.0064  0.3609 -0.0045
11308W        W24722   1.594   9.663  12.619  0.0710  0.0326  0.1153
11309W        W24723  15.194  15.353   0.371  0.1161 -0.2825  0.0574
11310W        W24724   9.432  17.399   3.712 -0.2189 -0.1701  0.0680
11311W        W24725  17.618   6.663   1.591  0.2599  0.0547  0.4150
11312W        W24726   0.774   6.906   0.514  0.1657 -0.0780 -0.3467
11313W        W24727  10.252  12.638  14.534  0.1704  0.0952 -0.0816
11314W        W24728  17.031  12.371   5.300 -0.1203 -0.0607 -0.2994
11315W        W24729   7.433  18.065  13.213  0.0498  0.0048  0.4724
11316W        W24730   9.283   9.270   4.115 -0.1313  0.2322  0.1469
11317W        W24731   7.771   1.117   2.674 -0.1474 -0.3031 -0.1482
11318W        W24732  10.274  12.440  10.045  0.2529  0.3459 -0.1907
11319W        W24733   4.689   6.342   0.911 -0.3000  0.0748  0.3227
11320W        W24734   2.696  12.826  16.169 -0.3408  0.0990  0.0064
11321W        W24735  13.320  11.537   5.768 -0.0726  0.0447 -0.2438
11322W        W24736   4.445  17.787   4.744 -0.1643  0.1139 -0.1226
11323W        W24737   9.230  15.572   2.585  0.1190  0.0760 -0.3359
11324W        W24738   4.166   0.967   3.790 -0.0048  0.2645  0.2045
11325W        W24739   5.081   0.181   3.663  0.0850  0.0888  0.0900
11326W        W24740  17.248  18.131   2.476  0.1168  0.1070 -0.0069
11327W        W24741   7.399   7.358   4.889  0.0059 -0.3175 -0.2086
11328W        W24742   0.163   8.632   3.471 -0.1186  0.1279 -0.1407
11329W        W24743  14.313  12.183   3.308  0.1589  0.0061 -0.1594
11330W        W24744  13.426  12.245  15.941  0.1841 -0.1984  0.0418
11331W        W24745   0.154  14.044   2.192 -0.0403 -0.1322  0.1972
11332W        W24746   9.084  14.942  10.545  0.3042 -0.0877  0.5468
11333W        W24747  10.148   2.609  12.240  0.1653 -0.0935 -0.1333
11334W        W24748   6.689  17.709  10.146  0.3104 -0.0004 -0.0700
11335W        W24749  13.080  15.392   4.670  0.0645 -0.0374  0.0187
11336W        W24750   6.919   4.507   2.586  0.0637 -0.1907  0.2092
11337W        W24751  15.919   5.627  10.780  0.2244 -0.0591 -0.2719
11338W        W24752   1.555   2.661  12.349  0.0386 -0.2313  0.1899
11339W        W24753  11.053   0.748  13.653  0.0454  0.0682 -0.0014
11340W        W24754  11.501   2.475   3.846 -0.2285  0.2267 -0.2281
11341W        W24755   3.607   5.595  15.070 -0.2354  0.0450 -0.2237
11342W        W24756   9.347   1.355   6.347 -0.1306 -0.3280 -0.2273
11343W        W24757  14.641   0.825  12.523  0.0876  0.0872 -0.0222
11344W        W24758   0.087  11.488   4.674  0.1401 -0.0797 -0.3233
11345W        W24759   8.606   9.839   6.094 -0.2043  0.4526 -0.3110
11346W        W24760   9.405   5.411   2.295 -0.0019 -0.0528  0.1503
11347W        W24761  13.757  12.737   3.399  0.1394  0.3396 -0.2606
11348W        W24762  16.557  13.222  13.774 -0.2944 -0.2154 -0.1628
11349W        W24763   5.504   1.272  11.864  0.1117 -0.2391  0.0880
11350W        W24764  11.249   2.463  15.617  0.0087 -0.1223  0.0262
11351W        W24765   9.654   1.407  14.628  0.0441 -0.0439 -0.0628
11352W        W24766  10.199   9.169   4.590 -0.0762  0.1009 -0.0107
11353W        W24767  14.741   5.050   5.374 -0.0342 -0.0398  0.1168
11354W        W24768   3.456  13.748   5.460  0.0775  0.0171 -0.0115
11355W        W24769   7.352   3.333   3.752  0.2229  0.2303 -0.0915
11356W        W24770  15.345  18.021   0.674  0.0481 -0.1882 -0.3016
11357W        W24771   0.594   7.455   1.972  0.1583  0.1937 -0.1584
11358W        W24772  11.824   6.337  12.626  0.0771  0.1347  0.1458
11359W        W24773  15.558   0.713  13.554 -0.0041  0.2963  0.0111
11360W        W24774  10.613   4.230   3.832 -0.2476 -0.2624 -0.1648
11361W        W24775  14.978  17.583   1.550  0.1100  0.0805 -0.0312
11362W        W24776   6.406  17.275  14.354 -0.1427 -0.0717  0.0361
11363W        W24777  15.169  13.507   3.975  0.0757  0.0160  0.0531
11364W        W24778   0.120   9.626   4.525  0.0544  0.2428 -0.0202
11365W        W24779   5.429  16.836  10.695  0.2147 -0.3580 -0.0584
11366W        W24780   1.322  12.459  12.343  0.4841 -0.0201 -0.0201
11367W        W24781  15.616  12.066  14.957  0.1787 -0.0086  0.1159
11368W        W24782   1.415   0.096  15.401  0.4191  0.1658  0.0743
11369W        W24783  17.047  17.019  16.346 -0.0545  0.2984 -0.3938
11370W        W24784   0.105  15.662   5.126 -0.2572 -0.2405 -0.0083
11371W        W24785   0.933   2.541  11.219  0.0671  0.0141 -0.2161
11372W        W24786  13.048  12.959   2.717  0.0832  0.2587 -0.1664
11373W        W24787   5.238   0.357   1.886 -0.2237 -0.1620 -0.3345
11374W        W24788  13.468   0.281   4.166  0.1735  0.1181  0.0751
11375W        W24789   1.401   0.945   4.904  0.2204  0.1500  0.0411
11376W        W24790  14.911   1.222  11.318  0.0527 -0.0078 -0.2775
11377W        W24791  15.303  11.161   3.237  0.0087  0.1607 -0.2050
11378W        W24792   9.338  11.067   5.611  0.0153  0.0142 -0.1681
11379W        W24793  12.296   2.400   4.619  0.1487  0.0320  0.3767
11380W        W24794   7.469  10.529   3.196  0.0460  0.2397 -0.0533
11381W        W24795   3.248  16.055  16.480  0.1560  0.2013 -0.0246
11382W        W24796  15.377   5.589  10.629 -0.1098 -0.1033  0.0552
11383W        W24797  16.671  17.450  14.621 -0.1925  0.3042 -0.1326
11384W        W24798  14.850   6.152   1.365  0.1423  0.0564  0.2530
11385W        W24799   7.222  16.488  12.247  0.2275 -0.1020 -0.3374
11386W        W24800  10.252  13.684  14.899  0.1397  0.2776 -0.2192
11387W        W24801  16.648   6.700  14.890 -0.0328  0.1594 -0.1903
11388W        W24802  11.283  15.329   0.207 -0.0548 -0.3052 -0.0996
11389W        W24803   2.957  12.714  11.849 -0.1282 -0.0188  0.3257
11390W        W24804   6.293   8.805  15.718 -0.2060 -0.1392 -0.0841
11391W        W24805   2.432  11.298  15.847  0.0548  0.2124 -0.1656
11392W        W24806   6.766   8.872  13.283 -0.0794 -0.1610 -0.5669
11393W        W24807   2.057   1.220  11.633 -0.2865 -0.3394 -0.4680
11394W        W24808   6.720   1.952  10.685 -0.0156  0.2218  0.0628
11395W        W24809   2.779   4.712   6.314 -0.0036 -0.0837 -0.0752
11396W        W24810   4.799  17.247  13.900 -0.1793 -0.3977  0.1404
11397W        W24811  16.181   9.463   0.226  0.0352 -0.1397  0.1619
11398W        W24812  13.652   1.525   5.855  0.2183  0.0492 -0.0231
11399W        W24813  12.271   6.954  10.886 -0.5296 -0.1372  0.0048
11400W        W24814   8.541   8.683   5.933  0.1372  0.0258 -0.1659
11401W        W24815   4.549   8.514   1.663 -0.0253  0.0026 -0.1107
11402W        W24816  11.903   8.369   1.171 -0.2581  0.1200  0.0215
11403W        W24817   6.688  10.750   0.632  0.1089  0.0929 -0.1648
11404W        W24818   8.395  13.253  13.969  0.1168 -0.0344 -0.2180
11405W        W24819   1.268  10.455   2.556 -0.1464 -0.0589  0.1013
11406W        W24820   4.870  15.697   4.614 -0.0530  0.0384  0.0306
11407W        W24821   2.603  11.145   3.529 -0.2124  0.3351  0.1985
11408W        W24822  11.349  15.378   5.464 -0.0234 -0.1332  0.0816
11409W        W24823   7.510   8.723   4.546 -0.3001  0.0382 -0.0288
11410W        W24824  16.634  12.730  15.750 -0.0393 -0.1675  0.2825
11411W        W24825   8.988  14.310   2.802 -0.1280 -0.0605  0.2379
11412W        W24826   5.908  14.124  12.725 -0.0616 -0.0108 -0.4142
11413W        W24827   1.879  12.481   4.644 -0.0733 -0.0853 -0.1863
11414W        W24828  11.170  18.155  15.421  0.0831  0.1798  0.0397
11415W        W24829   5.571  15.739   1.768  0.1919  0.2534  0.1972
11416W        W24830   7.974  15.476   2.955  0.1315  0.1196  0.1105
11417W        W24831   8.007   6.817  13.595 -0.0893 -0.0554 -0.1682
11418W        W24832  17.005  17.233  11.976  0.1167 -0.1013 -0.2803
11419W        W24833  17.332  14.294   5.578 -0.2382  0.0920 -0.1459
11420W        W24834   5.578  10.677   0.931 -0.0656 -0.0565 -0.0627
11421W        W24835  12.561   9.299   6.340 -0.0609  0.2329  0.0164
11422W        W24836  14.963   3.789   1.689  0.1151 -0.1088 -0.1988
11423W        W24837  17.825  14.626   4.307 -0.1567  0.1911 -0.2462
11424W        W24838   2.387  16.221   0.050  0.0820  0.0320 -0.1907
11425W        W24839   3.243   8.399   6.026 -0.1640 -0.1805 -0.1872
11426W        W24840  18.059   5.398   6.221  0.1420 -0.0068 -0.0423
11427W        W24841   6.537   9.105   1.963 -0.2704 -0.1812  0.0489
11428W        W24842   0.442   4.784   5.748  0.1088  0.1616  0.1893
11429W        W24843  17.769   1.801   0.043  0.4168  0.3118  0.0786
11430W        W24844   5.487   7.047  12.605 -0.0503 -0.0030 -0.0123
11431W        W24845   1.468  14.916  10.955 -0.0348 -0.0449  0.0194
11432W        W24846   7.066   7.381  16.145  0.1834 -0.1862 -0.3250
11433W        W24847   7.753   3.813   3.083  0.0743  0.4525 -0.1256
11434W        W24848   4.321  12.356   3.988  0.1187  0.1422  0.0055
11435W        W24849  14.388  16.556  15.759 -0.0606 -0.3440 -0.1196
11436W        W24850   8.038   1.447   0.854  0.1140  0.1316 -0.0272
11437W        W24851   4.153   1.600   0.529  0.4290  0.2741 -0.0800
11438W        W24852  14.111  11.971  12.116 -0.1463  0.2748  0.0650
11439W        W24853  17.619  16.775   4.028  0.1235 -0.0728  0.4046
11440W        W24854   6.555   9.121  10.880 -0.0060 -0.1051  0.0826
11441W        W24855   3.194  13.921  10.460 -0.2224  0.4945  0.1617
11442W        W24856   0.671   3.961   4.668  0.1084 -0.0712 -0.2856
11443W        W24857   3.641  11.401   5.373 -0.1473 -0.1855 -0.1335
11444W        W24858  10.660  16.841   2.036  0.0006 -0.0600 -0.2662
11445W        W24859  15.486  15.302  16.039 -0.0869 -0.0070  0.0458
11446W        W24860  12.084   5.195  10.155  0.0729  0.1614  0.0936
11447W        W24861  17.876   2.281   2.785 -0.0222 -0.1210 -0.1288
11448W        W24862  12.082   6.153  11.227 -0.4439 -0.0254 -0.3015
11449W        W24863  12.731   2.419   4.985 -0.0700  0.2767 -0.3044
11450W        W24864   6.911   8.163  12.708  0.3466 -0.0423 -0.0125
11451W        W24865  16.513   7.642   4.544 -0.0359 -0.1465 -0.1744
11452W        W24866  16.595  18.037  12.500 -0.4168  0.4945 -0.7180
11453W        W24867  12.055   1.289  16.161 -0.0108  0.0121  0.2461
11454W        W24868  15.430   5.194  14.617  0.0501 -0.4543 -0.1412
11455W        W24869   2.500  13.029  14.697  0.1296  0.1839  0.0007
11456W        W24870   7.740  11.559   2.248  0.1677  0.0325 -0.1300
11457W        W24871   3.599  10.816   2.502 -0.1025 -0.0378 -0.1471
11458W        W24872   5.613  17.188  13.456  0.0251  0.3033  0.0787
11459W        W24873  15.453   0.151   4.631  0.2115  0.0082  0.0020
11460W        W24874   2.900   4.030   4.613 -0.1606 -0.1835 -0.0875
11461W        W24875   4.024   2.809   5.048  0.0029 -0.1268 -0.0938
11462W        W24876   3.152   4.794  11.990 -0.2016  0.0647  0.0871
11463W        W24877  17.047  14.774  13.212 -0.1683  0.0123 -0.0386
11464W        W24878   3.902  16.786   0.419  0.1659 -0.1953  0.2833
11465W        W24879   8.986  18.202  11.557  0.1770 -0.2822 -0.4148
11466W        W24880  12.892  14.648  15.515  0.0667  0.0687 -0.4339
11467W        W24881  12.565   2.880  11.702  0.1818 -0.0299 -0.1457
11468W        W24882   1.748   9.891  11.688  0.2079  0.1041 -0.1261
11469W        W24883   9.584   5.011   1.775  0.0991  0.0622 -0.2355
11470W        W24884   9.270   6.914   2.570  0.2121  0.0395  0.1576
11471W        W24885  11.380  13.135   2.262 -0.0174  0.0924 -0.1258
11472W        W24886   4.291  12.606   2.281 -0.1584  0.1451 -0.1333
11473W        W24887  12.642   0.628   4.517 -0.0547 -0.1352 -0.4872
11474W        W24888   0.626  16.370  13.753 -0.0722 -0.0388  0.3425
11475W        W24889  14.574   9.368  15.309 -0.0238 -0.0573  0.4340
11476W        W24890  18.053  13.991   6.646 -0.0870  0.0045 -0.1668
11477W        W24891   9.533   3.897  14.065 -0.0582  0.0559 -0.0890
11478W        W24892   4.969  15.387   5.502 -0.0329 -0.3497  0.0664
11479W        W24893   3.616   6.886   1.909  0.1833 -0.0498 -0.0641
11480W        W24894   3.877   7.781  14.198  0.0505 -0.2555 -0.0877
11481W        W24895   8.065  13.748   2.093 -0.1207  0.0275  0.1176
11482W        W24896   9.987   3.169   5.352 -0.0504  0.1072  0.0397
11483W        W24897   8.164   7.685   2.181 -0.3635  0.0291 -0.0021
11484W        W24898   9.317  12.226   0.091 -0.0377  0.0470  0.0290
11485W        W24899  15.884  14.908  13.755 -0.0350  0.1102 -0.1788
11486W        W24900  13.255   8.621   3.174 -0.1509  0.1328 -0.3001
11487W        W24901  16.988   0.101  12.611  0.0319 -0.0943 -0.1690
11488W        W24902   7.973   1.190   5.824  0.0833 -0.1641  0.0257
11489W        W24903  15.712  15.157   5.614  0.3277 -0.0571 -0.0111
11490W        W24904  17.385   2.759  13.338 -0.2627  0.1359 -0.0621
11491W        W24905  16.434   1.429   3.103  0.0119  0.1307 -0.0658
11492W        W24906  12.288   8.082   4.886  0.0270  0.3201  0.2069
11493W        W24907  15.016   9.440  14.269  0.1946 -0.0149  0.3521
11494W        W24908   5.931  13.520   2.081  0.1825 -0.2845 -0.1121
11495W        W24909   9.086   5.135   2.043 -0.0066  0.2009 -0.0103
11496W        W24910  10.155   0.855  15.912  0.0779 -0.0792  0.0045
11497W        W24911   0.117   7.691   0.430  0.3168 -0.1829  0.2711
11498W        W24912   1.049  11.629  11.373 -0.0725  0.1181  0.3721
11499W        W24913  11.258   3.523  15.577  0.0534  0.2708 -0.1570
11500W        W24914   4.470  16.390   3.530 -0.1077  0.2809  0.0563
11501W        W24915  15.247  16.544   4.408  0.2957  0.4049  0.0146
11502W        W24916  10.421   3.694   0.973  0.1652 -0.3167 -0.1769
11503W        W24917  17.775   7.569  14.331 -0.0427 -0.1730 -0.1620
11504W        W24918  10.064  14.602   5.839 -0.2336  0.0107 -0.0064
11505W        W24919  13.410  14.186  12.194 -0.4795 -0.1240  0.0279
11506W        W24920   9.492   3.701   0.461  0.0097 -0.2323 -0.1121
11507W        W24921   4.296   1.740   2.293 -0.3535 -0.0631  0.0103
11508W        W24922   6.410   7.807  15.506 -0.1354 -0.4005 -0.0430
11509W        W24923   6.553  10.628   1.127 -0.2730  0.1656 -0.1058
11510W        W24924  11.347  11.181  14.417 -0.0991  0.0366  0.2698
11511W        W24925   5.802   8.970   0.447 -0.0969  0.0388 -0.0431
11512W        W24926   3.478   6.762   3.702 -0.1133 -0.1852 -0.0327
11513W        W24927   0.448  12.458  12.719 -0.1234  0.1629  0.3092
11514W        W24928  12.403   1.123   4.719 -0.0152  0.0232  0.2503
11515W        W24929  10.790   2.819  14.704 -0.0396  0.0552  0.1522
11516W        W24930   3.025  11.501   6.411  0.0262  0.0120 -0.2594
11517W        W24931   0.931  11.416  13.400  0.1418 -0.2263  0.2408
11518W        W24932   4.428   5.659  11.958 -0.0240 -0.0468 -0.0851
11519W        W24933   3.584  10.689  12.075  0.4994  0.0537  0.0774
11520W        W24934   4.067  15.204  14.349 -0.1465  0.1095  0.1294
11521W        W24935   5.534  17.453  14.330 -0.4650  0.0854  0.0409
11522W        W24936  15.358   9.355   3.287  0.1743  0.0445  0.2495
11523W        W24937   6.201  17.432  13.696 -0.1370 -0.1343  0.0347
11524W        W24938  14.292  18.255   6.096  0.1575  0.1578  0.1729
11525W        W24939   1.230   9.499   1.474  0.2648  0.3777 -0.0452
11526W        W24940   6.543  11.010   0.209  0.1279 -0.0180  0.1271
11527W        W24941  10.110   8.886   2.240  0.1646  0.2664  0.0997
11528W        W24942   7.601  12.299   4.841  0.0308  0.0628  0.2159
11529W        W24943   3.112  12.413   5.728 -0.5123  0.1814  0.1754
11530W        W24944   9.710  16.468   2.616 -0.0759 -0.0703  0.5345
11531W        W24945  12.666   2.627   0.764 -0.2997  0.0335  0.3168
11532W        W24946  15.828   5.060   6.040 -0.0388 -0.0188  0.1110
11533W        W24947  13.745   4.166  12.437 -0.0418 -0.0399 -0.2252
11534W        W24948  12.407   8.308  16.407  0.0344 -0.2820  0.1273
11535W        W24949   1.374  15.963   1.860 -0.0197  0.0719 -0.0308
11536W        W24950  12.409   2.851  10.744  0.0174  0.0244 -0.1192
11537W        W24951   3.426  13.481   4.628 -0.2303  0.3344  0.3728
11538W        W24952   2.772  10.296  13.314 -0.1156  0.1047  0.2319
11539W        W24953   1.614  14.878   2.891  0.0816 -0.0829 -0.0612
11540W        W24954   4.797   8.689   3.817  0.0134 -0.2632  0.1276
11541W        W24955   7.722   9.994   5.607 -0.0608  0.1872  0.0189
11542W        W24956  17.341   4.084  12.576  0.0746 -0.0336 -0.0406
11543W        W24957   9.486   2.986  14.879 -0.2609 -0.1130 -0.0920
11544W        W24958  17.474  16.193  13.608  0.0082 -0.0265  0.0948
11545W        W24959  14.825   9.896   1.160  0.0413 -0.1598  0.2117
11546W        W24960  14.486   6.906  14.617 -0.1760 -0.2329 -0.0303
11547W        W24961   2.595   6.630  14.932  0.0800  0.1107  0.0177
11548W        W24962   4.326   9.377   3.051 -0.1463  0.0703  0.1487
11549W        W24963   5.537  11.489   2.207  0.0104 -0.1353 -0.1670
11550W        W24964  12.627  11.537   3.948  0.0247 -0.1841  0.2621
11551W        W24965  18.070   8.943   2.807  0.1308  0.1083  0.2487
11552W        W24966   5.906   3.815   0.589 -0.2041 -0.2889 -0.0398
11553W        W24967  18.188  16.688   5.249 -0.2509 -0.2944 -0.0086
11554W        W24968  16.180  11.392  15.944  0.1948 -0.2472  0.1410
11555W        W24969  16.621  16.769   0.570 -0.2256  0.1711 -0.4567
11556W        W24970   8.027   6.339  11.388  0.2559  0.2090 -0.0989
11557W        W24971   2.317   0.370  15.161 -0.1417  0.1559  0.2623
11558W        W24972   7.459  10.891   4.887 -0.0084 -0.0099  0.1228
11559W        W24973  16.378   7.555  15.887 -0.1266 -0.0243 -0.1491
11560W        W24974  15.526   5.340   1.917  0.1156 -0.1222 -0.1808
11561W        W24975  12.683   7.661   5.727  0.3105  0.2220  0.3330
11562W        W24976  18.134  14.537  14.459  0.4184  0.2712 -0.0504
11563W        W24977  12.521  15.018   3.543 -0.0400  0.2405  0.4044
11564W        W24978  13.815   4.692  14.531  0.1537 -0.1376  0.2866
11565W        W24979  17.346  13.590  12.356 -0.1379  0.3400  0.0339
11566W        W24980   8.058   8.643  14.725  0.1242  0.2405 -0.0625
11567W        W24981  16.215   5.134   2.966  0.1567 -0.2292 -0.1736
11568W        W24982   7.051   7.922   1.027 -0.2380 -0.3942 -0.0296
11569W        W24983  16.971   0.806   3.453  0.0923  0.0411  0.1780
11570W        W24984   8.418  14.998  14.217 -0.1390  0.1383  0.1032
11571W        W24985  13.672   3.043  10.777 -0.0842  0.1607 -0.2669
11572W        W24986   5.172   2.588   1.616  0.0976 -0.0533  0.4138
11573W        W24987  16.834   7.349  15.830  0.0265 -0.0034  0.0381
11574W        W24988   7.823   9.959   5.074  0.1821 -0.0695  0.3088
11575W        W24989   2.222   2.817  12.306 -0.0778 -0.1404  0.0194
11576W        W24990  14.782   2.128  11.035 -0.1615 -0.1166  0.2224
11577W        W24991  15.156   9.395  11.005  0.0530 -0.0420 -0.1457
11578W        W24992  13.343  11.701  12.642 -0.0385  0.2521  0.3443
11579W        W24993  17.217   5.338   1.279  0.0510  0.1956 -0.0400
11580W        W24994  17.291  14.362   3.511  0.0428  0.1711 -0.0643
11581W        W24995  13.498   4.928  13.196 -0.1405  0.2474  0.2062
11582W        W24996  13.881  13.433  12.223 -0.0621  0.0376  0.1894
11583W        W24997  15.620  10.156   2.995  0.0695  0.2243  0.0759
11584W        W24998   1.210   8.121  15.652  0.1009  0.2034 -0.0252
11585W        W24999   8.907  16.577   2.843  0.0310 -0.5495 -0.1516
11586W        W25000  10.449  11.744  15.716  0.0879  0.1165  0.0512
11587W        W25001   2.612   7.969   6.069  0.0076 -0.1543 -0.1631
11588W        W25002   3.204   3.444   4.495  0.3005  0.1003 -0.2557
11589W        W25003  17.720  17.990   3.150 -0.0484 -0.4132  0.1319
11590W        W25004  12.288   9.674   4.585  0.2819  0.1560  0.0160
11591W        W25005  13.279   8.803  13.125  0.2643 -0.0863 -0.3021
11592W        W25006   0.834   6.714   5.735  0.0308  0.3148 -0.1872
11593W        W25007   6.097   9.428   1.209  0.2561 -0.1042 -0.1207
11594W        W25008   4.375  10.520  15.757  0.0033 -0.1394 -0.0685
11595W        W25009   3.607   7.328  14.175 -0.0207  0.0874  0.0515
11596W        W25010   2.369  17.973   2.352 -0.1689 -0.0390  0.0831
11597W        W25011  13.154  15.670  14.483 -0.1202 -0.2280  0.0936
11598W        W25012  14.476  15.987   2.986  0.2147 -0.2050  0.1099
11599W        W25013   9.553  13.270   5.067  0.1048  0.2956 -0.0203
11600W        W25014  14.885   7.902   5.984  0.0914 -0.2298 -0.0079
11601W        W25015   9.850   5.894   3.879 -0.2310 -0.0958 -0.4431
11602W        W25016  13.881   3.549   9.776 -0.1243 -0.0971 -0.0137
11603W        W25017  18.207  11.504   3.141 -0.0838  0.0392  0.1395
11604W        W25018   6.803  16.164  12.170  0.0611  0.0532 -0.0419
11605W        W25019  10.934   9.832   4.159  0.0912  0.3684 -0.2359
11606W        W25020  11.696   6.073   3.324  0.2824 -0.0461 -0.0213
11607W        W25021  11.010   0.736   2.073  0.1202 -0.2411 -0.1238
11608W        W25022  14.957  13.769   4.870 -0.1005 -0.2879 -0.0603
11609W        W25023  13.866   6.652  14.499  0.0726  0.0308  0.1578
11610W        W25024   9.504   1.168   1.013 -0.1809 -0.0830 -0.1854
11611W        W25025  10.758   4.576   0.688 -0.0457  0.1357 -0.2445
11612W        W25026   3.854   3.300   5.057  0.1680 -0.2900  0.1032
11613W        W25027  14.525   5.901   5.978 -0.0511 -0.0257 -0.1127
11614W        W25028   0.672  10.745  11.822  0.2043 -0.1102  0.0118
11615W        W25029  11.856   9.464   4.786 -0.0410  0.1645  0.0701
11616W        W25030   1.706  16.710   0.576  0.0852 -0.0349  0.0595
11617W        W25031  14.914  16.917   3.163  0.0312 -0.1119  0.0958
11618W        W25032   9.372  14.727  10.925 -0.1408 -0.1551  0.1251
11619W        W25033   0.233  15.061   3.645  0.3688  0.1391 -0.1148
11620W        W25034  16.789  15.486  11.100  0.1241  0.0536 -0.0690
11621W        W25035  16.558   6.509   3.288 -0.0688  0.3773 -0.2408
11622W        W25036   5.374  11.153   0.873 -0.1475  0.3632  0.2129
11623W        W25037   8.779  13.623  15.331  0.0307  0.0308  0.1437
11624W        W25038   0.116  14.901   1.891 -0.1271  0.1865  0.1355
11625W        W25039  12.653  13.742  12.837  0.1031  0.1589 -0.0674
11626W        W25040  15.286  10.319   5.447  0.2308 -0.0036 -0.3227
11627W        W25041  14.231   3.741   4.176 -0.2996  0.1043  0.2142
11628W        W25042  10.565   3.410   2.121  0.1847  0.0180  0.2336
11629W        W25043   3.078   3.542  11.774  0.4120  0.0499  0.0376
11630W        W25044  10.976   1.689  11.982  0.3251 -0.0849 -0.0936
11631W        W25045   9.609  11.647  15.249  0.0188 -0.2215  0.1850
11632W        W25046  13.917  14.452   2.041  0.0234 -0.0066  0.0961
11633W        W25047  15.440   0.298  14.292 -0.0347 -0.0564  0.0537
11634W        W25048   9.720  10.354   0.763 -0.1350 -0.3818 -0.1017
11635W        W25049  14.302   4.531  14.048  0.3348 -0.0395  0.2551
11636W        W25050   2.640   4.451   3.308  0.2148  0.1447 -0.0265
11637W        W25051   0.019   1.643  13.342  0.1289 -0.1496 -0.0364
11638W        W25052   0.972   2.048  11.127  0.1017 -0.1401  0.3042
11639W        W25053  11.717  16.057  16.247 -0.0740  0.0233  0.3339
11640W        W25054  18.086  15.228   4.870 -0.1055 -0.1971  0.0173
11641W        W25055   7.088   7.197  12.932 -0.1396  0.1951  0.4370
11642W        W25056   4.653  13.892  10.656  0.0829  0.1032  0.1519
11643W        W25057   5.324  12.456   0.591 -0.2738  0.2159  0.0829
11644W        W25058   9.454   2.660   3.407  0.2255 -0.0229 -0.0491
11645W        W25059   2.110   4.721  14.688  0.0570 -0.0504 -0.0595
11646W        W25060   7.415   4.787   3.508 -0.1372 -0.1024  0.3114
11647W        W25061   4.663  12.767  13.662  0.2410 -0.2102 -0.0323
11648W        W25062  12.694   9.313   9.631 -0.1406 -0.0361 -0.0918
11649W        W25063   1.560  15.529   3.746 -0.0761 -0.1042 -0.1975
11650W        W25064   9.992  12.735  10.309  0.1870 -0.0826 -0.0204
11651W        W25065  17.998  15.533   0.794 -0.1111 -0.1198 -0.0367
11652W        W25066  17.189   6.550   5.955  0.0049 -0.0595  0.2368
11653W        W25067   1.107  17.566   4.378  0.0679  0.0294 -0.0660
11654W        W25068   8.582   5.737  12.481  0.1279 -0.1219 -0.1416
11655W        W25069  11.644   9.434   0.073  0.0626  0.0786 -0.1482
11656W        W25070  11.939   0.727  13.293  0.0167 -0.0442 -0.3268
11657W        W25071   0.066  10.939   0.940  0.1489  0.0862  0.0321
11658W        W25072   1.535   6.413   1.499 -0.2167  0.0129 -0.1588
11659W        W25073   6.472   2.701  11.694  0.0196  0.0306 -0.1561
11660W        W25074   9.172  12.821   4.891 -0.0077  0.0460 -0.0804
11661W        W25075  15.134   9.193   0.789 -0.2033  0.1849 -0.0511
11662W        W25076  15.064   2.653  15.784  0.0298  0.0624  0.1734
11663W        W25077  16.706   7.589   3.666  0.0036 -0.0065 -0.1494
11664W        W25078  12.487  10.877  13.444 -0.1044  0.0980 -0.0549
11665W        W25079  16.504  10.878  13.125 -0.0679 -0.1446  0.0743
11666W        W25080  16.873   4.795   0.179 -0.0954 -0.0721 -0.1941
11667W        W25081  16.385  10.605  12.723 -0.1475  0.1728  0.1726
11668W        W25082  17.638   0.744   2.792 -0.0228 -0.0624  0.0434
11669W        W25083   6.635   2.768  12.307  0.0474 -0.2119 -0.0071
11670W        W25084  17.052  11.695   4.557  0.0367 -0.2138 -0.0398
11671W        W25085  15.249  13.278  11.909 -0.0148  0.1628  0.0822
11672W        W25086   6.395  18.014  15.754 -0.1375  0.2053  0.2133
11673W        W25087  15.750  17.593   5.704 -0.0844 -0.2868 -0.5024
11674W        W25088   1.635   1.237   5.237  0.0506 -0.0060 -0.1347
11675W        W25089  17.870   3.151   3.283 -0.0268  0.0184  0.1679
11676W        W25090   1.329  14.796  12.420 -0.4729 -0.0922  0.0404
11677W        W25091   1.203   2.990   1.698 -0.0817  0.1435 -0.2618
11678W        W25092   3.183  12.670  16.367  0.0093  0.1658  0.1214
11679W        W25093   1.724   2.900   2.611 -0.1192 -0.0072  0.2193
11680W        W25094   9.035  16.598  12.920  0.2510  0.3331  0.3525
11681W        W25095   6.158   5.533  11.099 -0.2733  0.4064 -0.2647
11682W        W25096   0.007  15.360   6.058 -0.2769 -0.2123  0.2230
11683W        W25097   1.103  16.737   6.501 -0.2209  0.3845  0.0768
11684W        W25098  16.605   1.425   1.923 -0.0542  0.0835 -0.0676
11685W        W25099   4.167  16.181   5.947  0.0536  0.1573 -0.0808
11686W        W25100  13.220  13.188   1.103  0.0235  0.0838 -0.0806
11687W        W25101   2.667  16.279   2.470 -0.4067  0.1397 -0.1963
11688W        W25102   6.736  18.202   4.457  0.2435 -0.0270  0.0826
11689W        W25103   3.597   5.558   0.096  0.2207 -0.0717  0.0611
11690W        W25104   1.647  12.266  11.089  0.1240 -0.1153 -0.0035
11691W        W25105   1.178   0.466   3.948 -0.2325 -0.1550  0.1561
11692W        W25106   1.456   6.759  11.513 -0.3135  0.1938  0.1860
11693W        W25107  12.158  13.991   4.867  0.1427  0.1590 -0.3522
11694W        W25108  17.401  16.570  12.481 -0.0613 -0.1109 -0.0138
11695W        W25109   7.703   9.668  12.102 -0.0945  0.0365 -0.2622
11696W        W25110   2.914   5.748  11.947 -0.1524 -0.2499 -0.1335
11697W        W25111   9.617   3.569  12.265 -0.0441 -0.1174  0.0542
11698W        W25112  10.951  14.422  10.161  0.0633 -0.1787  0.2604
11699W        W25113  10.549  10.414  12.805 -0.1462 -0.2513  0.2458
11700W        W25114  12.901  14.386  14.321 -0.0181  0.0953  0.2738
11701W        W25115   3.363  10.346   5.877  0.1219  0.1743 -0.1700
11702W        W25116   8.024   0.595   0.246 -0.1354  0.2086 -0.2877
11703W        W25117  11.269  11.417  13.857 -0.0181 -0.1963  0.2199
11704W        W25118  12.377   4.362   1.112 -0.1309  0.0236 -0.1253
11705W        W25119   3.921   4.842  13.339 -0.0237  0.3071  0.1839
11706W        W25120   5.339   5.852  16.418  0.1085 -0.0752 -0.3539
11707W        W25121   4.787   0.444   0.656 -0.0062  0.1769  0.3013
11708W        W25122  11.734   7.775  15.946  0.2701 -0.3621  0.0383
11709W        W25123   4.390  11.646   5.755 -0.1254  0.0476 -0.1116
11710W        W25124  17.210  10.613   2.433  0.1472 -0.0788  0.0224
11711W        W25125  11.153  10.566   5.050 -0.0460  0.3634  0.1472
11712W        W25126  16.310  17.685   2.625 -0.0080  0.1004 -0.1586
11713W        W25127   3.934  13.401  10.979  0.0124  0.0102  0.1982
11714W        W25128   2.653  17.665   4.501  0.0350 -0.0384  0.0042
11715W        W25129  15.587   6.170   5.227 -0.0463 -0.0401  0.1321
11716W        W25130   1.826  13.799  16.176 -0.1331 -0.0845 -0.0551
11717W        W25131  10.591  16.232  13.097  0.0257  0.0765  0.0173
11718W        W25132   1.683   1.270  13.925  0.1704 -0.2037 -0.1066
11719W        W25133   8.956   4.370   0.012 -0.3601  0.1804  0.0068
11720W        W25134   2.008  17.895   6.021 -0.4245 -0.3040 -0.0798
11721W        W25135  15.353   6.931  16.469 -0.1500  0.0905  0.1453
11722W        W25136  10.186  13.240   2.561 -0.1770  0.2625  0.0613
11723W        W25137  10.557   2.358   5.439  0.1009 -0.1033  0.2334
11724W        W25138  15.430   0.595   5.657 -0.3639  0.0608 -0.2881
11725W        W25139  12.651   3.188  13.259 -0.1800  0.0433 -0.0620
11726W        W25140   6.344   6.762   0.977 -0.0492 -0.0004  0.1661
11727W        W25141  17.208  11.791  14.467 -0.1867  0.3245 -0.0931
11728W        W25142   2.011  16.584  14.879 -0.0042  0.2159  0.0179
11729W        W25143  12.093   4.224   2.506  0.2225  0.0977 -0.0268
11730W        W25144   7.664   5.683   0.896  0.1087  0.1771  0.0828
11731W        W25145   9.079  12.153   3.381 -0.0865 -0.2053 -0.0284
11732W        W25146  11.525   5.142   1.666  0.1658  0.0408 -0.1989
11733W        W25147  15.131  12.152  15.248 -0.0130  0.1772 -0.0758
11734W        W25148  18.072  17.975   4.003 -0.1027 -0.0742  0.1697
11735W        W25149   9.302  10.962   2.970 -0.0767 -0.0709  0.1395
11736W        W25150  13.942   9.491  15.262 -0.2406  0.0207  0.0896
11737W        W25151  15.928   3.057  10.349  0.0025  0.2615  0.1509
11738W        W25152   4.447  13.159   0.283 -0.0572 -0.1495  0.1098
11739W        W25153  17.410  16.726  16.377  0.4788  0.2903 -0.0062
11740W        W25154  10.566   2.275   3.912  0.0122 -0.1382  0.0900
11741W        W25155  16.504   0.375  15.568  0.1023 -0.1706 -0.0574
11742W        W25156   1.688  14.988   0.897  0.0529  0.1822 -0.1093
11743W        W25157   7.190  12.000  12.689 -0.0606 -0.0908  0.1077
11744W        W25158   0.721  11.206  14.200  0.0981  0.0290 -0.2363
11745W        W25159   6.959  16.172   6.186  0.0904  0.2013 -0.1687
11746W        W25160  12.480   3.768   4.426 -0.1394 -0.0696 -0.0567
11747W        W25161   5.822  11.186  16.097 -0.0696 -0.3196  0.3096
11748W        W25162   9.303   1.041  15.236  0.2126 -0.1567 -0.1495
11749W        W25163   9.508  17.596   1.757  0.2841  0.2941  0.2058
11750W        W25164  15.892   6.691  15.074  0.0448  0.0985  0.0885
11751W        W25165   3.720   6.743   2.393  0.2321 -0.0149 -0.0554
11752W        W25166   6.186  16.267   0.536  0.0365 -0.1071 -0.1419
11753W        W25167   2.713  10.733  13.551 -0.3406  0.2555  0.1561
11754W        W25168   9.223   0.938   3.764  0.0145 -0.1634 -0.0044
11755W        W25169  11.356   1.095   5.514 -0.2510  0.0204  0.0734
11756W        W25170   9.526   0.758  12.257  0.1086 -0.2547 -0.4169
11757W        W25171  17.503  17.727   0.075  0.1392 -0.1675  0.0038
11758W        W25172  13.470   9.606   1.331 -0.2054  0.1894  0.3339
11759W        W25173   3.446   1.487  14.805  0.2246  0.2521 -0.1563
11760W        W25174  13.588  12.606  10.608  0.3102  0.1772 -0.2645
11761W        W25175  12.132  17.819  14.990  0.0829 -0.1782  0.2092
11762W        W25176   5.670   5.145  15.043 -0.1234  0.1817  0.0847
11763W        W25177  16.592  10.621   6.283  0.0996 -0.0628  0.0506
11764W        W25178  13.507   5.757   2.196  0.2570 -0.0073  0.0615
11765W        W25179   9.933  11.345   0.803 -0.1833  0.2963 -0.2489
11766W        W25180   2.320  13.634   4.495  0.1765 -0.1770  0.2641
11767W        W25181   1.037   9.369   3.575 -0.0545  0.0010  0.1042
11768W        W25182  12.398   8.812  12.896  0.0766  0.1835  0.1770
11769W        W25183  15.536   8.177  14.383  0.1668 -0.0628  0.0440
11770W        W25184  10.478   6.075   5.533 -0.1753 -0.2469 -0.2670
11771W        W25185   1.519  16.542  14.912  0.1001 -0.1155  0.1124
11772W        W25186   8.624   2.858  12.857 -0.0698 -0.1205  0.1025
11773W        W25187  13.452  15.776   1.625 -0.2061 -0.0660  0.2081
11774W        W25188  14.066   7.672  12.449 -0.2342  0.1139  0.0147
11775W        W25189   1.800   4.728   6.515 -0.1105 -0.0278  0.1516
11776W        W25190  15.182  16.534  14.047  0.4892 -0.0886  0.1288
11777W        W25191  17.656  14.716   3.810 -0.0009  0.0580 -0.2489
11778W        W25192   4.019   6.157   3.591 -0.4290 -0.1763 -0.1022
11779W        W25193   7.142   0.907  14.497  0.1716 -0.1048 -0.2745
11780W        W25194   0.275  12.641   4.488 -0.1090  0.1525  0.0617
11781W        W25195  15.694   3.018   1.463 -0.2429  0.1946 -0.1014
11782W        W25196  17.198   7.424  11.312  0.0972 -0.0617  0.1377
11783W        W25197   3.087  13.632   2.722 -0.2474 -0.3419  0.1562
11784W        W25198   9.528  16.370  12.828  0.3578  0.2962  0.0740
11785W        W25199   6.506   9.828   0.769 -0.3134  0.0923  0.2659
11786W        W25200  12.572   0.019  12.993  0.0110 -0.4020  0.0044
11787W        W25201  16.937  10.992   2.285 -0.0306  0.0379  0.0507
11788W        W25202  17.370   2.502   5.783  0.1459 -0.0513 -0.0066
11789W        W25203   7.245  10.697   5.353  0.1949  0.1234 -0.1828
11790W        W25204   8.959   2.660   4.580 -0.0322 -0.2477  0.3376
11791W        W25205   2.729   7.520   6.427  0.2208 -0.1679  0.1959
11792W        W25206  14.152  10.382   6.561  0.0833  0.1680 -0.0940
11793W        W25207   3.295  14.113  14.030 -0.0028 -0.4069  0.2905
11794W        W25208   9.904   4.641   0.561 -0.2498 -0.1294  0.0290
11795W        W25209   0.352  15.299   3.196 -0.2825  0.1947 -0.3096
11796W        W25210  14.359   9.554   0.516 -0.0598  0.1987 -0.0430
11797W        W25211  18.004  15.575  11.245 -0.2321 -0.3988  0.2205
11798W        W25212   7.563  10.357  16.149 -0.1724 -0.0435 -0.0645
11799W        W25213  17.917  11.603  15.016 -0.2420  0.1350 -0.1141
11800W        W25214  15.302  14.428   2.593 -0.1320 -0.5926  0.3686
11801W        W25215   9.847   7.016   1.661  0.1054  0.2694  0.1477
11802W        W25216  11.584   2.712  13.617  0.1599 -0.2610 -0.1045
11803W        W25217   2.863   1.839   0.536 -0.0519 -0.1953  0.1414
11804W        W25218  13.746   7.241   0.187 -0.0757  0.0428  0.0271
11805W        W25219  11.386   9.356   2.232  0.0332  0.1979  0.1183
11806W        W25220   5.275   3.147  15.875 -0.1289  0.0585 -0.1251
11807W        W25221   9.487  14.062  14.817 -0.0215 -0.3023 -0.0420
11808W        W25222   9.660  15.107   0.511 -0.0147  0.3000 -0.2933
11809W        W25223   3.126  10.703   1.157 -0.1560 -0.1290  0.1485
11810W        W25224   7.718   6.267   4.841  0.3396 -0.1814  0.0418
11811W        W25225   6.135   0.542   3.626 -0.1436 -0.1169 -0.1345
11812W        W25226  14.470  12.535  13.164  0.1952 -0.0742  0.1079
11813W        W25227   9.081  15.454   4.681  0.1441  0.0902  0.1812
11814W        W25228  11.999   2.095  11.094 -0.0488  0.1756 -0.2403
11815W        W25229  17.475   6.323  14.402 -0.2341  0.3036  0.2294
11816W        W25230  10.969   9.902  15.076  0.3528 -0.4018  0.1223
11817W        W25231  12.090  14.150   0.244 -0.1134  0.2006 -0.1366
11818W        W25232  12.181  13.688   3.418 -0.0486 -0.1497  0.0647
11819W        W25233   9.580  15.340  13.108 -0.2929 -0.3117  0.2571
11820W        W25234  15.047   7.167   4.843  0.0761  0.1787  0.0374
11821W        W25235   3.986   4.779   4.227 -0.2801  0.3014  0.0008
11822W        W25236  12.985  13.555  11.850 -0.1217  0.0048  0.3390
11823W        W25237   1.257   2.255  12.962  0.1754  0.0597 -0.2559
11824W        W25238   3.485  16.423  14.459 -0.0909 -0.3236  0.1497
11825W        W25239  13.254   7.020   3.909 -0.0789  0.2017  0.1829
11826W        W25240   8.285  13.339   3.822  0.0991  0.2932  0.1152
11827W        W25241  17.861  10.574   2.083 -0.1106 -0.2556  0.0344
11828W        W25242   4.209   5.329   0.741  0.0226 -0.2043 -0.1285
11829W        W25243  11.462   1.682   1.777  0.2500  0.2593 -0.0813
11830W        W25244   4.345   6.397  10.842 -0.2805  0.2267  0.0076
11831W        W25245  10.441   2.550   1.950 -0.0376  0.1673 -0.2317
11832W        W25246   7.283  16.265   3.049  0.3396  0.1505  0.0648
11833W        W25247  10.772   9.184   3.450 -0.0957 -0.1164 -0.0796
11834W        W25248   9.448   9.546  12.799 -0.0121 -0.2855  0.0933
11835W        W25249  17.380  11.390  12.628  0.0414  0.4005  0.1490
11836W        W25250   3.107   7.934  14.593  0.0154 -0.1021  0.3058
11837W        W25251   9.514  11.455   4.605  0.2964 -0.0133  0.2389
11838W        W25252   1.135  12.625  12.887  0.2854 -0.0440 -0.0767
11839W        W25253   5.984   9.819   0.940 -0.1058 -0.2190  0.2334
11840W        W25254  12.725   0.703  13.655  0.1072 -0.1036  0.3913
11841W        W25255  15.918   8.218   2.657 -0.1777 -0.3862  0.0180
11842W        W25256  10.279   9.729  16.232  0.1623 -0.1192  0.1874
11843W        W25257   7.893   2.378   1.535 -0.0572  0.2320  0.0933
11844W        W25258  11.118  11.177   2.155  0.2367 -0.2046 -0.0837
11845W        W25259  17.462   3.425  11.178 -0.2268 -0.0692  0.3069
11846W        W25260   9.020   0.018  14.975 -0.0723 -0.1662 -0.2245
11847W        W25261  10.117   1.385  14.304 -0.0620  0.0133  0.1051
11848W        W25262   3.177  15.296  11.914 -0.3890  0.3997  0.0579
11849W        W25263   1.227  14.165   3.726 -0.1192  0.1378 -0.0592
11850W        W25264   4.561  10.489   0.660 -0.2422  0.1927 -0.2169
11851W        W25265  14.313   3.002   4.022  0.0336  0.3087 -0.0167
11852W        W25266  16.782   2.600  14.760 -0.0075  0.1746  0.0924
11853W        W25267   6.229  16.231   1.443  0.0422  0.3079  0.2184
11854W        W25268  15.853   3.040   4.025  0.1116  0.4169  0.0130
11855W        W25269  15.796   0.973   5.391  0.1086  0.0871 -0.1610
11856W        W25270   5.052  18.098  13.953 -0.4021  0.1579  0.1586
11857W        W25271   2.748  10.936  11.184 -0.0029 -0.2357  0.0595
11858W        W25272   6.065   6.676  10.496 -0.0876 -0.1181  0.0900
11859W        W25273  12.987  13.900  13.989 -0.2385 -0.1540  0.2587
11860W        W25274   2.515   6.540   5.466 -0.0600 -0.2606 -0.1295
11861W        W25275  10.959   7.785  15.825  0.0823  0.0161  0.0984
11862W        W25276   4.979   5.972   4.033 -0.0982 -0.0368  0.0665
11863W        W25277   4.995   4.705  13.425  0.0051 -0.3472 -0.0226
11864W        W25278   0.002   2.164  14.368  0.1055  0.0641 -0.0193
11865W        W25279   1.171   0.833   3.646  0.0754 -0.2183 -0.0073
11866W        W25280   7.846  13.485   0.793 -0.1935 -0.1910 -0.1805
11867W        W25281  15.295  10.236   4.365 -0.2854 -0.1329 -0.0344
11868W        W25282  18.242  12.157  12.067  0.2254  0.0109  0.3443
11869W        W25283  17.047   1.818  10.429 -0.0350  0.2691  0.1359
11870W        W25284   9.122   9.721  12.407 -0.0659 -0.0630 -0.0349
11871W        W25285  16.442   4.556   0.324  0.0215 -0.3321 -0.1769
11872W        W25286   9.964  10.662  14.542 -0.0855  0.1166  0.0830
11873W        W25287  17.035  17.318  11.038  0.1712 -0.1212  0.0522
11874W        W25288  10.062   6.361   0.867  0.1165  0.2186 -0.0261
11875W        W25289   5.802   9.633  11.403  0.0340 -0.1403 -0.1490
11876W        W25290   2.671  16.703   4.840 -0.3367  0.1009 -0.1742
11877W        W25291   0.438   1.784   0.000  0.0988  0.0230  0.0202
11878W        W25292   7.005  15.386   4.961  0.2217  0.1230 -0.2293
11879W        W25293  13.162   7.916  13.714  0.2496  0.1689  0.0823
11880W        W25294  16.242   0.707  14.992  0.1015  0.0338  0.3165
11881W        W25295  12.404  13.682   0.257 -0.1709  0.0449 -0.2939
11882W        W25296   7.725   9.257   3.655 -0.4243 -0.1432  0.5208
11883W        W25297  13.152   1.926  15.638  0.0183  0.1563 -0.0544
11884W        W25298   7.442   6.988   5.373 -0.0793  0.3473 -0.1860
11885W        W25299   5.474   9.513   5.089  0.0021  0.2752  0.2155
11886W        W25300  12.103  12.206  12.287 -0.2418  0.2042 -0.3024
11887W        W25301  12.762   6.057  13.924 -0.0476  0.3205  0.5419
11888W        W25302   3.676   8.414   3.111  0.0167  0.1880 -0.3065
11889W        W25303   6.301  10.358  14.540  0.0584  0.0613 -0.1622
11890W        W25304  11.341  11.322   2.955  0.1250 -0.1529 -0.1396
11891W        W25305   5.610  11.382   3.519  0.1061 -0.0572 -0.1982
11892W        W25306  15.774   5.465  12.681 -0.0783 -0.1845  0.0059
11893W        W25307  18.061   2.535  11.836  0.4307 -0.0714 -0.0795
11894W        W25308  11.373   1.508   5.246  0.1951 -0.0104 -0.0665
11895W        W25309  11.208   2.559  11.218  0.2937 -0.0853 -0.1685
11896W        W25310   1.525   1.466  12.940  0.0516  0.2261  0.2482
11897W        W25311  10.577   4.773   2.562 -0.4098  0.2170 -0.6684
11898W        W25312   7.168   8.565  14.656 -0.2036 -0.0005  0.2382
11899W        W25313  17.875  12.728   3.657  0.2833 -0.0160  0.1041
11900W        W25314   2.658   3.300  12.326 -0.1767 -0.3123  0.3002
11901W        W25315  12.630  13.417   2.686 -0.0425  0.1805  0.0372
11902W        W25316   1.946   1.457   3.887 -0.0046 -0.0850  0.1140
11903W        W25317  17.815  15.547  14.338  0.0021 -0.0528  0.1081
11904W        W25318  12.379   1.212  14.829 -0.0242 -0.2469  0.0137
11905W        W25319  14.161   0.230  15.153 -0.0657 -0.1962  0.1532
11906W        W25320  14.921   9.857   4.519 -0.1905 -0.2639  0.1808
11907W        W25321   1.740  10.550  15.614 -0.0408  0.0835  0.0159
11908W        W25322   0.488  10.212  16.212 -0.0113 -0.0449 -0.0952
11909W        W25323   3.402   6.641   4.665  0.0219  0.2336 -0.0218
11910W        W25324  13.615  11.792  11.328  0.2939 -0.1304 -0.0357
11911W        W25325  12.279  10.295   3.522 -0.0797  0.1171  0.0334
11912W        W25326  14.785  12.691  10.024 -0.1316 -0.0371 -0.0447
11913W        W25327  12.213  16.312   1.952  0.0872  0.1304 -0.0611
11914W        W25328   7.436  16.592   1.515 -0.0957  0.0615 -0.2296
11915W        W25329   4.403   9.516  11.898 -0.4911 -0.0071 -0.1628
11916W        W25330   2.230  13.665   1.278 -0.0208 -0.0870  0.1624
11917W        W25331  11.825  15.249   0.238 -0.0683  0.2828 -0.1904
11918W        W25332   0.276  17.163   1.151 -0.2092  0.0472 -0.0701
11919W        W25333   2.289   2.859   0.434  0.1689  0.0303 -0.3376
11920W        W25334   2.318  11.576   5.841  0.1426  0.1520  0.1293
11921W        W25335  12.536   2.381  15.320 -0.0262  0.1242 -0.1302
11922W        W25336  14.708   9.510   0.874  0.2421  0.1738 -0.4346
11923W        W25337  14.456   0.622  13.925 -0.2761 -0.0804  0.0058
11924W        W25338  11.102  16.843   4.092  0.1929  0.1903 -0.1603
11925W        W25339   1.107  17.054   4.536  0.1492  0.1959  0.1699
11926W        W25340   1.759   1.164  14.869 -0.3244 -0.2006 -0.0333
11927W        W25341   7.170   9.629   5.868  0.1220  0.1651 -0.1344
11928W        W25342  11.147   9.721  15.583 -0.1381  0.1831 -0.2562
11929W        W25343   3.705  12.065   5.168 -0.0863  0.2146 -0.1126
11930W        W25344  11.426   7.225   5.716  0.2768  0.0314 -0.0100
11931W        W25345  13.438  17.184   5.823  0.1240 -0.0137 -0.0598
11932W        W25346   8.021  13.677  11.587  0.2174  0.3230  0.0161
11933W        W25347   3.607  10.896   1.206  0.3932 -0.2083 -0.3761
11934W        W25348   0.424   5.719   5.193  0.0630 -0.1824 -0.3839
11935W        W25349  10.992   2.055  14.316  0.3648 -0.1033 -0.1107
11936W        W25350   9.330   0.367  11.007 -0.1197  0.5330 -0.0562
11937W        W25351  17.809   9.199   3.842 -0.0670  0.0067 -0.0708
11938W        W25352  17.700  11.142  13.019 -0.1529 -0.2508 -0.0222
11939W        W25353   2.109  10.227  15.338  0.1425 -0.0690 -0.0026
11940W        W25354  11.529  16.620   1.479 -0.3258 -0.3483 -0.1199
11941W        W25355  14.125  16.869   2.431 -0.0770  0.0484  0.0322
11942W        W25356   6.464   1.535  10.252  0.0845 -0.2211  0.0039
11943W        W25357  12.376   5.964  15.406 -0.2188  0.1725  0.1533
11944W        W25358  10.050   3.027  11.028  0.1488 -0.2642  0.4032
11945W        W25359   0.848   4.089   4.262  0.0163 -0.0645  0.1377
11946W        W25360   5.558   8.045   1.145  0.0939 -0.0314 -0.1457
11947W        W25361   4.709  11.350   6.230  0.0972 -0.1040 -0.2855
11948W        W25362   3.610   3.536   5.461 -0.1891 -0.0407  0.2567
11949W        W25363  13.295   8.747  15.364 -0.0882 -0.0412 -0.0824
11950W        W25364  12.112  15.798  11.385  0.1236 -0.1460  0.3848
11951W        W25365  10.120  11.673  10.627 -0.1044  0.0078 -0.1483
11952W        W25366   8.865   4.940   3.388  0.0901 -0.0323 -0.1608
11953W        W25367  14.266  11.723   6.298 -0.0885 -0.0368  0.3268
11954W        W25368   9.400   5.071   5.907 -0.0924  0.1041  0.0500
11955W        W25369  15.877  10.366  16.141 -0.0607  0.2270  0.2677
11956W        W25370  17.799  11.913   6.334 -0.1752  0.2496 -0.1182
11957W        W25371   2.865   3.784  11.297  0.0215 -0.0364  0.1519
11958W        W25372   0.988   6.567   6.582  0.0564 -0.5149 -0.2137
11959W        W25373   3.238  16.075   4.283 -0.2004 -0.2362 -0.0675
11960W        W25374   5.031   3.289   2.076 -0.1646  0.0481 -0.0875
11961W        W25375  16.189   7.367   5.514  0.0223  0.0232  0.0042
11962W        W25376   7.698   6.543   1.362 -0.0117 -0.2605 -0.0061
11963W        W25377   5.755   6.347   2.631  0.1440 -0.0687 -0.0578
11964W        W25378  10.785   1.987   0.985 -0.2283  0.0737 -0.0729
11965W        W25379   9.751   1.026  14.338 -0.3201 -0.1601  0.0188
11966W        W25380   9.478  16.878   1.679 -0.0992  0.1779  0.0506
11967W        W25381  17.971   7.315   6.432  0.2007 -0.1247  0.0926
11968W        W25382   4.064   3.938   4.554 -0.0082 -0.3175 -0.0710
11969W        W25383   4.898   1.060   0.711 -0.1583 -0.1428  0.1184
11970W        W25384  12.024  11.139   1.421  0.0163 -0.1065 -0.0615
11971W        W25385  17.326   9.512  11.651  0.0283  0.0513  0.1003
11972W        W25386  10.358  17.675  16.125  0.1848  0.0657 -0.2408
11973W        W25387   0.513  13.113   5.143  0.2426 -0.3056  0.0317
11974W        W25388  16.557   5.976  14.467 -0.0001 -0.1317 -0.2176
11975W        W25389   1.907  13.073  13.676 -0.0370  0.2191  0.0651
11976W        W25390  14.649  10.923  10.508 -0.0415 -0.0813 -0.0722
11977W        W25391   2.992  13.054   3.825  0.0133  0.1227 -0.0666
11978W        W25392   2.324  16.547   2.832 -0.0006  0.1807  0.1293
11979W        W25393  15.701  17.737   1.745 -0.1059  0.2618  0.0758
11980W        W25394   7.539   5.940  13.591 -0.0442  0.0693  0.1747
11981W        W25395   6.088  15.469   1.007  0.0755 -0.1133  0.1623
11982W        W25396   9.075   9.317  12.152  0.1825  0.0288  0.0671
11983W        W25397   4.326  16.114  14.163 -0.2851  0.1017  0.1430
11984W        W25398   3.740  11.119  16.195 -0.0957 -0.1587  0.1104
11985W        W25399   4.693   1.731   3.221  0.0744 -0.0110  0.1045
11986W        W25400   0.288   4.274  11.259 -0.2970 -0.1393 -0.3183
11987W        W25401   1.800  11.571   4.209  0.2611 -0.0911  0.0158
11988W        W25402   4.165  10.103   1.488  0.1914  0.4041 -0.1882
11989W        W25403   5.250  11.829   3.448  0.2120 -0.1132 -0.1928
11990W        W25404  14.865   8.776   0.138 -0.1319  0.2785 -0.0783
11991W        W25405   8.756   7.499  16.227 -0.0775  0.1466 -0.1239
11992W        W25406   0.830   3.976  12.050 -0.3624 -0.0602 -0.3247
11993W        W25407   4.290  13.219   1.633 -0.2439 -0.2427 -0.1535
11994W        W25408   4.766  14.432   5.514  0.1141  0.2113 -0.0811
11995W        W25409  14.725   8.468   0.874 -0.2615 -0.2129  0.0332
11996W        W25410   9.809   2.167  10.464  0.1878  0.3328 -0.4368
11997W        W25411   9.610  15.563  11.997  0.1978 -0.2037 -0.0149
11998W        W25412  12.523  16.355   5.161  0.4600  0.1388  0.0036
11999W        W25413  11.316   4.064  15.480 -0.1170  0.1708  0.1010
12000W        W25414   4.158  13.989   0.084  0.1204  0.2089 -0.1104
12001W        W25415  14.586   2.013   4.050 -0.0844  0.2920 -0.0765
12002W        W25416   5.069   4.265  10.313  0.0845  0.1238  0.3257
12003W        W25417  12.537  15.740   0.400  0.0454  0.3905 -0.0950
12004W        W25418   1.915  13.366  10.433 -0.1956 -0.0185  0.1067
12005W        W25419  17.679   5.270   2.783 -0.3123 -0.0413  0.0647
12006W        W25420   1.078   4.689   2.130 -0.1113 -0.0578  0.0217
12007W        W25421  14.718  16.071  15.210 -0.4043 -0.1169 -0.1014
12008W        W25422  16.319  16.365  10.319  0.1023 -0.2192  0.0594
12009W        W25423   7.175  15.331  15.905 -0.2935 -0.1089  0.1025
12010W        W25424   7.136   0.820  13.755  0.0757 -0.1949 -0.0811
12011W        W25425  17.281  15.448   1.505  0.0144  0.0698 -0.2801
12012W        W25426   5.313  11.396   5.540  0.0306  0.0543 -0.0036
12013W        W25427   0.356   3.495  10.646  0.1491 -0.0019  0.1186
12014W        W25428  15.920   2.990  15.750 -0.0969  0.2116  0.0585
12015W        W25429  17.368  13.386   3.909 -0.0392  0.4980  0.0928
12016W        W25430  17.281  16.090  12.321  0.0444  0.1183 -0.2036
12017W        W25431   0.042   1.103   1.090 -0.2295 -0.0923 -0.0574
12018W        W25432   1.864   9.430  14.941 -0.0990  0.1820 -0.1123
12019W        W25433   2.741   1.234   5.560  0.1646 -0.1230  0.0204
12020W        W25434   7.406   3.159   3.124 -0.1021  0.3225  0.2278
12021W        W25435  17.354  10.004  10.983  0.0248  0.0677 -0.0640
12022W        W25436   3.543   3.327  14.737 -0.1556 -0.0855 -0.5158
12023W        W25437   9.987  14.616   3.385 -0.2876 -0.1930 -0.1844
12024W        W25438  17.150  12.914   5.726  0.1484 -0.0014 -0.0109
12025W        W25439  12.693  11.974   5.366 -0.2678  0.3152 -0.3939
12026W        W25440   5.653   4.814   4.634 -0.0525  0.2531  0.0809
12027W        W25441   8.948  17.216   4.788 -0.0074 -0.2336  0.0793
12028W        W25442   4.323  14.684  15.621 -0.1370  0.1245  0.2282
12029W        W25443   0.090  10.837  11.097 -0.0656  0.0076  0.0501
12030W        W25444   1.533  17.976  11.066  0.0572 -0.2182 -0.0659
12031W        W25445  14.876   1.208  14.975 -0.0017  0.2368  0.3006
12032W        W25446  17.547   7.578   0.456  0.1923 -0.1156  0.0074
12033W        W25447   2.154   7.256   3.939  0.3324  0.1619 -0.1106
12034W        W25448   3.506   8.698   2.500  0.3381 -0.0601 -0.0621
12035W        W25449   0.810  10.573  14.091  0.0387 -0.0788  0.3052
12036W        W25450   2.729   2.670   0.546 -0.2372  0.3553  0.0132
12037W        W25451  12.855   8.094   1.157 -0.2093 -0.1361 -0.2180
12038W        W25452   6.804   9.261   3.974  0.0589  0.0747 -0.1791
12039W        W25453   7.859  15.796  13.022  0.2328  0.0571  0.0565
12040W        W25454   3.843   1.574   3.622 -0.1876 -0.1931  0.0382
12041W        W25455  10.421  10.743   3.772 -0.0220  0.1240  0.0615
12042W        W25456  10.357   6.010   0.600 -0.1407  0.0820 -0.1802
12043W        W25457   2.960  15.878   2.312 -0.3519  0.3163  0.0949
12044W        W25458   4.757   4.840   3.163  0.2157  0.0218 -0.0563
12045W        W25459  13.537  18.005  15.475  0.0895  0.2494 -0.0334
12046W        W25460   7.683  11.517  15.215 -0.0945  0.2487 -0.2212
12047W        W25461   7.663   9.179   0.409 -0.0212  0.4479 -0.0067
12048W        W25462   1.614  17.042   3.065  0.2671  0.1771 -0.1535
12049W        W25463  10.891  13.986   3.930  0.0803 -0.2207  0.2079
12050W        W25464  12.960   4.512   1.922 -0.0761  0.0374  0.2995
12051W        W25465   5.276   7.709  13.534 -0.2060  0.0737  0.0313
12052W        W25466   7.543   9.294   5.787  0.1066  0.1638  0.0274
12053W        W25467   8.284   9.810   4.885 -0.0513 -0.0368  0.0600
12054W        W25468  16.384  14.892  10.958  0.1470 -0.1980  0.2850
12055W        W25469  17.727   3.244   1.582 -0.0116  0.2774 -0.1832
12056W        W25470  10.032   0.182  11.752  0.1866  0.0475  0.0743
12057W        W25471   2.813   2.053   1.882 -0.3842 -0.1320  0.0838
12058W        W25472   6.076  11.074  13.279 -0.3098 -0.4486  0.3006
12059W        W25473   3.295  17.474  14.760 -0.1139  0.2298 -0.1238
12060W        W25474   3.159   5.032   3.837  0.1536 -0.0995  0.0357
12061W        W25475  13.665  16.850   5.320  0.1608  0.1920  0.0511
12062W        W25476  15.285   8.428   5.451 -0.0493  0.0952  0.3921
12063W        W25477  17.412   0.814  11.493  0.1325 -0.2300 -0.0099
12064W        W25478   4.213  12.294   4.504  0.0639  0.2862 -0.1076
12065W        W25479  12.125   7.559  12.572  0.0019 -0.0269 -0.0978
12066W        W25480  10.284   7.771  13.528 -0.0365  0.0364 -0.0893
12067W        W25481  17.493   0.886  15.527 -0.0071  0.0400 -0.1294
12068W        W25482  18.113  15.945   0.442  0.0101  0.1377  0.0114
12069W        W25483   5.632   6.294   0.590  0.0505 -0.0046  0.1049
12070W        W25484  12.549   4.888   5.126 -0.2028 -0.1425  0.2071
12071W        W25485  18.146   4.544  12.174 -0.0784 -0.1520 -0.3117
12072W        W25486  11.239  15.479   3.314  0.0232  0.1685 -0.1060
12073W        W25487   5.230  17.466   3.574 -0.1825  0.1327 -0.0254
12074W        W25488   9.043  16.482  16.247  0.0279 -0.0703  0.2428
12075W        W25489   0.614   5.852  15.706  0.0693  0.2633  0.0283
12076W        W25490  10.236   6.203   4.054 -0.2636  0.3496  0.0183
12077W        W25491   3.900  10.740  14.686 -0.3059  0.1764  0.0847
12078W        W25492   3.973   1.783  12.541  0.1813  0.0100  0.1530
12079W        W25493  11.019   4.096   3.328 -0.0270  0.3566  0.0229
12080W        W25494  11.147  10.152   1.128 -0.1411  0.2569 -0.0641
12081W        W25495  10.485   8.248   0.502  0.2582  0.1827  0.0347
12082W        W25496   3.018   6.989   3.966 -0.2244 -0.3035  0.2222
12083W        W25497  10.343   5.773  14.591  0.0878  0.0967  0.3449
12084W        W25498   5.710  14.302   3.736  0.4250  0.3762 -0.0498
12085W        W25499   9.029  11.785   0.652  0.2267  0.0369 -0.1701
12086W        W25500   9.971  16.395  16.148 -0.0942  0.2326 -0.0017
12087W        W25501   7.063   6.810   1.850  0.0030  0.1098 -0.1851
12088W        W25502  11.648   7.176   0.578 -0.2471 -0.2505 -0.2677
12089W        W25503   9.366   3.798   5.019  0.0231 -0.0932  0.0140
12090W        W25504   9.567   8.696   0.349  0.0667 -0.0921 -0.1949
12091W        W25505  13.887  14.688   5.265  0.2084  0.3114  0.1124
12092W        W25506  10.672  13.276   5.006 -0.2374  0.2136 -0.0228
12093W        W25507   6.709   4.573  12.785  0.2464 -0.0424 -0.3209
12094W        W25508  17.229   9.186  13.107  0.1018  0.2661 -0.2238
12095W        W25509   4.554   9.742  15.918 -0.2536 -0.1231  0.0703
12096W        W25510  13.139   6.429   1.925  0.0451 -0.2957 -0.1986
12097W        W25511  12.352   2.839  15.585 -0.0818  0.2428  0.3197
12098W        W25512   8.749   5.500   2.200  0.0994 -0.0962  0.0599
12099W        W25513   5.559  13.174  12.808 -0.2407 -0.2205 -0.2561
12100W        W25514   7.947  15.142  11.622 -0.0038  0.1648 -0.2293
12101W        W25515  15.019  17.139   1.385  0.2581  0.3324  0.1857
12102W        W25516   3.632   3.044   0.635 -0.0989 -0.0212 -0.0603
12103W        W25517  15.648  11.987   3.142 -0.1112 -0.0373 -0.0251
12104W        W25518   2.764  16.250   5.012  0.1548  0.4295  0.0047
12105W        W25519   8.202   0.855   2.530  0.0873  0.2230  0.0949
12106W        W25520   1.144   4.170   2.934 -0.0201  0.1024  0.1715
12107W        W25521  10.941  16.271  11.811  0.0126  0.0138 -0.4667
12108W        W25522  11.951  10.557  12.955  0.1179 -0.0473  0.1054
12109W        W25523   2.021   0.568   4.407 -0.0939 -0.0567 -0.0277
12110W        W25524   3.271   9.229  11.888 -0.1283 -0.2146  0.2523
12111W        W25525  11.275   6.278   6.080  0.2447  0.0529 -0.2975
12112W        W25526  17.475   2.276   9.927  0.0897 -0.3903 -0.0197
12113W        W25527  11.078  10.340   3.686 -0.0224 -0.3312  0.3037
12114W        W25528   3.304  14.007  11.451  0.0306 -0.0577  0.1157
12115W        W25529  12.812   8.562  13.115 -0.0773  0.2526  0.2860
12116W        W25530  16.880   4.428  13.037  0.1039  0.0288 -0.3478
12117W        W25531  11.365   6.557  16.488  0.0537  0.1499  0.2148
12118W        W25532   2.194  12.420   1.006  0.0654 -0.2908  0.2528
12119W        W25533  16.003   3.631  14.585  0.2585  0.0743 -0.1673
12120W        W25534  14.547   4.477   1.132 -0.1570 -0.2844  0.2914
12121W        W25535   2.360  12.521   0.434 -0.0141  0.0058 -0.5040
12122W        W25536  17.599  12.976  12.113  0.0426 -0.3186 -0.0795
12123W        W25537   4.429   1.165   0.478 -0.0284  0.1070 -0.0936
12124W        W25538   9.178   5.328   3.496 -0.3931  0.0768 -0.0425
12125W        W25539   2.826  13.848  13.003  0.0426 -0.2074  0.0619
12126W        W25540  16.178   7.249   4.289  0.4498 -0.2393  0.1671
12127W        W25541  15.608  17.577  12.868 -0.2406  0.1296  0.0434
12128W        W25542   5.488  17.186  14.730  0.4714  0.3250 -0.0890
12129W        W25543   1.683  12.520   5.558 -0.2087  0.1224  0.2078
12130W        W25544  14.075  10.047  14.150  0.0158 -0.0734 -0.1914
12131W        W25545   6.339  12.463   0.770 -0.1921  0.0208  0.1475
12132W        W25546  12.272  12.196  14.420 -0.1472 -0.0317 -0.0028
12133W        W25547   7.815  15.428   1.022  0.1301  0.1990  0.0746
12134W        W25548  14.737   3.985  13.946 -0.3028  0.1572  0.0079
12135W        W25549  12.566   0.655   1.792  0.2197 -0.2270 -0.0137
12136W        W25550   7.331   0.300  15.834  0.3304  0.2638 -0.0582
12137W        W25551  12.064   8.993   4.573 -0.1965  0.0526 -0.1093
12138W        W25552   3.040  10.152  15.736  0.0433  0.0870 -0.3133
12139W        W25553   3.621  12.914   4.707 -0.2276 -0.0469 -0.0797
12140W        W25554   9.511   4.036   2.927 -0.0247 -0.0031  0.2756
12141W        W25555   9.551   9.431  12.290  0.1673  0.0314  0.1835
12142W        W25556   1.756  13.048  11.818  0.3833 -0.1200 -0.0858
12143W        W25557  16.413   3.739  16.303  0.0937  0.3007  0.0005
12144W        W25558   4.941   4.737   0.962 -0.0361 -0.1744  0.2640
12145W        W25559  11.146  16.367   3.843  0.0596 -0.0347  0.0792
12146W        W25560  16.056   9.239   5.788 -0.3796 -0.3166 -0.4533
12147W        W25561   6.259  17.174   0.873 -0.0056 -0.0984  0.2735
12148W        W25562  15.749   1.645   1.580 -0.0392  0.4125 -0.0760
12149W        W25563  15.004  12.480  12.437  0.0458  0.0333 -0.2140
12150W        W25564  17.587   2.520  13.742  0.0869  0.1205  0.2109
12151W        W25565  14.885  12.375   4.983 -0.2261 -0.1749 -0.0474
12152W        W25566  12.697   3.961   0.739  0.3402  0.0257  0.2146
12153W        W25567  11.123   6.626   1.855  0.0026  0.1158  0.2405
12154W        W25568   4.590   5.269  11.613 -0.0145 -0.0697  0.2416
12155W        W25569  17.427   2.404  13.015 -0.0924  0.4021  0.1003
12156W        W25570   6.451   6.466   0.186 -0.3438 -0.0562 -0.2173
12157W        W25571   7.661  13.549   0.345  0.0161 -0.1270 -0.2962
12158W        W25572  13.852   4.940   5.547 -0.0709  0.0532  0.0103
12159W        W25573   1.423  15.374  13.870 -0.1182  0.0530  0.1185
12160W        W25574  16.908   6.827  13.433  0.0852  0.2081 -0.0823
12161W        W25575  17.379  10.973  14.690 -0.1269 -0.2027 -0.2423
12162W        W25576  13.314   3.389   3.207 -0.2238  0.1699  0.2000
12163W        W25577   5.474  10.510   0.282 -0.2718  0.0410  0.0186
12164W        W25578  17.088  16.516  13.215  0.5215 -0.1854  0.2331
12165W        W25579  17.495  12.793   2.250 -0.2040  0.1729  0.2580
12166W        W25580   9.577   1.632   3.126 -0.1247  0.0023 -0.0530
12167W        W25581  14.023  15.799  13.663 -0.0460 -0.0450 -0.1812
12168W        W25582  11.005  10.977   3.115  0.1645  0.1393 -0.3980
12169W        W25583   7.087   8.409  11.010 -0.0786 -0.1565  0.3809
12170W        W25584  11.126   1.168  13.184  0.2033 -0.0824 -0.2542
12171W        W25585   1.530  16.601   5.051 -0.0963 -0.1681  0.1323
12172W        W25586   8.239   7.884   1.166 -0.3164  0.0167  0.0876
12173W        W25587  11.511   2.084  15.830  0.0906 -0.2018  0.1023
12174W        W25588  13.470   3.885   3.144  0.1734  0.0355 -0.0334
12175W        W25589   7.495  15.601  14.369 -0.2712  0.0672 -0.1351
12176W        W25590   2.050   9.236   6.187  0.1066  0.0331 -0.3424
12177W        W25591  17.863   6.889   6.110 -0.1588  0.0052  0.0752
12178W        W25592   1.860  10.710   5.546  0.1572 -0.2445  0.0324
12179W        W25593  14.314   4.768  16.381 -0.0774 -0.0076  0.1799
12180W        W25594   8.673   3.452   4.260 -0.1013  0.1115  0.1649
12181W        W25595   5.849  12.047   2.895  0.1972  0.0900 -0.2980
12182W        W25596  11.379   1.458  12.716 -0.3673 -0.2210 -0.1977
12183W        W25597  16.374  16.148  14.972  0.5655  0.2092  0.0703
12184W        W25598   7.160  14.496   5.432  0.1061 -0.1984  0.2275
12185W        W25599   2.101  10.167  11.520  0.0162 -0.1456 -0.0908
12186W        W25600  16.759  15.420   2.674  0.2146 -0.2256  0.2461
12187W        W25601   8.620  14.159  13.633 -0.1462  0.0731  0.2325
12188W        W25602  12.988  17.698  16.377  0.1491 -0.2208  0.2074
12189W        W25603  16.530   2.327  13.121 -0.2186 -0.2096  0.0959
12190W        W25604  10.250   9.089  10.114 -0.3184  0.0079  0.3001
12191W        W25605   9.293  13.198  14.606 -0.0887 -0.0109  0.0899
12192W        W25606  13.609  18.073  13.274  0.0928  0.0026  0.0481
12193W        W25607  15.488   8.212   0.396 -0.0953  0.1261  0.0636
12194W        W25608  12.214   8.228   0.458  0.2681  0.0227  0.1557
12195W        W25609   4.724   0.663   5.897  0.0751 -0.0869 -0.0303
12196W        W25610   7.132   4.544   3.095  0.2472 -0.1308 -0.2393
12197W        W25611   0.460  12.196  13.647 -0.1048  0.0295 -0.0540
12198W        W25612  12.996   3.524  15.072 -0.3359  0.2613 -0.1969
12199W        W25613   4.903   2.830   1.961 -0.0166 -0.3169  0.3135
12200W        W25614   2.725  11.903  12.227  0.1831 -0.4543  0.2243
12201W        W25615  15.340   7.517   3.675 -0.1224  0.0470  0.0952
12202W        W25616   1.393   2.863   3.983 -0.4437 -0.0174  0.2784
12203W        W25617  10.025  16.915  12.776 -0.0857 -0.1264  0.0208
12204W        W25618   2.787   4.745  12.315 -0.0693  0.0267 -0.1062
12205W        W25619   6.443  12.684   3.253 -0.3848 -0.0654 -0.3555
12206W        W25620   3.356   9.477   4.532  0.4349 -0.0146 -0.1067
12207W        W25621   1.748  17.476  15.957  0.0554 -0.1334 -0.1820
12208W        W25622  17.722  16.822   5.157  0.0280  0.5028 -0.0348
12209W        W25623  16.014  16.714   5.912 -0.0286  0.1464 -0.2049
12210W        W25624   2.046  17.836   4.197 -0.0606  0.1885  0.2662
12211W        W25625   7.991   5.112   0.100 -0.0793  0.2431 -0.0428
12212W        W25626  15.494   7.650  13.702 -0.1375 -0.0435  0.0976
12213W        W25627  15.933  11.001  16.326  0.0137  0.1870 -0.0477
12214W        W25628  16.276  17.071  14.562  0.1887  0.0076 -0.1100
12215W        W25629  15.577  10.191   6.054 -0.1012 -0.2072 -0.2390
12216W        W25630   5.719  16.019   0.356 -0.2180 -0.3390  0.5696
12217W        W25631   1.794  11.340   3.509 -0.0348 -0.3790 -0.0075
12218W        W25632  15.911  12.097  10.814  0.0023  0.2179  0.1568
12219W        W25633   7.236  13.398  12.997 -0.0769 -0.1521  0.2774
12220W        W25634   8.919   4.822   4.361 -0.1335 -0.1035 -0.1555
12221W        W25635  12.966  14.049  13.059  0.0513 -0.2765 -0.0843
12222W        W25636  12.454   0.217  14.869 -0.2035 -0.2046 -0.2268
12223W        W25637   6.848  17.121  13.841 -0.2423 -0.0554  0.1722
12224W        W25638   7.899   5.196   1.047 -0.2833  0.1446  0.0471
12225W        W25639   6.457   9.801  14.593  0.0783 -0.1997  0.0513
12226W        W25640  14.219  18.048  13.301  0.2320 -0.0805  0.0857
12227W        W25641  14.299   4.352   2.482 -0.0651  0.4088  0.0267
12228W        W25642  12.209   7.310   2.552  0.0411 -0.2462  0.1384
12229W        W25643   5.233  11.620   4.513  0.1499  0.1609 -0.0639
12230W        W25644  16.577   8.567  15.799 -0.1204  0.0535 -0.0191
12231W        W25645   7.088   1.833  13.290 -0.1394  0.1774  0.1310
12232W        W25646   2.731  15.030  11.992 -0.2831  0.0234  0.2272
12233W        W25647  14.601   7.042   0.071  0.1221 -0.1424  0.1817
12234W        W25648   1.537  10.749   1.900  0.0874  0.3966  0.0908
12235W        W25649   4.779   7.503   1.911  0.2207  0.3432  0.0586
12236W        W25650   6.838   2.357  14.575  0.0076 -0.3294 -0.4647
12237W        W25651  12.862  15.464  10.207 -0.0323  0.2994  0.1277
12238W        W25652  16.053  11.599  14.244  0.2785  0.1076  0.0780
12239W        W25653  16.643   1.694   2.691 -0.0582  0.3426  0.1006
12240W        W25654   2.761  13.808   4.250 -0.0413 -0.0995 -0.0496
12241W        W25655   6.418   1.178  12.805 -0.0499 -0.2523 -0.0739
12242W        W25656  17.678   8.376  12.937  0.1592  0.1648 -0.1571
12243W        W25657   9.126   6.172  13.939 -0.0609  0.0380  0.1449
12244W        W25658  13.808  12.639   2.805  0.3778 -0.0400 -0.0136
12245W        W25659   8.705   6.412   2.121  0.1852 -0.0114  0.1014
12246W        W25660  17.141   8.452   0.016 -0.3481 -0.1905  0.0315
12247W        W25661   9.729  17.383  13.869 -0.0136 -0.0146  0.1630
12248W        W25662   3.475   7.083  13.019 -0.0924  0.1281  0.0278
12249W        W25663   8.166  13.872   5.907 -0.0006  0.1423  0.1580
12250W        W25664   4.934   2.940  11.231  0.0016  0.2560 -0.1687
12251W        W25665  16.276   1.824   6.118 -0.1266  0.0901 -0.2825
12252W        W25666   5.688   2.798   3.286 -0.0479  0.1304  0.2162
12253W        W25667  10.627   6.830   2.497 -0.0915 -0.4598  0.2903
12254W        W25668   2.614   9.397  14.190 -0.0439  0.1149  0.2733
12255W        W25669   5.025   9.398  15.855  0.4166 -0.5111  0.1001
12256W        W25670  11.789   5.160  15.062 -0.2143  0.3588  0.0475
12257W        W25671   0.974   2.046   0.668 -0.0398 -0.0556  0.1011
12258W        W25672   4.816   6.129  15.716 -0.0494 -0.0002 -0.0614
12259W        W25673  15.358   1.009   3.714 -0.0274  0.0192 -0.2736
12260W        W25674   7.064   5.865   4.175 -0.0970  0.2051 -0.5475
12261W        W25675  12.106   8.970   0.367 -0.0551  0.2045 -0.0327
12262W        W25676   5.298  13.022   0.943  0.0183 -0.2726 -0.0524
12263W        W25677  12.879   5.109  14.307 -0.0169  0.0396 -0.1540
12264W        W25678  14.479  13.836   2.470  0.0226 -0.1573 -0.1912
12265W        W25679  17.441  11.540   5.627 -0.0873  0.0098  0.0923
12266W        W25680  17.227   1.004  12.922 -0.2391 -0.0085  0.0404
12267W        W25681  18.079   6.065  16.190 -0.2068 -0.0520 -0.1874
12268W        W25682   7.413  16.486  11.749  0.0927  0.1278  0.0219
12269W        W25683   4.168   0.902   9.851  0.0867  0.0424 -0.0633
12270W        W25684   4.722  17.046   2.866  0.0322  0.0006  0.0541
12271W        W25685  13.929   3.131   3.670 -0.0660 -0.0285 -0.0717
12272W        W25686   5.845   1.938   2.552 -0.0109  0.1790  0.0816
12273W        W25687  16.767   6.981  14.412 -0.0418  0.0248  0.0221
12274W        W25688   3.563  16.435  15.992 -0.2708 -0.3194 -0.2731
12275W        W25689  12.633   1.171   5.806  0.0249  0.0718 -0.0819
12276W        W25690   4.430   5.677  15.345 -0.2875 -0.0687  0.2625
12277W        W25691  14.345   1.713  11.854 -0.1293 -0.0246  0.1116
12278W        W25692   9.565   1.487  11.692  0.1205  0.2041  0.3319
12279W        W25693   6.701  16.379  16.314 -0.0441 -0.1882 -0.0422
12280W        W25694  14.963   2.140  11.554 -0.3542  0.0928 -0.1430
12281W        W25695  16.898   9.612   5.159  0.0041  0.0288 -0.0322
12282W        W25696   3.911  10.325  15.709  0.2286  0.1166  0.0183
12283W        W25697   5.538   3.597   2.987  0.0164  0.0818 -0.0691
12284W        W25698   4.023  17.481  10.718  0.0179 -0.1425  0.0596
12285W        W25699   4.323   7.245  16.423 -0.0981  0.3979 -0.0169
12286W        W25700  14.460   2.370   4.443  0.0688  0.0478  0.1290
12287W        W25701   3.546   5.731  10.878 -0.0085 -0.0788 -0.0009
12288W        W25702   5.302  15.531  14.031  0.0463  0.1833  0.0109
12289W        W25703   2.350   7.403  12.098  0.0038 -0.1085 -0.1752
12290W        W25704   6.078  10.831  11.630 -0.2858 -0.0015 -0.0100
12291W        W25705  11.497  16.849   2.110 -0.0759 -0.1721 -0.0213
12292W        W25706  16.844   9.716   0.880 -0.1050  0.0444  0.0318
12293W        W25707  11.899   7.542  14.703 -0.1939  0.0557  0.0893
12294W        W25708   1.967  17.389   3.353 -0.1093 -0.1438 -0.2700
12295W        W25709  13.291   6.013  15.940 -0.1036  0.2787 -0.3317
12296W        W25710  14.920   6.967  14.264  0.1103 -0.1135  0.0618
12297W        W25711   2.374  16.044   4.704  0.2000  0.0798  0.0678
12298W        W25712  16.137  10.182   5.900  0.1796 -0.0494 -0.1385
12299W        W25713   1.508   0.284   5.612  0.3008  0.0846 -0.0104
12300W        W25714   8.743   5.856  15.526  0.0827 -0.3117  0.1659
12301W        W25715   5.918   6.620  14.905 -0.2822 -0.1124 -0.0550
12302W        W25716  16.346   7.807   3.461  0.3165  0.2055 -0.0642
12303W        W25717  18.249  15.684   1.296  0.2383 -0.0165  0.1489
12304W        W25718   4.842   1.716  14.279 -0.1070 -0.0444 -0.1572
12305W        W25719   8.958  13.520   4.380 -0.0139 -0.2644  0.1443
12306W        W25720  13.558  16.073  12.894 -0.0380  0.0771 -0.0737
12307W        W25721  10.937  14.164  11.175  0.1412 -0.1538  0.0178
12308W        W25722  14.395  10.128   5.738  0.2675  0.0898 -0.1746
12309W        W25723   1.827  17.680  11.883  0.0259 -0.1826 -0.2137
12310W        W25724   9.007  18.124   4.468  0.0324 -0.1138  0.1775
12311W        W25725  17.025   2.314  11.298 -0.0379  0.1148  0.1220
12312W        W25726  12.656  18.191   0.954  0.0655 -0.3892 -0.0289
12313W        W25727  15.074   1.527  12.353  0.0177  0.0762 -0.1166
12314W        W25728   1.139  14.087  14.758  0.1660  0.0141  0.3372
12315W        W25729   8.861   0.135  10.097 -0.0028  0.0036 -0.1015
12316W        W25730  14.373  10.220   1.164  0.0654 -0.0924 -0.2808
12317W        W25731  15.485   2.954  15.987 -0.0722 -0.0917 -0.2830
12318W        W25732   6.233   8.993  14.000 -0.0514  0.0943  0.1228
12319W        W25733  15.788   2.166  15.341  0.2678 -0.0113 -0.2428
12320W        W25734  16.474  17.341  12.086  0.2631  0.1772  0.2371
12321W        W25735   7.303  17.199   1.959  0.2103  0.2093 -0.1282
12322W        W25736   9.533  18.239  13.172  0.0664 -0.1427  0.0383
12323W        W25737   9.960   6.150   2.222  0.3588 -0.1992 -0.1094
12324W        W25738   6.734   2.489  14.071 -0.0582  0.1812 -0.1188
12325W        W25739  16.711  12.555   6.144 -0.1073 -0.1553  0.1364
12326W        W25740  17.986   1.753   4.018 -0.1800  0.0160 -0.0330
12327W        W25741  17.832   0.259  11.349  0.2057 -0.0647 -0.1307
12328W        W25742  17.521  14.291  11.800  0.5903  0.0180 -0.1757
12329W        W25743   1.694   7.477  15.364 -0.2151 -0.1400 -0.3387
12330W        W25744  16.179  14.695  14.694 -0.0643 -0.1814 -0.0534
12331W        W25745  17.775   3.626   3.922  0.0332  0.1183  0.0643
12332W        W25746   4.829   8.873  13.791 -0.0564 -0.1712 -0.1551
12333W        W25747   8.055   0.816   3.059  0.1997  0.1481 -0.1332
12334W        W25748   5.580   4.961   2.095  0.2122 -0.0759  0.0007
12335W        W25749   7.352   7.142   3.545 -0.3027 -0.1070 -0.0558
12336W        W25750  11.712   5.206   4.776 -0.1266  0.5325 -0.1164
12337W        W25751   7.032   8.651  15.212  0.3578 -0.1552  0.0609
12338W        W25752   4.324   2.636  14.926  0.1285  0.0101 -0.2170
12339W        W25753   1.201   7.465  11.451 -0.3375  0.3720  0.1092
12340W        W25754  13.707   2.946  15.706 -0.0069  0.0075 -0.3111
12341W        W25755  16.191  13.351  15.160 -0.0734  0.2768 -0.1294
12342W        W25756   3.799   9.635  13.992  0.0866  0.0732 -0.0364
12343W        W25757  13.652  13.345   1.301 -0.1166  0.3967  0.0682
12344W        W25758   0.446   0.843   2.139  0.1879 -0.1580 -0.2869
12345W        W25759   2.606   9.175   2.762 -0.0349 -0.2068  0.2649
12346W        W25760   1.521   2.829   6.161  0.0534 -0.2237  0.0168
12347W        W25761  14.472  17.273  13.722  0.0129 -0.2032 -0.1122
12348W        W25762  14.876  17.022   5.709 -0.0104 -0.2960 -0.2523
12349W        W25763  13.044  12.827   4.716  0.3489 -0.1310 -0.1071
12350W        W25764   6.796  14.541   4.650 -0.1221  0.1260  0.2231
12351W        W25765   4.750   3.390   2.655  0.2163  0.1643  0.1671
12352W        W25766   5.002  17.000   4.271 -0.1246  0.1954 -0.0661
12353W        W25767   7.485  16.136   0.112 -0.1679 -0.2154  0.1150
12354W        W25768  12.221   7.370  13.092 -0.2420  0.1875 -0.0908
12355W        W25769   8.474   5.662   3.980 -0.1989 -0.0346  0.1084
12356W        W25770  16.713   3.382  15.400  0.1750  0.0676  0.3462
12357W        W25771   9.990  14.252   2.077  0.1928 -0.0714 -0.2528
12358W        W25772  13.119   5.045   2.426 -0.1370  0.0003  0.0746
12359W        W25773  17.581   9.423  13.366 -0.2256  0.1326  0.2940
12360W        W25774   9.682   2.098  13.301  0.1784 -0.1267 -0.0127
12361W        W25775   7.884   5.015  16.022 -0.4718  0.0599 -0.7688
12362W        W25776   4.467   5.199  12.188  0.0448 -0.1281 -0.1145
12363W        W25777   2.619   7.097   3.126  0.1676 -0.0497  0.1661
12364W        W25778  17.893   3.706  15.128 -0.0521 -0.1880  0.2290
12365W        W25779  11.069  13.309  12.308 -0.1492 -0.0098 -0.1537
12366W        W25780   2.641   6.665  13.923 -0.0127  0.0281 -0.2690
12367W        W25781   8.500  16.704   2.564  0.0942 -0.2869 -0.2358
12368W        W25782   1.366  10.403   3.116 -0.0758  0.1489 -0.0277
12369W        W25783  16.862  14.014  13.528 -0.0828 -0.0612 -0.1022
12370W        W25784   4.775   9.902  12.730 -0.1918  0.1531 -0.0491
12371W        W25785   0.641   7.492   1.354 -0.1966  0.1003 -0.1507
12372W        W25786  18.121  12.302  15.660  0.1753  0.0852 -0.1983
12373W        W25787   6.281  11.236   4.753 -0.1011  0.1885 -0.1247
12374W        W25788  14.303   9.734  15.055  0.2410 -0.0994 -0.1178
12375W        W25789   2.028  14.834  14.067  0.1890 -0.1942  0.1288
12376W        W25790  10.081   7.265   0.469  0.0532 -0.0608  0.0549
12377W        W25791  14.603  15.168  15.489 -0.1198  0.2849 -0.0249
12378W        W25792   4.953   3.017   5.409 -0.0413  0.0236  0.1293
12379W        W25793  17.871   5.355  12.669 -0.0169  0.2842  0.0242
12380W        W25794  16.097   9.545  12.414  0.4597 -0.0153 -0.0002
12381W        W25795   7.099   9.296  16.162 -0.0932 -0.1629 -0.1949
12382W        W25796   3.057   2.829   5.228 -0.1759 -0.0599 -0.1035
12383W        W25797   0.882   9.989   4.588 -0.0990 -0.1455  0.2237
12384W        W25798  17.657   0.804  14.089 -0.0879 -0.1433  0.0042
12385W        W25799   0.500   8.209   2.763 -0.2004 -0.0427  0.0971
12386W        W25800  11.961  17.186  11.496  0.0943  0.1255 -0.4519
12387W        W25801  10.583   2.055   2.949 -0.0371  0.0411  0.1053
12388W        W25802   2.262   9.075   2.080 -0.2058 -0.0904 -0.0600
12389W        W25803   6.710   1.659  12.992  0.1355  0.0383  0.1137
12390W        W25804   5.816   3.844  12.523  0.0596  0.1249 -0.2287
12391W        W25805  11.610   8.486   1.995 -0.2952 -0.0786 -0.2183
12392W        W25806   5.411  14.976   0.476  0.0042 -0.1986 -0.0024
12393W        W25807  11.948  16.267  13.293  0.0278  0.2684  0.0863
12394W        W25808  15.194  10.838  11.565 -0.3103 -0.2110  0.2545
12395W        W25809  11.042   7.599   1.843  0.1178 -0.0813  0.2662
12396W        W25810  15.858   9.485   4.280  0.1642  0.1935 -0.0799
12397W        W25811   4.970  15.254   1.162 -0.1006  0.0584 -0.1538
12398W        W25812  13.219  10.606   4.303 -0.0207  0.2030 -0.0995
12399W        W25813   9.429   6.696  12.562  0.1427  0.1714  0.0085
12400W        W25814   4.872   0.215  16.149 -0.1098 -0.2653 -0.4424
12401W        W25815   6.953   7.083   2.712 -0.0024 -0.1111 -0.1947
12402W        W25816   2.501   4.319   5.076 -0.3151  0.2803 -0.0215
12403W        W25817   9.878  16.212   4.638 -0.2041 -0.2510 -0.0380
12404W        W25818  17.072  17.728   6.077 -0.1301 -0.1072  0.0350
12405W        W25819   8.635  17.207   2.040  0.0161 -0.2350  0.1513
12406W        W25820  17.997  17.940   1.320  0.1607 -0.0859 -0.2713
12407W        W25821   2.587  16.703   1.797  0.0438 -0.0589 -0.1990
12408W        W25822   3.935   1.322  13.735  0.0778 -0.1464 -0.1099
12409W        W25823  11.317   5.749   0.211 -0.0365  0.1446 -0.0240
12410W        W25824   4.709   3.698   2.246 -0.1297  0.1309  0.1802
12411W        W25825   7.285   7.827   5.106 -0.1690  0.0640  0.3245
12412W        W25826   7.315  11.147   2.638  0.0070 -0.0189 -0.0706
12413W        W25827  10.289  13.861  15.844  0.2181  0.3234 -0.1084
12414W        W25828  13.305  10.314  14.969  0.0669 -0.0731 -0.2387
12415W        W25829   7.665   2.976   4.111  0.0756 -0.1404  0.2045
12416W        W25830   5.891   1.223  15.199  0.1743 -0.2066 -0.0458
12417W        W25831  14.096  13.566   1.671 -0.2221 -0.3088 -0.0881
12418W        W25832   3.417  16.530   0.450 -0.1740  0.1365 -0.0675
12419W        W25833   5.951   1.608   2.972 -0.1138 -0.2989 -0.0380
12420W        W25834  11.645  14.797  14.566  0.1137 -0.0647 -0.2573
12421W        W25835   1.382   3.834   0.031 -0.0009 -0.3477  0.2594
12422W        W25836  17.615   4.205  14.641 -0.2064  0.4008 -0.0980
12423W        W25837   0.622  15.527   4.185  0.0801  0.0946  0.1112
12424W        W25838  14.772   4.365   2.157 -0.1743 -0.1979 -0.2096
12425W        W25839  15.405   4.124  12.060 -0.0168  0.0777 -0.0615
12426W        W25840   2.063   3.239  13.017  0.1047  0.1493  0.1746
12427W        W25841   5.562  10.227   5.620  0.2002 -0.0162  0.0171
12428W        W25842  17.090   8.785  15.141 -0.2683  0.2880 -0.0300
12429W        W25843   1.082   0.973  13.691  0.1943  0.2366 -0.2277
12430W        W25844  13.883   7.998   2.956  0.0502  0.0207 -0.1198
12431W        W25845   3.364   6.386   5.206 -0.3784  0.0508  0.4153
12432W        W25846  13.772  17.603   0.108  0.0430  0.2928 -0.0672
12433W        W25847   7.825   5.078  10.562  0.0888 -0.0829 -0.3986
12434W        W25848   8.105  13.852   3.766  0.0914  0.1609 -0.1853
12435W        W25849   9.048  10.673   4.371  0.1165  0.1637  0.2305
12436W        W25850   5.283  15.338   5.867  0.0196  0.2949  0.0962
12437W        W25851  12.976   7.826  12.685 -0.0346 -0.0454  0.0958
12438W        W25852   0.175  17.028   5.044 -0.0437  0.0190  0.1982
12439W        W25853   5.710   7.744   4.022 -0.1238  0.1606  0.0870
12440W        W25854  14.599  17.759   3.320  0.0820  0.2762  0.1351
12441W        W25855  17.291  16.185   4.304 -0.0469 -0.1575 -0.1627
12442W        W25856   9.477  11.175  13.878  0.1077  0.0174  0.2009
12443W        W25857   5.407  10.217  11.454 -0.2415 -0.0858  0.1415
12444W        W25858   0.294   4.718  12.524 -0.1024  0.3247  0.0216
12445W        W25859   9.116  13.669   0.665 -0.0583  0.1752  0.2108
12446W        W25860  13.004   7.099  15.848 -0.2027 -0.3695 -0.1217
12447W        W25861   5.875   8.698  12.339 -0.0027  0.3859 -0.2448
12448W        W25862   5.582  11.208   1.729  0.0734 -0.1136  0.1129
12449W        W25863   9.144   1.644  10.565  0.0870 -0.0401  0.2263
12450W        W25864   0.579   9.766  12.032  0.0584  0.0207  0.1779
12451W        W25865  13.255   9.821  13.874 -0.0729  0.3267 -0.3418
12452W        W25866   0.316   0.404   0.845  0.1661  0.3220 -0.0478
12453W        W25867   6.528   2.359   0.858  0.0734  0.0637  0.0534
12454W        W25868   1.399   2.078  10.381  0.0995  0.0957  0.0693
12455W        W25869   8.051  14.931  12.086 -0.0208  0.1154  0.1485
12456W        W25870   1.084  14.152  13.214  0.5387  0.1294  0.0258
12457W        W25871  16.654   4.603   4.433 -0.2226  0.0285 -0.4416
12458W        W25872  17.885  11.318   4.927  0.0398  0.0023 -0.2483
12459W        W25873  12.864   5.034  14.839 -0.0300  0.1726  0.1420
12460W        W25874   9.643   8.547   1.804 -0.2956 -0.0639  0.2682
12461W        W25875  12.759   1.468  13.218 -0.4374 -0.1351  0.0761
12462W        W25876   7.275   8.786   5.007 -0.0348  0.2868 -0.3281
12463W        W25877   2.410   3.186   4.513 -0.1536  0.0349  0.0608
12464W        W25878   6.332   0.993   3.621  0.0883 -0.1156 -0.0139
12465W        W25879   0.484  15.919  11.956  0.2831  0.3353 -0.1187
12466W        W25880  13.778   3.766  15.102  0.1559 -0.1805 -0.1188
12467W        W25881   3.092   6.807  11.739 -0.3395 -0.1960 -0.1804
12468W        W25882   4.212  18.232   4.902 -0.0751 -0.1736 -0.2857
12469W        W25883   2.151   7.604  14.065 -0.2910  0.2584 -0.1579
12470W        W25884   0.284   0.648   3.347  0.1783 -0.2429 -0.0512
12471W        W25885  15.846   9.883  15.184  0.0872 -0.0419 -0.0747
12472W        W25886   0.784   8.473  15.525  0.0358  0.1544 -0.2855
12473W        W25887   1.307   6.804   5.831 -0.2421 -0.5257  0.3186
12474W        W25888  11.509  10.350  12.362  0.2252  0.0343  0.1926
12475W        W25889   8.809  16.615  14.291  0.3971  0.0887  0.1061
12476W        W25890  14.639   4.150   6.040 -0.1294 -0.0331  0.2224
12477W        W25891   7.172   7.957   2.929 -0.0618 -0.0546  0.1968
12478W        W25892   0.193  17.551   3.224 -0.0164 -0.1210  0.3223
12479W        W25893   1.144  12.457  10.896 -0.0703 -0.0481  0.0083
12480W        W25894  15.829  12.688   4.774 -0.1815 -0.1701  0.0357
12481W        W25895  13.330  13.588  16.363 -0.0184 -0.2062  0.0007
12482W        W25896   8.714  11.680  14.562  0.1682  0.2574 -0.1565
12483W        W25897   8.650   7.945   4.382  0.0396  0.0275  0.1527
12484W        W25898  15.037   0.948  14.545 -0.0845 -0.2675 -0.1435
12485W        W25899   2.551  12.526   3.387  0.1167  0.0248  0.3682
12486W        W25900   1.121  14.501   5.683 -0.0360 -0.4035 -0.3672
12487W        W25901   8.684   0.912   3.817 -0.0408 -0.0709 -0.2308
12488W        W25902  15.684  17.536  11.055 -0.0738  0.1781 -0.0078
12489W        W25903  17.885   9.714   2.557  0.1263 -0.1617 -0.0484
12490W        W25904   9.620   3.213  11.884 -0.1589 -0.0709 -0.0352
12491W        W25905   9.475  15.592  15.243  0.0121 -0.1395  0.0378
12492W        W25906   3.211   4.727   3.320  0.1251  0.1325  0.2533
12493W        W25907  12.773  12.300  13.162 -0.1553 -0.1672 -0.2177
12494W        W25908  16.681   5.732  10.246  0.3128  0.0067  0.0964
12495W        W25909   5.406   5.448  12.158 -0.0645  0.0014 -0.3713
12496W        W25910   8.490  11.841   1.575  0.0234  0.3429 -0.1098
12497W        W25911   8.552  13.701  12.352  0.3589 -0.2112 -0.1349
12498W        W25912  11.853  12.071  12.834  0.2299  0.2081  0.3404
12499W        W25913   9.519  10.530  12.001 -0.2164 -0.2535  0.0926
12500W        W25914   9.716   0.341   3.354  0.1837 -0.3434 -0.1396
12501W        W25915   2.342  15.181  13.781  0.2207  0.2088 -0.1593
12502W        W25916   3.615   8.035  12.320 -0.1991 -0.2158  0.0848
12503W        W25917  18.030  16.539   2.874  0.2171 -0.0142 -0.0857
12504W        W25918  13.711   8.703   1.787  0.1406  0.0998  0.2356
12505W        W25919   0.168  17.461  15.257  0.1248  0.0051  0.2268
12506W        W25920  13.715   2.683   4.744  0.3683  0.2962 -0.2232
12507W        W25921  13.425  13.188   3.504 -0.1255 -0.0577 -0.3194
12508W        W25922  10.383  11.487  14.880 -0.2459  0.1228  0.1268
12509W        W25923  17.789   4.187  15.131 -0.0789 -0.2134 -0.1227
12510W        W25924  13.023   7.789  11.145  0.2709  0.0851 -0.2733
12511W        W25925  16.466  11.733  16.194 -0.3402  0.1295 -0.1457
12512W        W25926   7.446  14.749  13.835 -0.2479  0.0212  0.2887
12513W        W25927  16.025  13.798   3.985 -0.4108 -0.1830  0.2071
12514W        W25928  10.325   3.899   2.529 -0.1556  0.0937  0.2318
12515W        W25929   4.946   4.925  11.326  0.1553  0.0529 -0.2236
12516W        W25930   6.130   9.906   4.920  0.0222 -0.2932 -0.2305
12517W        W25931   9.491  15.051  15.362 -0.3702  0.1070 -0.2352
12518W        W25932   4.125  15.708   5.745  0.0254  0.0952  0.1944
12519W        W25933   1.683   6.086   2.932 -0.2553  0.1182  0.0862
12520W        W25934  15.183   7.750   3.246  0.0852 -0.1768 -0.0003
12521W        W25935  17.144   4.873  12.283  0.0490  0.0430  0.2144
12522W        W25936   0.852   4.287   2.423  0.1046  0.0842 -0.0821
12523W        W25937  15.372   7.008   9.798 -0.1295  0.0468  0.0497
12524W        W25938   0.110  16.209   1.413  0.3529  0.0515 -0.0557
12525W        W25939   2.382  12.725  15.759  0.1346  0.0745  0.1195
12526W        W25940   4.474   7.168   0.418 -0.1497 -0.1012  0.2192
12527W        W25941  14.217   2.690   4.831  0.1201 -0.0707  0.0836
12528W        W25942  10.683  11.765  16.174 -0.0413  0.1269 -0.0421
12529W        W25943   2.335  18.015   0.744 -0.1188  0.0681 -0.1183
12530W        W25944   4.823   5.076   5.254 -0.2711  0.3419 -0.1037
12531W        W25945   4.810   6.860  11.962 -0.3402  0.0974  0.1174
12532W        W25946   1.284  10.775  15.420 -0.2145  0.1116 -0.1238
12533W        W25947  14.187  17.374   2.202 -0.0152  0.1209 -0.0988
12534W        W25948   8.047  12.135  14.874 -0.0824  0.0177 -0.0280
12535W        W25949   3.344   8.142   5.519 -0.0122 -0.1193 -0.1237
12536W        W25950  17.396  12.797  14.235 -0.4705  0.1955  0.1999
12537W        W25951   3.050  13.441   0.443 -0.1168  0.1128 -0.1842
12538W        W25952   8.869  16.184  14.987 -0.2989  0.1813 -0.0630
12539W        W25953  15.076   0.504  15.321 -0.3400  0.1040 -0.0000
12540W        W25954  17.629  17.646  15.541 -0.2403  0.2260 -0.1777
12541W        W25955   7.053  12.410   2.277  0.0421 -0.2705 -0.4071
12542W        W25956   7.488   7.344  15.123  0.0192 -0.0081  0.0707
12543W        W25957   0.440   3.198   2.662  0.1064  0.1366  0.0750
12544W        W25958  17.108  12.084  13.709 -0.1795  0.2026  0.0710
12545W        W25959  16.632   9.998  13.761 -0.3542 -0.3508 -0.1663
12546W        W25960   7.170   8.773   6.369 -0.0621  0.1157  0.0379
12547W        W25961   1.988   0.491   5.055 -0.1912 -0.1772 -0.0990
12548W        W25962  13.897  10.224  11.427  0.0687  0.1018 -0.4155
12549W        W25963  13.066  12.737  10.692 -0.1091  0.4210 -0.1281
12550W        W25964   6.616   1.268  11.337  0.0801  0.2069 -0.2287
12551W        W25965  12.914  15.848   0.949  0.1920 -0.1101  0.1347
12552W        W25966   9.599  18.236  14.072  0.0038  0.2098  0.1211
12553W        W25967   0.638  15.372   3.630  0.1443 -0.1574 -0.1795
12554W        W25968   2.054   4.707  10.731 -0.0350 -0.0264  0.1328
12555W        W25969  15.019   0.206   0.659 -0.1088  0.1937 -0.1301
12556W        W25970   9.656   3.299   1.948 -0.2874 -0.1847 -0.0774
12557W        W25971  12.585  12.354  12.202  0.1788 -0.0699 -0.0177
12558W        W25972  17.474  13.064   4.956  0.2367  0.1380  0.0863
12559W        W25973   7.070  16.219  15.893  0.1882  0.1691 -0.1878
12560W        W25974  17.440  12.040   5.478  0.0875 -0.3754 -0.0336
12561W        W25975   6.506   6.166   6.188 -0.3401 -0.4628 -0.0048
12562W        W25976   0.468   6.812   2.432  0.0727 -0.1824 -0.2451
12563W        W25977   9.406   4.195  10.260 -0.1424  0.0206 -0.0661
12564W        W25978   5.690  15.035  13.957 -0.0304 -0.0451  0.1398
12565W        W25979   4.245  12.716  13.439  0.0387 -0.1371 -0.3617
12566W        W25980   3.705  16.023  15.746  0.2387  0.0744 -0.1060
12567W        W25981   2.363   3.234  11.460 -0.1656 -0.3045  0.0850
12568W        W25982  12.489   2.828   9.554 -0.1329  0.1435 -0.3881
12569W        W25983   2.498   0.490  12.313  0.0924 -0.1807 -0.0483
12570W        W25984  10.444  11.106   4.480  0.0104 -0.0200  0.1874
12571W        W25985  14.410   7.127  10.774  0.2231  0.3509  0.3654
12572W        W25986  14.090   3.340  12.344 -0.0417 -0.1832 -0.2741
12573W        W25987   3.289  15.077   2.867 -0.0032  0.0050 -0.2032
12574W        W25988   6.504   5.084  11.057  0.3555 -0.2066  0.0593
12575W        W25989  18.147   0.461  13.385  0.1585  0.1137 -0.1289
12576W        W25990   4.135   1.740   3.182  0.0010 -0.0602 -0.0329
12577W        W25991  12.062  14.321   0.827  0.0475  0.1429  0.0507
12578W        W25992  14.178   7.608   3.306 -0.1631 -0.0030 -0.1777
12579W        W25993   7.610  10.115   3.422  0.1230 -0.4065 -0.2196
12580W        W25994   9.408  14.565  15.795  0.1827 -0.2301 -0.1661
12581W        W25995  16.702   1.830   5.279  0.2990 -0.2016 -0.1990
12582W        W25996   0.846  17.860  15.775 -0.0449 -0.0007 -0.1066
12583W        W25997   7.690   2.703   4.759  0.1160 -0.0150 -0.3322
12584W        W25998   7.899   3.834   5.771 -0.2074 -0.0217  0.0152
12585W        W25999   3.793   4.670   1.665  0.1572 -0.0996  0.2346
12586W        W26000  11.945  15.249  15.450 -0.2181  0.1475  0.1149
12587W        W26001  10.477   1.090   3.238  0.1513  0.2485  0.1785
12588W        W26002  17.033   6.336  14.049  0.0964  0.1155  0.0204
12589W        W26003   4.390   9.087  13.595  0.2384  0.2794  0.0785
12590W        W26004  15.017  13.906  10.866 -0.0055 -0.0587 -0.0253
12591W        W26005   2.112  10.561   2.479 -0.1994 -0.2101 -0.1170
12592W        W26006  16.290  10.542  16.480 -0.2246 -0.0740 -0.0878
12593W        W26007  16.049  17.173  14.988 -0.1813 -0.2722 -0.2248
12594W        W26008   6.349  16.736   2.629  0.2184  0.0462 -0.0605
12595W        W26009   7.892   5.668  13.739  0.0569 -0.1462 -0.2074
12596W        W26010   6.894  10.924   2.660 -0.2634 -0.2824  0.0045
12597W        W26011   8.393   7.318   4.872  0.0100 -0.0006  0.1085
12598W        W26012   6.174   4.483   2.743 -0.0579  0.0668  0.0960
12599W        W26013  13.249  16.593   0.654  0.1556 -0.1431 -0.2356
12600W        W26014   3.141   5.019  13.245 -0.0594 -0.0911 -0.2177
12601W        W26015  18.215  10.659  12.438 -0.0516 -0.2708 -0.1758
12602W        W26016  13.564   4.551   4.306  0.0274 -0.2077  0.1286
12603W        W26017   4.907  14.156   3.597 -0.4516 -0.1610  0.1809
12604W        W26018   8.868   8.840   5.537  0.1990  0.2403 -0.0456
12605W        W26019   4.659  15.874   2.250 -0.0778  0.2781  0.1289
12606W        W26020  15.648  10.217   0.058 -0.0972 -0.0832 -0.1432
12607W        W26021  12.311   3.857   3.203  0.0812  0.1322 -0.0338
12608W        W26022  12.958   5.595  14.687  0.1056  0.1035  0.1465
12609W        W26023   9.142  12.152   0.958 -0.1476  0.1569 -0.1750
12610W        W26024   2.978   6.219   0.109 -0.0918  0.0871 -0.5108
12611W        W26025   7.218   5.268  13.238  0.0392 -0.3030  0.2061
12612W        W26026   2.480  12.687   4.992 -0.0253  0.1617 -0.1594
12613W        W26027   9.468  15.722   3.021  0.2598  0.1322 -0.1570
12614W        W26028   9.399   6.675  12.025  0.1154 -0.1029  0.1875
12615W        W26029  10.673   1.015   0.557  0.0001 -0.2048  0.1886
12616W        W26030  12.054   4.802  11.750 -0.3802 -0.0330  0.1019
12617W        W26031   0.156  10.043  13.647  0.0492 -0.0593  0.3116
12618W        W26032   2.511   1.768  12.953 -0.1171  0.1704  0.1836
12619W        W26033  10.687  15.254  15.852  0.0451 -0.3339  0.1448
12620W        W26034   7.304  10.133   4.745  0.0367  0.0940 -0.1069
12621W        W26035   2.268  16.918   0.871  0.5120 -0.1893  0.2241
12622W        W26036   2.254  16.302  11.528 -0.2795 -0.1495 -0.1018
12623W        W26037   0.765   6.896  14.170 -0.0050 -0.3212 -0.1628
12624W        W26038   3.288  15.850  15.419 -0.1846 -0.4646 -0.3385
12625W        W26039   8.643   6.074  13.754 -0.1619 -0.1790  0.0324
12626W        W26040   9.516   2.519  14.650 -0.1238 -0.0613  0.0184
12627W        W26041   2.128  16.913   0.381 -0.1086  0.1115  0.0633
12628W        W26042  13.838  12.620  14.729 -0.1955  0.0823  0.0839
12629W        W26043  12.958   9.669  11.520 -0.2281  0.0358  0.1294
12630W        W26044  15.561   5.821   4.777  0.1475  0.1878  0.3922
12631W        W26045   8.755   7.079   3.468 -0.0184  0.4751 -0.1750
12632W        W26046  10.127   3.766  12.805  0.2049  0.0800  0.3280
12633W        W26047  13.064   3.230   0.339 -0.1734 -0.1485  0.4312
12634W        W26048  15.809  15.501  16.469  0.1845 -0.1672 -0.1637
12635W        W26049  16.201  11.565  13.774 -0.0221  0.0334  0.4165
12636W        W26050   5.752  13.912   2.368 -0.0607 -0.2536  0.2446
12637W        W26051   2.123  15.763  12.337 -0.2488  0.0569 -0.3079
12638W        W26052  12.484   2.839  12.194  0.0308 -0.1382  0.1727
12639W        W26053  13.886   2.964  12.036  0.1516 -0.2813  0.1104
12640W        W26054   9.403  13.653   2.506 -0.0623  0.1668 -0.0610
12641W        W26055   5.362   2.857  11.039 -0.2873 -0.1796  0.1503
12642W        W26056   7.578  13.952  14.614 -0.1050 -0.0281  0.0931
12643W        W26057  17.173   5.606   5.653  0.0217 -0.0833  0.0527
12644W        W26058   1.724  12.177   0.847 -0.1123  0.0457 -0.2803
12645W        W26059  12.487   7.669  10.307 -0.0439 -0.0872  0.0200
12646W        W26060  17.188   0.616   1.192 -0.0858 -0.0616  0.0813
12647W        W26061   6.369   4.023   1.128  0.0013  0.2099 -0.0285
12648W        W26062   4.528   4.683   5.425 -0.0593  0.0846  0.0596
12649W        W26063  14.194   4.489  11.534 -0.2226  0.1717 -0.0065
12650W        W26064  10.854   3.599   0.696 -0.0709 -0.2222  0.0753
12651W        W26065   8.060   7.514   0.415  0.2147  0.0182  0.0570
12652W        W26066  10.431  10.540  11.087 -0.0245  0.3538 -0.0310
12653W        W26067   2.124   1.949  10.476  0.1327 -0.2098  0.3366
12654W        W26068  14.895   0.519   5.384  0.1506 -0.2009  0.0520
12655W        W26069   7.010  11.496   2.896 -0.0006 -0.0504  0.2327
12656W        W26070  14.422   6.153   0.475 -0.0677 -0.0465 -0.0301
12657W        W26071   7.042   6.722  11.302  0.0041 -0.1819 -0.0096
12658W        W26072   0.878   4.606  12.649 -0.2065  0.0181 -0.0377
12659W        W26073  16.560  15.565  13.455 -0.0269 -0.1559 -0.0936
12660W        W26074  12.124   6.631  13.772  0.0413  0.0421  0.1387
12661W        W26075  10.457   9.258  10.960 -0.2173 -0.0578  0.1136
12662W        W26076   2.273   7.315  10.089  0.1639 -0.2329 -0.1331
12663W        W26077   2.428  11.376   6.267  0.1640 -0.2095 -0.2741
12664W        W26078   4.436  17.706   3.713  0.0632  0.0066 -0.2353
12665W        W26079   0.686  18.202   4.432 -0.3172 -0.2527 -0.1566
12666W        W26080   6.073   7.678   4.349  0.2020 -0.0242 -0.1712
12667W        W26081  15.805  17.717   5.183  0.0521  0.1013 -0.0541
12668W        W26082   8.608  12.606   2.193 -0.0638 -0.1628  0.3599
12669W        W26083   8.862  14.341   4.139  0.0632 -0.0910 -0.2584
12670W        W26084  17.979   0.658  14.458 -0.1051 -0.0084 -0.0430
12671W        W26085   6.775   5.884   3.315  0.1395  0.0868  0.0468
12672W        W26086  12.954  12.738  13.238 -0.1219 -0.0314 -0.1526
12673W        W26087  12.885   0.177  11.988 -0.2724  0.1243 -0.1151
12674W        W26088  17.553   8.857   5.169  0.2992 -0.2394 -0.2229
12675W        W26089  15.377   8.825   3.202  0.0819  0.1565  0.0916
12676W        W26090  16.301  15.613   1.601  0.2108  0.1085 -0.0806
12677W        W26091   3.060  11.251  13.182 -0.0901 -0.2025  0.0434
12678W        W26092   8.963   6.721   2.946 -0.0347  0.2549 -0.2287
12679W        W26093  15.138   1.727   5.340 -0.0965  0.1612  0.0298
12680W        W26094   6.945  11.741  16.109 -0.1055  0.2138 -0.2231
12681W        W26095   5.780   8.719  10.974  0.1158  0.0225 -0.0875
12682W        W26096  11.551  14.752  10.616 -0.2475 -0.0486 -0.1788
12683W        W26097   5.063   1.410   3.505 -0.2826  0.0896  0.4302
12684W        W26098   6.740   6.366  15.664 -0.0866  0.2594 -0.0910
12685W        W26099   9.235  16.272  14.161 -0.1739  0.1905  0.0730
12686W        W26100  11.620   3.358   0.140 -0.1416 -0.0551 -0.0130
12687W        W26101   1.584  14.494   3.231  0.1682  0.3885  0.2174
12688W        W26102   5.122   4.583   0.018  0.1030  0.1420  0.0214
12689W        W26103  17.422   4.592  12.692 -0.2286  0.0945 -0.1348
12690W        W26104  15.579  13.026   5.174 -0.3527  0.3242 -0.0676
12691W        W26105  11.973  15.058  12.070 -0.0993  0.1020 -0.0809
12692W        W26106   6.465   9.542  16.133  0.0809  0.1131  0.0080
12693W        W26107  17.338  16.432   0.420  0.1022 -0.1654 -0.0740
12694W        W26108  10.296  15.071   4.268  0.3122 -0.0629 -0.0581
12695W        W26109  14.374  10.063  13.125 -0.1153  0.0188 -0.1482
12696W        W26110  14.935  15.650  11.853  0.1993 -0.2013  0.1998
12697W        W26111  15.218   7.500   5.703  0.3480 -0.2491  0.1247
12698W        W26112  15.660   5.548  14.238  0.1381  0.2389  0.0430
12699W        W26113   5.005  11.101  11.876 -0.2517  0.1049 -0.0762
12700W        W26114   1.075  12.129   5.149 -0.0023  0.1330  0.3269
12701W        W26115  10.267   5.211   3.456 -0.1361 -0.0183  0.1253
12702W        W26116   9.754  10.107   5.682  0.0586  0.0598 -0.0103
12703W        W26117  16.473   8.795  14.779  0.1289 -0.0647 -0.4619
12704W        W26118   8.379  16.976  11.048  0.0447  0.1077 -0.2135
12705W        W26119  13.619  11.235  12.817 -0.3830 -0.1085 -0.0650
12706W        W26120   0.874  14.889   1.256 -0.5641 -0.0333 -0.0307
12707W        W26121   1.041  16.184  16.131  0.1717 -0.3492  0.0339
12708W        W26122  15.726  15.770   4.780 -0.3155 -0.1629  0.2369
12709W        W26123   1.074   8.914   0.724  0.0084  0.0086  0.1137
12710W        W26124   0.843  17.376  14.521 -0.0459  0.0717 -0.0241
12711W        W26125  13.594   3.594  10.633 -0.0038 -0.0732 -0.3414
12712W        W26126  18.144  16.901  12.793 -0.0301  0.3632 -0.0128
12713W        W26127   3.775  15.351   4.425  0.1229 -0.0338  0.0562
12714W        W26128   8.050  11.237  11.086 -0.0290  0.1475 -0.3387
12715W        W26129  17.541   7.237   3.783 -0.1331  0.0096 -0.2146
12716W        W26130   9.032   7.072  14.965  0.1619 -0.1783 -0.2373
12717W        W26131   3.871   0.306  15.244  0.2793 -0.2559  0.1593
12718W        W26132   3.096   5.455  12.699 -0.1824  0.2193 -0.0844
12719W        W26133   0.240   8.577  11.112  0.0253 -0.2237 -0.1196
12720W        W26134   9.055  17.485   1.941  0.0943  0.3604  0.1022
12721W        W26135  17.941   4.889   6.275  0.2172  0.1126 -0.4196
12722W        W26136  11.698  11.178  13.812  0.1151 -0.0468 -0.1708
12723W        W26137  10.262   0.264   3.026 -0.0218 -0.0902  0.1382
12724W        W26138   1.884  15.307   5.671 -0.0224  0.0377 -0.2913
12725W        W26139   8.370   4.506   1.239 -0.1912 -0.1014  0.0653
12726W        W26140   0.036  15.122  13.093  0.4461 -0.3020 -0.0548
12727W        W26141   5.789   4.797   3.626 -0.1082 -0.2880  0.0348
12728W        W26142   1.008  15.424   5.908  0.1395 -0.0827  0.0889
12729W        W26143  15.997  16.462  11.386 -0.0466 -0.1496 -0.0126
12730W        W26144  15.319   8.256  16.083 -0.0240  0.0208 -0.0369
12731W        W26145   1.143  15.842  12.253 -0.3398 -0.4205 -0.3556
12732W        W26146   2.663   0.588  14.871  0.0982  0.2689 -0.1562
12733W        W26147   8.878  10.595  13.332 -0.2234  0.0019 -0.0480
12734W        W26148  17.433  13.384  13.283  0.2379  0.0386  0.2393
12735W        W26149  14.070   5.368   3.421 -0.1760 -0.1526 -0.0233
12736W        W26150  16.919   2.809  11.396 -0.1163 -0.1549 -0.4922
12737W        W26151  10.994   5.084   5.806 -0.0826 -0.0760  0.0750
12738W        W26152   5.475  17.691  14.708 -0.1932 -0.2322  0.1879
12739W        W26153  13.942  15.488   5.854 -0.2480  0.0015  0.0772
12740W        W26154   9.025   3.394  10.572 -0.1121 -0.0595 -0.2769
12741W        W26155   6.159  10.283   1.201  0.0666  0.0521 -0.0707
12742W        W26156   2.204   9.926  10.982 -0.1983  0.0707  0.2049
12743W        W26157   4.990   0.842  13.463  0.1395  0.0927  0.1353
12744W        W26158  12.897   7.931   3.092  0.1751 -0.2407 -0.1196
12745W        W26159  16.730  12.589   4.344  0.1311 -0.0078  0.0067
12746W        W26160  11.089   1.396  16.376  0.0051  0.0253 -0.0590
12747W        W26161   0.388  11.018  13.830  0.0140 -0.1233 -0.1254
12748W        W26162   8.242  14.201  13.333 -0.2393 -0.2101  0.0005
12749W        W26163   1.384   0.972  13.145  0.0785  0.0321 -0.2105
12750W        W26164  12.737  13.385   5.411  0.0156 -0.3357 -0.1517
12751W        W26165   9.304  17.322  14.888 -0.2609 -0.1216 -0.0368
12752W        W26166   2.556  16.660  12.475 -0.0211  0.1577  0.2040
12753W        W26167  10.594  12.650  12.544  0.3171  0.0698  0.0725
12754W        W26168   1.349   8.187   3.792  0.0728 -0.0396  0.3664
12755W        W26169  14.014   3.581   1.359  0.2424  0.1876 -0.1313
12756W        W26170   5.232   9.267   3.192  0.0372 -0.0693  0.0454
12757W        W26171  17.962  17.285  14.929 -0.0771  0.2416  0.0782
12758W        W26172  13.518  13.683  15.447 -0.0546 -0.1051  0.0865
12759W        W26173  10.065   8.772  12.324  0.2051 -0.0854  0.0613
12760W        W26174   5.381   5.510  12.978 -0.1805 -0.0357 -0.3647
12761W        W26175  18.077   8.445   4.907 -0.0842 -0.0037 -0.1199
12762W        W26176  16.177  11.928  15.768  0.1380 -0.0556  0.0045
12763W        W26177  10.759  15.285   6.319 -0.1445 -0.3481  0.1027
12764W        W26178  12.287  13.378  11.199 -0.1861 -0.0257  0.0152
12765W        W26179   9.199  10.911   0.159 -0.1263  0.2480  0.2669
12766W        W26180   9.116  16.232  11.522  0.0002  0.2001 -0.2250
12767W        W26181   8.420   7.568   0.072  0.4443 -0.0276  0.0106
12768W        W26182   2.638   2.827  16.162  0.2167 -0.0947 -0.2458
12769W        W26183  12.766   8.957  11.813 -0.0665 -0.2131 -0.2727
12770W        W26184   5.098  17.507  11.347  0.0423 -0.3073  0.0058
12771W        W26185   6.938   3.180   1.413  0.0888  0.0586 -0.4272
12772W        W26186  14.146  14.406  13.807 -0.2671 -0.1948  0.0918
12773W        W26187   8.193   3.714  10.764  0.1516 -0.1946  0.2525
12774W        W26188   0.008  18.167  16.085  0.0737  0.2036  0.0649
12775W        W26189  15.181  15.986  15.368  0.1331 -0.0625  0.2405
12776W        W26190  12.895   2.321  16.295  0.2635 -0.2059 -0.4872
12777W        W26191   8.943   0.230   5.309  0.0132 -0.3197  0.3076
12778W        W26192   5.685   2.708   4.217  0.0072 -0.2188  0.0415
12779W        W26193   7.684  17.567   2.966 -0.1369  0.1051 -0.1382
12780W        W26194   5.656   3.897   3.988 -0.1440  0.0078 -0.2342
12781W        W26195   9.063   2.888   4.137 -0.0725  0.0258  0.1767
12782W        W26196   0.637  17.191  15.011 -0.0069 -0.0047 -0.0703
12783W        W26197   9.408   4.914   2.393  0.0881  0.0801  0.0501
12784W        W26198  16.771  17.051  12.357  0.0089 -0.1967 -0.1192
12785W        W26199   9.492  16.958  11.107 -0.4349 -0.1421  0.1102
12786W        W26200  15.781   5.092   0.128  0.1322  0.1080  0.4073
12787W        W26201  12.320   4.067  15.116  0.1411 -0.0358 -0.2633
12788W        W26202  16.019   3.805   4.220  0.0521  0.0017 -0.1906
12789W        W26203   9.682  12.033   1.923 -0.1606  0.1317  0.0049
12790W        W26204  12.495   5.942  14.841  0.2846 -0.0517  0.0555
12791W        W26205  12.265  15.845   3.622  0.1656  0.0841 -0.2858
12792W        W26206   9.884  17.501  15.267  0.0418  0.2386 -0.3227
12793W        W26207  13.147  12.085  14.854  0.3660  0.1971  0.4435
12794W        W26208  10.376  13.489   0.351 -0.0164 -0.0678 -0.3462
12795W        W26209  11.638   4.916  15.524  0.0592 -0.3109  0.0657
12796W        W26210  15.555   4.389  12.785 -0.1322  0.1581 -0.0476
12797W        W26211   5.801  15.484   3.232 -0.2462  0.1051 -0.0262
12798W        W26212   6.606  12.130  14.444 -0.0563 -0.0518 -0.0816
12799W        W26213   8.050   3.964  14.108 -0.0267 -0.2153  0.0301
12800W        W26214   2.375   5.486  15.802 -0.0678 -0.1048 -0.2683
12801W        W26215   9.025  10.904  11.000  0.0078  0.1423 -0.2724
12802W        W26216   6.606   0.007  13.690 -0.0745  0.0359 -0.0514
12803W        W26217  10.115   6.993  11.533 -0.1644  0.0976 -0.2443
12804W        W26218   9.339  11.026   1.939 -0.3572 -0.0583 -0.1619
12805W        W26219  15.924  12.152   0.404  0.0724  0.1077 -0.0747
12806W        W26220   6.475   4.985  12.057 -0.0415 -0.0408 -0.0792
12807W        W26221  13.504  15.870   1.092  0.0271 -0.3639  0.2377
12808W        W26222  11.502  12.882  15.654  0.0206  0.4185  0.2474
12809W        W26223   1.161   1.199   4.553 -0.0264  0.0764  0.0391
12810W        W26224  13.513   0.927   1.322 -0.1494  0.0430 -0.2078
12811W        W26225   0.657   0.591   5.782  0.3137 -0.2430 -0.2769
12812W        W26226   4.217  16.116   2.536  0.1210  0.2798 -0.2751
12813W        W26227  10.472   5.681  15.572 -0.0361 -0.1773  0.0523
12814W        W26228   6.262   2.364   1.811  0.0786  0.1558  0.0984
12815W        W26229   9.844   0.611   2.904 -0.0705  0.0489  0.1504
12816W        W26230   9.208   9.383   3.582  0.0449  0.0345 -0.0965
12817W        W26231   6.933  13.772   2.991  0.2065 -0.1930  0.3743
12818W        W26232  13.138  16.055   3.208  0.1149 -0.0952  0.1348
12819W        W26233   0.396  16.130  14.987  0.2200 -0.1606 -0.1426
12820W        W26234   6.560   4.362  14.975  0.2068  0.0075  0.2365
12821W        W26235  13.978  11.519   3.870 -0.0856  0.2727 -0.1300
12822W        W26236  17.235  15.014   4.818 -0.1153 -0.1264 -0.4349
12823W        W26237   4.120  16.426   3.924 -0.2281  0.2695  0.1168
12824W        W26238  10.601   6.530  14.512  0.2370  0.0725 -0.4559
12825W        W26239   3.199  12.005   5.359  0.2524  0.0086 -0.0133
12826W        W26240  12.024  17.903  12.030  0.0309  0.3357  0.2358
12827W        W26241   5.674   2.527  12.657  0.0238  0.0597 -0.0120
12828W        W26242   9.550  10.453  16.439 -0.1109  0.0006 -0.1630
12829W        W26243  12.710   5.220  10.213  0.1881 -0.0155 -0.0518
12830W        W26244   1.572   6.471  12.977  0.2138  0.1128 -0.2020
12831W        W26245   1.807   8.516   0.427 -0.3181 -0.0983 -0.0699
12832W        W26246   5.548   6.102  14.147 -0.1032 -0.0242  0.0100
12833W        W26247   6.564  14.853   4.339  0.0785  0.1455 -0.0738
12834W        W26248   3.390  13.212   2.716  0.1447  0.0236  0.1299
12835W        W26249  17.719   9.869  13.075  0.1720 -0.2252 -0.0744
12836W        W26250   1.294   9.924   2.878 -0.1633  0.1438  0.2009
12837W        W26251  10.950   7.548  11.164  0.0140 -0.2976  0.0675
12838W        W26252  13.649   6.369  13.998  0.0585  0.0033 -0.1180
12839W        W26253  13.196  10.553   0.370 -0.1823 -0.0238  0.0732
12840W        W26254  17.901  10.622  15.824 -0.4236 -0.1104 -0.1315
12841W        W26255   8.283   1.604   0.471 -0.1142 -0.0451 -0.1851
12842W        W26256   8.700   5.905  10.799  0.2283  0.2649  0.0868
12843W        W26257   2.268  14.932  10.338  0.0474  0.0442 -0.1681
12844W        W26258   7.672   5.054   4.811  0.0453 -0.0376  0.2561
12845W        W26259   8.080  17.775   3.272 -0.0289  0.2650  0.1620
12846W        W26260   6.033  11.830   0.195  0.1497 -0.2686 -0.1884
12847W        W26261  12.552  12.934   2.873 -0.0160 -0.0949 -0.0224
12848W        W26262  17.968  10.553  14.130 -0.0913 -0.4024 -0.0212
12849W        W26263  16.988   1.690  11.875 -0.0578  0.0991  0.5088
12850W        W26264   1.539  15.941   0.966  0.1162 -0.2941  0.0417
12851W        W26265  16.778  16.054   5.532 -0.0173  0.0694  0.0773
12852W        W26266  14.279  15.533   0.245  0.0662  0.4860  0.0400
12853W        W26267  16.812  13.909  11.488 -0.1628 -0.0987  0.0108
12854W        W26268   7.278   8.956   0.700  0.1573 -0.1405  0.0935
12855W        W26269  16.777  16.031   1.227  0.0451  0.0408 -0.0225
12856W        W26270  11.181   7.744   4.601 -0.2900  0.0745 -0.1145
12857W        W26271  16.560   8.126  11.115  0.1046 -0.0051  0.2590
12858W        W26272  17.036  10.177   2.242  0.0597 -0.2376 -0.0354
12859W        W26273  10.231  13.465  11.818  0.2072  0.0219  0.0444
12860W        W26274  13.450  16.521   2.330  0.3308 -0.1737  0.0589
12861W        W26275   0.800   7.380  13.839  0.1748 -0.0012  0.1443
12862W        W26276   1.603   3.825  15.558  0.0837 -0.2836  0.0723
12863W        W26277  17.315  10.778   1.541  0.0505 -0.3142 -0.2516
12864W        W26278  15.143   8.645   1.134 -0.1150 -0.1768  0.1213
12865W        W26279  17.741  11.330  14.617  0.1940 -0.0908 -0.2924
12866W        W26280   7.441  15.360  14.824  0.2738 -0.1660 -0.3622
12867W        W26281   8.723  16.438   3.238 -0.0491  0.1659 -0.1189
12868W        W26282   2.470   8.236   4.159 -0.0576  0.1382  0.1744
12869W        W26283   8.395   2.259  10.273  0.2851 -0.3746  0.1010
12870W        W26284  14.027   3.353  15.455 -0.3525 -0.0608 -0.1829
12871W        W26285   1.269   5.119   4.971 -0.1058  0.3646 -0.0004
12872W        W26286  13.065  11.933  15.787  0.1023 -0.1102  0.1867
12873W        W26287  14.926   1.191  13.460 -0.1650  0.0413  0.1166
12874W        W26288  13.840   5.910  14.017 -0.0353 -0.1045  0.1254
12875W        W26289  18.198  10.794  15.114 -0.1149 -0.1688 -0.4006
12876W        W26290   1.953  15.986  11.904 -0.0131 -0.3472  0.2328
12877W        W26291  17.267   4.884   2.068 -0.1407 -0.2032  0.0049
12878W        W26292   1.465  18.128  13.626  0.0778 -0.1722 -0.2220
12879W        W26293  14.137  15.965   4.162  0.0968  0.2134  0.1246
12880W        W26294  10.505  14.888   5.558  0.1184 -0.0595 -0.0396
12881W        W26295  17.305   9.538  13.825 -0.0409  0.1813  0.1661
12882W        W26296   4.483  15.215   0.495 -0.4611 -0.0007 -0.0310
12883W        W26297   2.567   2.385   4.039 -0.0353 -0.0776 -0.1309
12884W        W26298   6.402  10.853   2.555  0.0148 -0.0934 -0.0508
12885W        W26299   5.256   9.380  14.768  0.1716 -0.3572 -0.1274
12886W        W26300   8.934   3.864   5.175  0.2482 -0.1238 -0.0745
12887W        W26301   5.975  17.647   1.686  0.1747 -0.0262  0.0588
12888W        W26302   9.084   2.146   2.499 -0.0841  0.0593  0.0760
12889W        W26303   4.347   0.013  16.120 -0.0734 -0.2597 -0.0774
12890W        W26304   1.509   0.263  14.092  0.0105 -0.0075 -0.1709
12891W        W26305  11.989  14.673  15.963  0.2587  0.1908 -0.1624
12892W        W26306   8.532  13.223   1.581  0.2699 -0.0900 -0.0836
12893W        W26307  13.760   0.516  12.045 -0.2228 -0.1893  0.0479
12894W        W26308  17.241   7.850   2.347 -0.0255  0.3191  0.2610
12895W        W26309  15.580  15.605   2.192  0.0655 -0.1439  0.0590
12896W        W26310   0.543  18.167   5.360 -0.1685 -0.1620  0.0864
12897W        W26311   5.428   2.237  12.323 -0.0743 -0.2073 -0.0358
12898W        W26312   7.263  16.572   3.487  0.0863  0.0459 -0.1810
12899W        W26313  13.931  15.592   1.232  0.0942  0.0987  0.3546
12900W        W26314  16.101   8.565   3.555 -0.2298  0.2429 -0.0599
12901W        W26315   7.064   6.891  11.968 -0.1718 -0.7556  0.2621
12902W        W26316   8.306   9.493   2.910  0.0272  0.2517  0.0110
12903W        W26317   1.908   6.427   0.510 -0.1305  0.3259  0.1806
12904W        W26318   7.026  15.423  14.449  0.0229 -0.2713 -0.2383
12905W        W26319   9.295   6.666  13.422  0.0314  0.0565  0.0478
12906W        W26320  12.905   5.560   3.019  0.2268  0.0277 -0.0348
12907W        W26321  12.684   6.670   3.201  0.0111  0.4881  0.2366
12908W        W26322   8.581   7.740  12.321  0.4749 -0.1509  0.0225
12909W        W26323  13.750  14.865   3.053 -0.0445  0.0547 -0.2934
12910W        W26324   4.804   0.468  14.991  0.0315 -0.0620  0.0106
12911W        W26325   5.579   7.566   4.422  0.0183 -0.0674 -0.0204
12912W        W26326  12.744  13.574   1.725 -0.0097 -0.0673 -0.1939
12913W        W26327   9.268  11.311   5.062  0.1772 -0.1022 -0.3712
12914W        W26328  14.276  12.751   5.601 -0.0942 -0.1697  0.1352
12915W        W26329  14.149   7.659  13.709 -0.0183  0.1673 -0.1753
12916W        W26330  17.865  10.786  14.699 -0.0841 -0.3174 -0.0893
12917W        W26331   6.279  14.410   4.747 -0.0337 -0.1169 -0.4472
12918W        W26332  12.333  13.853   4.012 -0.1743  0.2442  0.0369
12919W        W26333  14.865   0.755   3.702  0.2884  0.1823 -0.1702
12920W        W26334  11.758   0.512   2.226  0.1590 -0.2690  0.3324
12921W        W26335   1.237   4.791  15.676  0.3491  0.0979  0.2464
12922W        W26336  11.366  11.344  11.268 -0.0016 -0.1241  0.0444
12923W        W26337  10.694   8.007  14.870  0.2336  0.0773  0.0440
12924W        W26338  17.259   9.226  12.598  0.1057 -0.0214 -0.0505
12925W        W26339  10.682   6.546  10.923 -0.0807 -0.0883  0.0413
12926W        W26340  12.959  12.789  12.666  0.0093  0.1399 -0.2145
12927W        W26341  17.746  17.180   3.652 -0.0239 -0.1898 -0.4153
12928W        W26342   6.419   3.218   1.462  0.1914  0.2916  0.0889
12929W        W26343   8.706  10.351  15.095 -0.0670 -0.1933  0.0039
12930W        W26344   0.315   7.099  13.892  0.0142  0.3584  0.0436
12931W        W26345  14.874   7.510   1.391  0.1465 -0.0644 -0.1794
12932W        W26346   1.384   4.132  14.177 -0.2421 -0.1520  0.3096
12933W        W26347   1.499   1.233   2.990  0.0909 -0.2547 -0.0921
12934W        W26348   9.524  15.392   3.875 -0.0130  0.1961 -0.0262
12935W        W26349   1.852  16.740  11.510  0.4215  0.1717  0.0440
12936W        W26350  12.100  15.506  16.340 -0.3072  0.0755 -0.0517
12937W        W26351   4.452   0.574  12.239 -0.2480  0.1476  0.1306
12938W        W26352  10.724  18.012  12.010  0.1454 -0.1494  0.5189
12939W        W26353  11.838  17.032   1.757  0.0623  0.2021  0.1869
12940W        W26354  10.018   5.141   5.816  0.0900  0.3402 -0.1941
12941W        W26355  16.383  15.122  13.938 -0.0825  0.1567  0.1455
12942W        W26356  12.560  16.226   3.821 -0.1275 -0.0873  0.0330
12943W        W26357   6.747  10.771   6.739 -0.0092  0.0201 -0.1455
12944W        W26358  10.638  12.880  13.732 -0.4238 -0.1311 -0.1582
12945W        W26359   7.124  14.241   0.811  0.2288 -0.1344  0.2344
12946W        W26360   2.065   9.188   3.028  0.0690 -0.3613  0.2607
12947W        W26361   6.156  16.707  16.372 -0.3338  0.3010  0.1435
12948W        W26362  16.771   1.142  11.912 -0.0782 -0.4763  0.1337
12949W        W26363   9.141   1.502   4.804  0.2209  0.3567  0.3140
12950W        W26364  12.931  17.606  15.505  0.0992 -0.0729 -0.0160
12951W        W26365   0.695  17.508  16.101 -0.1523  0.0075 -0.1262
12952W        W26366   7.730   4.744  12.799  0.0969 -0.1787  0.0866
12953W        W26367   4.085  15.589  13.507  0.2383 -0.2122  0.0201
12954W        W26368   8.788  16.038   1.768 -0.0037  0.1716  0.1290
12955W        W26369   2.843   2.921  10.809  0.1378 -0.0063 -0.0100
12956W        W26370   8.919  12.707   0.768  0.2774  0.2146  0.1347
12957W        W26371   0.621   8.343   1.482 -0.1117  0.0615  0.1472
12958W        W26372   0.582  10.943  11.274  0.0630  0.0565 -0.2130
12959W        W26373  10.691  13.916   3.434  0.0580 -0.2565  0.2043
12960W        W26374   2.620   0.898   6.370 -0.1659  0.0425 -0.2447
12961W        W26375  17.364  13.272  14.432 -0.2313 -0.2619 -0.0879
12962W        W26376   2.017   7.981   5.039 -0.2426  0.1733  0.1373
12963W        W26377   5.647  12.563   6.381 -0.0480 -0.2583  0.0512
12964W        W26378  12.536  12.228   0.553  0.0402  0.0808  0.3854
12965W        W26379   3.436  13.543  11.532 -0.2622 -0.4956 -0.2572
12966W        W26380   4.318  17.487  13.860 -0.1797 -0.0816  0.1636
12967W        W26381   9.908   5.863   3.303 -0.0241  0.2106 -0.1754
12968W        W26382   3.964   5.500  15.438 -0.1529  0.0021  0.0227
12969W        W26383   2.214   5.834  16.246 -0.1060  0.0719 -0.0636
12970W        W26384   1.078   5.626  10.664 -0.1428 -0.0260  0.2384
12971W        W26385  16.699  11.648   6.434  0.0017  0.2842 -0.0473
12972W        W26386  14.125   9.500  14.035 -0.0476 -0.0196  0.1389
12973W        W26387   5.172   7.223  10.997  0.0687 -0.0495  0.0203
12974W        W26388  10.253   9.191   3.565  0.0303 -0.1124 -0.0486
12975W        W26389  13.222  13.762   4.128  0.0578  0.0571 -0.2317
12976W        W26390   5.953  18.161   1.568  0.3809 -0.0108 -0.0567
12977W        W26391  17.286  12.418   5.830 -0.3773  0.1704  0.0131
12978W        W26392   0.036   1.565   6.150 -0.2606 -0.0001 -0.1412
12979W        W26393   8.609   4.964  14.667 -0.0746 -0.0713  0.0048
12980W        W26394   9.656  15.178  12.345  0.1255  0.0904  0.0751
12981W        W26395  11.855   8.833  10.507 -0.0676 -0.3282 -0.1496
12982W        W26396   1.541   4.485  10.381 -0.0705 -0.1948  0.2512
12983W        W26397   0.084   0.330  14.441 -0.1557  0.2247 -0.0814
12984W        W26398  17.177   6.516   1.854 -0.1131 -0.2075 -0.1665
12985W        W26399  16.026   5.977   1.656 -0.0780 -0.1627 -0.0849
12986W        W26400   1.225   9.246  13.137  0.0562  0.2022 -0.2424
12987W        W26401   3.416  18.016  15.998  0.0294 -0.0519 -0.2827
12988W        W26402  14.435   9.033   2.166 -0.1852 -0.2164  0.1032
12989W        W26403  14.970   7.026  14.793 -0.0775 -0.1133  0.2437
12990W        W26404   4.083   9.267   5.141 -0.1333 -0.1751 -0.2042
12991W        W26405  13.891  15.139   5.497 -0.2043  0.2130  0.2274
12992W        W26406   5.710  17.531   3.849 -0.1023 -0.0391 -0.0235
12993W        W26407  14.598   0.136   5.733 -0.1309 -0.0356  0.3461
12994W        W26408   3.673   5.476   5.481 -0.0776  0.3050 -0.4105
12995W        W26409   5.742   2.529   3.781 -0.0943 -0.0080 -0.0075
12996W        W26410   5.143  10.500   3.717  0.0794 -0.2690  0.3223
12997W        W26411   7.795   7.090   1.307 -0.0973  0.1448 -0.1372
12998W        W26412   5.655  11.535   5.142 -0.0262  0.0529  0.0049
12999W        W26413   1.027   6.400   3.593  0.1024 -0.0717  0.1086
13000W        W26414   4.875  16.743   2.386 -0.2923 -0.0729  0.1874
13001W        W26415   0.386  10.026   4.728 -0.0997 -0.1146 -0.1170
13002W        W26416  10.292  13.056   4.671 -0.2243  0.4294 -0.1615
13003W        W26417   9.040   3.097  15.693  0.1096 -0.2329 -0.3507
13004W        W26418  15.595  17.632   6.268  0.0520  0.0498  0.1098
13005W        W26419   3.865   6.882   5.943  0.2281 -0.1239  0.0079
13006W        W26420   3.864  15.830   3.881  0.2739 -0.1114  0.0186
13007W        W26421  14.537   8.864   1.651 -0.2996  0.0656  0.1435
13008W        W26422   4.999   6.429   3.820 -0.4420  0.1437  0.1076
13009W        W26423   2.949  15.733   5.661 -0.0850 -0.0884  0.1925
13010W        W26424  15.085   2.574  11.907  0.1309 -0.2345  0.0443
13011W        W26425  14.760  10.958   4.635 -0.2925  0.0875  0.1488
13012W        W26426  12.966   9.581   5.703  0.0917 -0.1523 -0.0712
13013W        W26427   7.999  14.892  13.745  0.1727 -0.1443  0.2878
13014W        W26428   7.579   0.033   5.545  0.2474 -0.0319 -0.1863
13015W        W26429   5.446  13.273  13.732  0.0138  0.2913  0.4658
13016W        W26430   7.154   1.423   0.970  0.1544  0.0989 -0.3983
13017W        W26431  13.534  17.682  10.603 -0.1354  0.0263 -0.4202
13018W        W26432   0.398   7.659  11.365  0.0072 -0.2090 -0.0967
13019W        W26433  16.801  11.898  15.682 -0.1977  0.1233  0.3725
13020W        W26434   5.539   6.665  15.891 -0.4720  0.1159  0.1852
13021W        W26435   9.864  13.372   4.530  0.0400 -0.0809 -0.1207
13022W        W26436  12.698   3.164  10.396 -0.0112 -0.0231  0.4405
13023W        W26437   3.735   2.194   4.424  0.1970 -0.0963 -0.1218
13024W        W26438   2.182   6.176   3.166  0.0455 -0.0998  0.1736
13025W        W26439   9.341   7.060   3.422  0.2582 -0.4373 -0.1335
13026W        W26440   8.797   9.611  13.603 -0.0472 -0.2996  0.0729
13027W        W26441  11.089  12.041   2.322 -0.1587  0.0435 -0.0892
13028W        W26442   2.964  14.941   5.542 -0.1916  0.1402  0.0196
13029W        W26443   5.124  13.039   3.088  0.1459 -0.0941  0.1621
13030W        W26444   2.095  12.340  14.415  0.0770 -0.0791 -0.1991
13031W        W26445  14.587  13.959  12.668 -0.0738 -0.1604 -0.1632
13032W        W26446   9.499  15.188  10.806 -0.1865 -0.1010 -0.3495
13033W        W26447  15.763   5.421  13.227  0.3820 -0.3428  0.3009
13034W        W26448  15.509   8.409   2.825 -0.0481 -0.0225 -0.1602
13035W        W26449  15.759   3.250   0.337 -0.1787  0.0098  0.1224
13036W        W26450  15.875   9.651   1.611  0.0279  0.1934  0.0623
13037W        W26451   0.807   0.131   0.665 -0.0218 -0.1032  0.3069
13038W        W26452  14.978  10.084  15.497 -0.0735  0.2024 -0.3306
13039W        W26453   7.570   3.901   0.439 -0.0873  0.4657  0.2354
13040W        W26454   5.515  13.027  16.452 -0.0354  0.0120 -0.0484
13041W        W26455   2.165   3.772  13.458  0.3707  0.0343  0.3132
13042W        W26456   6.086   7.029  12.672  0.2408 -0.3778 -0.2713
13043W        W26457   6.378   3.207  14.342  0.0192 -0.0495  0.1793
13044W        W26458  16.830   5.725   2.552 -0.0875  0.1894 -0.3662
13045W        W26459   5.848  11.864  16.232  0.0118  0.1810  0.1406
13046W        W26460  16.689   1.998  15.336 -0.3226  0.1860 -0.2919
13047W        W26461  11.713  17.337  12.610 -0.1536  0.0454  0.0063
13048W        W26462   8.471   1.585  11.350  0.3327  0.0651  0.1024
13049W        W26463  15.367   5.069  12.052  0.0894  0.0783  0.1227
13050W        W26464  12.565  11.665   1.710  0.1007  0.4409 -0.0715
13051W        W26465  12.353   0.977   5.408  0.0849 -0.0728 -0.0529
13052W        W26466   6.279  16.984   6.153 -0.1088 -0.3065 -0.0208
13053W        W26467   3.416  11.900   4.498 -0.0362  0.0501  0.2465
13054W        W26468   2.120  16.787   1.890  0.0090 -0.0880  0.1986
13055W        W26469  16.568  13.179  15.951 -0.1113  0.2421  0.1533
13056W        W26470   2.551  17.513   2.529 -0.1801 -0.3923  0.1204
13057W        W26471  11.319   2.236  13.799  0.0594  0.3271 -0.2429
13058W        W26472   0.727   1.707   2.200  0.1935 -0.1171  0.0218
13059W        W26473  13.203  16.911   0.213  0.0430  0.1176 -0.1319
13060W        W26474   4.869   1.527  14.951 -0.1312 -0.0700 -0.1986
13061W        W26475   1.156  14.182   0.632 -0.2500  0.1129  0.0571
13062W        W26476  13.838  15.586  12.682 -0.0532  0.1640  0.0300
13063W        W26477  15.910   5.616  16.005  0.1406  0.1334 -0.0316
13064W        W26478  18.073   2.723  15.354  0.2994 -0.0854  0.1200
13065W        W26479  12.895  15.358  11.145 -0.1452 -0.4339 -0.1182
13066W        W26480   5.622   7.100  14.155 -0.0371 -0.1659 -0.0214
13067W        W26481   0.651  10.013  14.792  0.4527  0.1307  0.2156
13068W        W26482  11.731   4.456  15.594 -0.0065  0.1828 -0.0281
13069W        W26483  17.389  18.219  12.835  0.0944 -0.2204  0.0012
13070W        W26484   5.885  15.759  12.218 -0.3881  0.3137  0.3395
13071W        W26485  14.395  11.913  13.145 -0.5234  0.1205 -0.3374
13072W        W26486   6.557  14.077  16.013 -0.0283  0.2280 -0.3696
13073W        W26487  17.221   1.787  11.293  0.0636  0.0680  0.0959
13074W        W26488  10.274   0.479  10.896 -0.0396  0.0319  0.2210
13075W        W26489   9.169  18.154   1.189  0.0448  0.1180 -0.2455
13076W        W26490   9.425   8.088  11.409  0.0209  0.0628  0.0538
13077W        W26491  15.312   4.009   1.443 -0.1612  0.2006  0.4033
13078W        W26492   9.120   4.611   2.805 -0.1508  0.1857  0.0731
13079W        W26493  12.767  15.170   5.891 -0.0631  0.3068  0.0875
13080W        W26494  17.739   7.392   3.371 -0.1092 -0.0396  0.3143
13081W        W26495  14.924   8.675   3.101  0.0420  0.4303  0.1060
13082W        W26496  15.884  15.757  15.672  0.2333 -0.4090 -0.0758
13083W        W26497   0.530  16.403  11.851 -0.1479  0.2660 -0.2592
13084W        W26498  11.013   2.731  12.117 -0.1025  0.2805  0.2468
13085W        W26499  16.973  13.991  10.254 -0.1978 -0.3549  0.0546
13086W        W26500   1.280  17.180  13.754 -0.0012 -0.0980 -0.0263
13087W        W26501  14.468   7.893   3.711  0.1628  0.3593 -0.0634
13088W        W26502   9.781  13.676  15.304  0.0541 -0.0350 -0.2829
13089W        W26503  13.211  15.301   2.829  0.0805  0.0760  0.0058
13090W        W26504   5.139  14.816   5.427  0.1731 -0.0147 -0.0613
13091W        W26505   5.914   3.981   6.195  0.3386 -0.0894 -0.0894
13092W        W26506  15.712   3.442  12.048 -0.0540 -0.2132 -0.3370
13093W        W26507  11.231   2.992  15.490 -0.3116 -0.4372  0.1221
13094W        W26508  16.359  17.326  11.526 -0.1483  0.3055  0.0775
13095W        W26509   6.572   4.165   2.580 -0.0548  0.1681 -0.0269
13096W        W26510   6.626   2.257  13.166 -0.0335 -0.0697  0.3628
13097W        W26511  13.884   0.221   5.238  0.1815  0.3115  0.3411
13098W        W26512  17.855   7.802   3.091  0.1741 -0.0867 -0.1638
13099W        W26513   8.109  12.935   5.760 -0.3455 -0.3896  0.1570
13100W        W26514  14.964   1.436  14.532 -0.3249  0.0033 -0.1745
13101W        W26515   8.692  13.497  10.954 -0.1359 -0.1291 -0.3544
13102W        W26516  16.285   3.456   4.832 -0.2226 -0.0718  0.1737
13103W        W26517  18.108   7.424   4.776 -0.0285  0.1241  0.2812
13104W        W26518   2.748   7.873   1.952  0.0190  0.0783  0.3157
13105W        W26519   4.601   0.740  14.588  0.0605 -0.1201 -0.1248
13106W        W26520   6.907  12.017  15.230  0.2356  0.0627  0.1979
13107W        W26521   1.146  17.127  11.607  0.4186  0.2789  0.3092
13108W        W26522  17.633  13.443  12.835 -0.1978  0.0184 -0.1510
13109W        W26523  16.808   3.911  11.890  0.2280  0.0399 -0.0743
13110W        W26524   0.560  15.656   2.265 -0.1128 -0.0158  0.1696
13111W        W26525   7.044   4.627   0.673  0.1099 -0.1171 -0.0666
13112W        W26526   3.929   8.831   4.582 -0.0863 -0.3093 -0.1300
13113W        W26527  16.402  13.306   5.735 -0.1398 -0.0510  0.2206
13114W        W26528   3.711   9.866   1.471  0.1858 -0.0727 -0.0584
13115W        W26529  17.752  17.351   2.426 -0.0292 -0.1296  0.2542
13116W        W26530   3.302  15.153   1.202  0.1911  0.0779 -0.2884
13117W        W26531   5.178  11.502  14.200  0.0101  0.1096  0.3662
13118W        W26532   9.288   3.481  11.044 -0.1168 -0.1289  0.0727
13119W        W26533   1.806   5.757   1.680  0.0326 -0.0366 -0.0988
13120W        W26534   0.160   0.855   0.562 -0.0084  0.0964 -0.0446
13121W        W26535   5.152  16.846   3.474  0.0035  0.1588  0.1748
13122W        W26536   3.026  17.607   2.758 -0.2176 -0.3280  0.0525
13123W        W26537   4.990   7.157   0.456 -0.3081 -0.2316 -0.0209
13124W        W26538   3.946   4.655   0.515  0.2532 -0.2908  0.1802
13125W        W26539  12.844  12.003  10.156 -0.1122  0.0767 -0.2518
13126W        W26540  11.005   4.193  12.458 -0.0234 -0.0864 -0.0818
13127W        W26541   6.128   1.673   0.056  0.3216 -0.0167 -0.2737
13128W        W26542  14.101  16.058   4.640 -0.5113  0.0258  0.1147
13129W        W26543   1.943  14.218   6.062 -0.1555  0.2741  0.1547
13130W        W26544   5.068  10.914   5.468 -0.2157  0.2105  0.2228
13131W        W26545   8.610  12.206   1.868  0.0437 -0.0865  0.0992
13132W        W26546   6.227   2.704   1.271  0.0574 -0.2147 -0.1451
13133W        W26547   0.942   1.817   3.571  0.2722  0.0050  0.0432
13134W        W26548  16.135   9.446   3.844  0.1173  0.0343 -0.1015
13135W        W26549   0.153   0.498   5.889 -0.1820  0.1429 -0.1856
13136W        W26550   4.276  15.917  13.213 -0.1561 -0.1142 -0.2621
13137W        W26551  16.254  18.035   5.817  0.1413  0.1818 -0.0895
13138W        W26552   0.986  10.934   2.315  0.3355  0.1814 -0.2243
13139W        W26553   9.316   8.673   2.894 -0.2529  0.1616 -0.1462
13140W        W26554   1.229   3.485  13.060 -0.2790  0.0510 -0.4824
13141W        W26555   6.272   5.527  12.891 -0.1421  0.0210 -0.0458
13142W        W26556  15.842   4.818   4.800 -0.1726  0.0686  0.4332
13143W        W26557   7.752  14.874  15.625  0.4304 -0.0702  0.3649
13144W        W26558  10.776  13.890  16.030  0.2214  0.3099  0.1464
13145W        W26559  16.394  16.866   1.990 -0.1207 -0.0940 -0.1946
13146W        W26560  13.456  10.643  16.030  0.2093  0.0290 -0.2896
13147W        W26561   0.357   4.068   3.690  0.0072 -0.0466  0.0837
13148W        W26562  16.871   8.988  12.833 -0.2253 -0.1411  0.3572
13149W        W26563   0.736  11.005  13.086 -0.0542 -0.2218 -0.2533
13150W        W26564  11.428  16.781   0.933 -0.2342  0.1925  0.0824
13151W        W26565   7.237  11.872  12.104 -0.2987  0.0301 -0.2207
13152W        W26566   0.758   2.205   0.260  0.0535  0.0969 -0.2694
13153W        W26567  17.562  15.834   5.095  0.0287 -0.2755  0.1148
13154W        W26568  15.589  15.531  12.509 -0.2654 -0.0675 -0.0843
13155W        W26569   3.545  16.640   6.436  0.0412 -0.2203 -0.0343
13156W        W26570   2.146   7.168  15.214  0.0038 -0.3398 -0.1040
13157W        W26571  11.791  11.798   0.832  0.3018 -0.3841  0.1917
13158W        W26572  11.732   5.586   1.854 -0.1076 -0.1097 -0.2064
13159W        W26573  17.060  14.008   2.260  0.2508  0.0504 -0.1039
13160W        W26574   2.201   8.488   3.035 -0.2742 -0.1913 -0.2071
13161W        W26575  14.171   1.882  14.642  0.0021  0.3343  0.0694
13162W        W26576   1.969  12.775   1.288  0.0362  0.0380 -0.2735
13163W        W26577  13.312  16.798   4.957 -0.0159 -0.0037 -0.0031
13164W        W26578   0.540   4.901  13.487  0.1540 -0.1279 -0.1371
13165W        W26579   0.075   4.151  12.569 -0.2400 -0.0745  0.3016
13166W        W26580  15.800  16.046   0.166 -0.1941  0.0071  0.1398
13167W        W26581  10.567  10.736   0.305 -0.2569 -0.2876  0.0016
13168W        W26582  14.112   8.687   2.039 -0.0250  0.1261 -0.2342
13169W        W26583   7.646   7.241  11.519 -0.0618  0.1864  0.0158
13170W        W26584   3.446  10.330  12.466 -0.0441  0.1405 -0.0228
13171W        W26585  11.323  12.257   6.322 -0.2862 -0.3289  0.1341
13172W        W26586   0.546  16.670   3.073 -0.0965 -0.5026 -0.0899
13173W        W26587   9.686  17.010  15.111  0.1581  0.3679  0.3092
13174W        W26588  17.183  10.102  12.555  0.0536 -0.0384 -0.1597
13175W        W26589  10.921  11.769   1.085  0.2309 -0.0467 -0.2416
13176W        W26590  16.292   1.052   9.968  0.0292  0.1424  0.1371
13177W        W26591   6.172   2.509  13.031  0.2072 -0.1228 -0.0730
13178W        W26592   1.109   3.677  15.745 -0.1815  0.0449  0.0521
13179W        W26593   7.108   3.783   1.974  0.0273  0.2098  0.1346
13180W        W26594   4.228  15.135   5.315  0.3569 -0.0545  0.1627
13181W        W26595  10.857  11.001  14.369  0.1139 -0.4033  0.0359
13182W        W26596   0.646   5.297   1.631  0.0944  0.0201 -0.0127
13183W        W26597  11.503  17.128   2.554 -0.1192 -0.1200 -0.0485
13184W        W26598   7.092  17.887   0.855 -0.0306  0.0610  0.0416
13185W        W26599  16.151  18.100   5.180  0.0604  0.0459  0.0713
13186W        W26600   9.796  15.615   5.843  0.0423  0.0157 -0.1057
13187W        W26601  16.826   0.466  15.185  0.3848  0.0925  0.0136
13188W        W26602  15.400   6.149   3.597  0.2300  0.0569  0.2782
13189W        W26603   9.066   0.943   0.007  0.1631  0.0027 -0.0766
13190W        W26604   3.650   0.568   2.972 -0.2527 -0.1208  0.1701
13191W        W26605   6.984   9.652   3.106  0.1170  0.0956  0.1360
13192W        W26606  10.020  16.108   2.089 -0.0823  0.2888 -0.0224
13193W        W26607   7.213   1.160   2.384  0.5143  0.1417 -0.2932
13194W        W26608   2.633   0.484   3.042 -0.0774  0.0690 -0.1201
13195W        W26609  13.282  15.915   4.524  0.1547 -0.0186 -0.1465
13196W        W26610  10.295  16.022   0.659  0.0723  0.1092 -0.3358
13197W        W26611   9.722   1.602  16.315  0.0589  0.0458  0.1543
13198W        W26612   9.203  11.246  15.893 -0.1671 -0.0974  0.1578
13199W        W26613  13.215  12.311  10.446  0.3524 -0.0606 -0.0824
13200W        W26614   1.680  15.326  14.520  0.1154  0.0750 -0.0820
13201W        W26615   1.027   1.930   5.009 -0.3810  0.1491 -0.1225
13202W        W26616  17.131   3.238   3.358  0.1139  0.2947 -0.0051
13203W        W26617  10.738  13.477  12.957  0.1161  0.3497 -0.0867
13204W        W26618   9.481  11.020  11.705 -0.0792 -0.0284 -0.0700
13205W        W26619   4.390   3.996   2.522  0.2018 -0.1891  0.2851
13206W        W26620  17.688   8.610  15.602 -0.0760 -0.0697 -0.0227
13207W        W26621  10.305  10.847  12.267 -0.4442 -0.2118  0.0645
13208W        W26622  15.440  14.756  15.605  0.1257 -0.1061  0.1192
13209W        W26623   8.705   8.146  15.767 -0.0508  0.1125  0.0586
13210W        W26624   5.908  14.405   2.203 -0.2231  0.2298  0.2308
13211W        W26625  17.413  11.331   3.602 -0.0097  0.2318 -0.3045
13212W        W26626   9.126  11.347   0.438  0.0597  0.3833  0.0832
13213W        W26627  13.278   3.050  10.467 -0.1390 -0.3898 -0.1820
13214W        W26628   3.822   1.406   2.333  0.3430  0.1427 -0.0300
13215W        W26629   9.756   0.383  10.179 -0.1391  0.0332 -0.0946
13216W        W26630  13.419  12.896   2.025  0.0385  0.1205 -0.0505
13217W        W26631  12.136   6.199  13.497 -0.2653 -0.1249 -0.1793
13218W        W26632  13.982  11.921  13.596 -0.2742  0.0287  0.3137
13219W        W26633   3.659   3.536   0.814 -0.0815  0.0342  0.1114
13220W        W26634  17.843   7.972  11.668  0.0187  0.2243  0.0950
13221W        W26635   1.574  17.349   5.329  0.0392  0.0580 -0.0320
13222W        W26636   4.699   7.576   0.565 -0.2602  0.1826 -0.0198
13223W        W26637  15.786   7.735  12.828 -0.0843 -0.1489 -0.1200
13224W        W26638   7.358   5.867   2.316 -0.0429  0.0202 -0.1299
13225W        W26639  13.485   9.800  16.316  0.0452  0.3050  0.1371
13226W        W26640   0.943  11.558  12.915  0.0751 -0.2851 -0.2985
13227W        W26641  14.678   1.530   3.102 -0.1439  0.0355  0.1760
13228W        W26642   7.469   5.943   1.414  0.1113 -0.2260 -0.0325
13229W        W26643  14.365  16.650   1.991  0.1087  0.3109 -0.2566
13230W        W26644   3.669  15.543   0.134 -0.0075  0.0418  0.1744
13231W        W26645   4.877  11.729   5.539 -0.0270  0.0203  0.0826
13232W        W26646   5.859  16.692   1.720  0.0961 -0.1240 -0.1700
13233W        W26647   0.928  12.858   3.117  0.2337  0.1557  0.1947
13234W        W26648   4.394   6.373   5.492 -0.0561 -0.1787  0.1938
13235W        W26649   8.685   7.182  15.810 -0.3593  0.1462 -0.0351
13236W        W26650   6.680  14.112  13.316 -0.0911 -0.1259 -0.0136
13237W        W26651  13.011  16.883   4.025  0.1793 -0.0429 -0.1048
13238W        W26652   7.285  13.678  15.367 -0.0550  0.0803 -0.1290
13239W        W26653  16.497  16.055   3.055 -0.2181  0.1640 -0.2019
13240W        W26654   0.075  14.004   2.717 -0.2244 -0.1437  0.2107
13241W        W26655   6.840   3.021  15.332 -0.0599  0.2563  0.0990
13242W        W26656  13.125  12.667  15.348 -0.1845  0.0944  0.1227
13243W        W26657  10.962  10.498   1.455  0.0049 -0.4194 -0.1925
13244W        W26658   6.027   8.049   1.365 -0.1590  0.0768 -0.0125
13245W        W26659   8.231  13.718  14.104 -0.0910  0.1515  0.1679
13246W        W26660   5.837   6.804  12.288 -0.3772 -0.0161  0.1106
13247W        W26661   0.419  13.689   2.384  0.2121 -0.1510  0.0182
13248W        W26662  10.053   4.218  11.071  0.1453 -0.1781 -0.1752
13249W        W26663  10.825   4.306   1.107  0.1539 -0.1969 -0.1459
13250W        W26664   9.561   6.525   0.965  0.0457  0.0933 -0.0722
13251W        W26665  12.530  10.419  12.231  0.1543 -0.0913  0.0941
13252W        W26666  12.115  11.659  11.422 -0.1912  0.0170  0.1842
13253W        W26667  16.487   1.977   1.688 -0.1626 -0.0354 -0.2493
13254W        W26668   4.115   9.449  15.664  0.1157 -0.0399  0.1200
13255W        W26669   5.256  14.317   2.790  0.2472  0.0558 -0.0680
13256W        W26670  15.598   5.436   2.491  0.1770  0.3431 -0.5917
13257W        W26671  16.475   2.649   0.998 -0.0997  0.2204  0.5578
13258W        W26672   1.663  14.349  16.110  0.3143 -0.2142  0.2521
13259W        W26673  16.666   4.881  11.616  0.1776  0.4135 -0.0351
13260W        W26674  15.848   9.434   3.426  0.1027  0.1219  0.2458
13261W        W26675   3.434  14.696  14.533  0.1449 -0.2875 -0.1461
13262W        W26676  16.893  10.439  13.770  0.1848  0.1794 -0.3172
13263W        W26677  16.753  14.387  11.560  0.0857  0.1809 -0.1930
13264W        W26678  11.592  17.586   5.228 -0.3352  0.0390  0.3779
13265W        W26679   7.068  15.602   2.722  0.0793  0.0647  0.0609
13266W        W26680  11.059   0.128  11.650 -0.3872  0.0265  0.3451
13267W        W26681  10.039   1.300  12.293  0.0867  0.0920  0.2514
13268W        W26682  13.366   0.124  14.999 -0.2078  0.1190 -0.1447
13269W        W26683  13.298   2.469   3.566  0.3008  0.1721  0.1073
13270W        W26684   2.333   9.098  12.873 -0.7202 -0.1595 -0.0435
13271W        W26685  15.282   5.425  16.342  0.1784  0.2158  0.0656
13272W        W26686   4.720  14.976   5.269 -0.1161 -0.5758 -0.1008
13273W        W26687  17.027   7.133  10.716 -0.1723  0.0208  0.1773
13274W        W26688   2.164   1.341   4.808 -0.0584  0.0271 -0.1215
13275W        W26689  12.757  15.219   2.281 -0.0038  0.1893 -0.1227
13276W        W26690  15.685   7.307  12.315  0.1030 -0.0962 -0.0122
13277W        W26691   7.622   0.493   1.220  0.2390 -0.0655 -0.1276
13278W        W26692   3.427  16.037  14.175 -0.2874 -0.0050  0.1373
13279W        W26693   9.594  15.773   1.402 -0.1584 -0.2749  0.2575
13280W        W26694   3.911   0.843  10.922  0.3353 -0.0484 -0.1009
13281W        W26695  11.045   6.787  13.765  0.0483  0.1893 -0.1315
13282W        W26696   8.830   5.862   4.264 -0.0395  0.1762  0.0152
13283W        W26697   3.010  11.620   4.690 -0.1437  0.0803  0.0418
13284W        W26698   7.797   3.475  13.774  0.2529  0.1528  0.0358
13285W        W26699   4.000   0.782  15.171  0.0746  0.2667 -0.0065
13286W        W26700   1.247  18.198   6.567  0.2045 -0.0437  0.1298
13287W        W26701   2.781   7.090   2.593  0.1288 -0.0985 -0.0505
13288W        W26702   4.377   9.184  11.479  0.3288 -0.1344 -0.1772
13289W        W26703   9.904   1.214   2.961  0.1558  0.1810  0.0852
13290W        W26704   8.093   0.919  14.795  0.0243  0.0677  0.1932
13291W        W26705  12.523  12.902   1.850  0.0782  0.1767 -0.3124
13292W        W26706  14.111   0.081  12.247 -0.0875 -0.0653  0.1314
13293W        W26707  13.237   5.933   2.654 -0.0516 -0.1204 -0.4359
13294W        W26708   5.315  12.860  11.935  0.0260 -0.0114 -0.0024
13295W        W26709   7.576   8.784  16.286 -0.2041 -0.1646  0.0919
13296W        W26710   6.518  16.183   4.665  0.0545 -0.0397 -0.0941
13297W        W26711  13.069   4.134   5.407 -0.0999  0.2019 -0.0515
13298W        W26712   9.853  17.700   3.502  0.1558  0.2267 -0.2104
13299W        W26713   2.313   7.439  12.647 -0.2297 -0.3501  0.2554
13300W        W26714  13.171   3.648   2.720  0.2291  0.0225  0.3175
13301W        W26715   9.644   2.640  12.590  0.0714 -0.2358  0.1414
13302W        W26716  16.933  10.445   3.606 -0.1427  0.1535 -0.1446
13303W        W26717   5.107   8.141   0.530 -0.1123  0.0224 -0.1923
13304W        W26718   5.214  13.205  12.356  0.1746 -0.1456  0.0226
13305W        W26719   5.710  14.356   2.673 -0.2983 -0.1750  0.0385
13306W        W26720   7.278   9.519  15.657  0.1974 -0.0057 -0.0732
13307W        W26721   5.468  16.179  11.915  0.0165 -0.1282 -0.0711
13308W        W26722  14.535   4.115  10.233  0.0691 -0.1485  0.0173
13309W        W26723  10.495  15.601  12.228  0.2996 -0.0793 -0.1035
13310W        W26724  17.304   3.863  14.358  0.1034  0.0537 -0.0206
13311W        W26725  15.950   3.123  15.048 -0.1215  0.2172  0.1371
13312W        W26726  14.495   0.257   2.890 -0.2845 -0.0679  0.0494
13313W        W26727   0.390   6.063   6.116  0.1096  0.0297  0.0237
13314W        W26728   5.944  15.073  12.973 -0.1500 -0.0272 -0.1481
13315W        W26729  10.371  12.786   5.117 -0.0258  0.1425  0.0619
13316W        W26730   3.521  13.625  15.016 -0.1957  0.0355  0.1963
13317W        W26731  15.480   0.430   1.801 -0.0432  0.1263 -0.0371
13318W        W26732  16.816   8.379   3.245  0.1988 -0.0784  0.1275
13319W        W26733   4.966  14.956   3.406  0.0185 -0.0374 -0.3559
13320W        W26734   3.786  14.880   4.553  0.1519 -0.7195 -0.1395
13321W        W26735   7.132  16.860   2.390  0.0361  0.0827 -0.3252
13322W        W26736   0.064   2.920  14.902  0.0526  0.2889 -0.0308
13323W        W26737  11.984   4.006  15.985 -0.0376 -0.2102  0.1106
13324W        W26738   3.830  10.070   1.925  0.5183  0.0652 -0.1382
13325W        W26739   7.487   9.295  13.810  0.1223 -0.0843 -0.0354
13326W        W26740   7.249   7.236  14.677  0.0030 -0.2254 -0.0185
13327W        W26741  12.169   7.868   5.819  0.0985 -0.0833  0.0634
13328W        W26742  16.957   5.648   1.641 -0.1366 -0.2269  0.0814
13329W        W26743   3.220  10.572   2.220  0.2831  0.2720 -0.1112
13330W        W26744  10.890  12.472   4.041  0.0672  0.1181 -0.3185
13331W        W26745  14.841  10.143   2.473  0.1040  0.5517  0.1801
13332W        W26746   8.902   8.869  13.001  0.1156  0.3975  0.0854
13333W        W26747   7.137   3.556   0.808 -0.1070 -0.1415  0.0403
13334W        W26748  12.967   4.234   1.156  0.2887 -0.1116  0.1594
13335W        W26749  14.820  16.488  10.772 -0.1595 -0.3049 -0.1406
13336W        W26750  18.237  14.085   3.564  0.3224  0.0998  0.0127
13337W        W26751   6.601  17.777  13.775  0.0595 -0.0114  0.0733
13338W        W26752   4.363   8.873   5.151 -0.0441 -0.1085  0.3818
13339W        W26753  10.027  14.698  16.301 -0.0180 -0.0503 -0.0039
13340W        W26754   3.357   0.904  16.394  0.0672 -0.0466 -0.1267
13341W        W26755  15.659   4.219  16.328  0.1117 -0.0747  0.2896
13342W        W26756  14.017  15.105   4.949  0.1610  0.0547 -0.1436
13343W        W26757   0.772  11.088   1.565  0.0364 -0.2339 -0.1226
13344W        W26758   5.130   1.845  11.192 -0.2100 -0.0191  0.1145
13345W        W26759  12.831  10.476  13.416  0.0865 -0.0351 -0.2328
13346W        W26760  14.515   0.090  10.632  0.3779  0.0446 -0.1188
13347W        W26761   3.449   9.446  12.816  0.1968 -0.1372  0.0580
13348W        W26762   7.499   5.674   0.375 -0.1123  0.1838 -0.0455
13349W        W26763  14.528  15.468   5.096 -0.0866  0.1051 -0.0835
13350W        W26764  15.364  15.856   0.418 -0.3563 -0.2211 -0.1558
13351W        W26765   6.188   0.847  15.327 -0.0652 -0.1036 -0.0029
13352W        W26766  10.327  10.949  14.774 -0.1503 -0.0101  0.2962
13353W        W26767   5.871   8.003  14.116  0.1364 -0.4714  0.0006
13354W        W26768   1.731  11.185   2.827 -0.1176  0.0207 -0.0215
13355W        W26769   1.367   2.821  11.363 -0.1560 -0.0822  0.1034
13356W        W26770   1.560   3.364  16.495  0.0014  0.2806 -0.0961
13357W        W26771  12.365  17.668   5.203 -0.2110  0.1396 -0.0896
13358W        W26772  16.595   0.440   3.654 -0.0021  0.0101 -0.0050
13359W        W26773   3.825  17.290   3.915 -0.0098  0.0143  0.1444
13360W        W26774   4.985  15.728  12.627  0.1160 -0.2657 -0.3865
13361W        W26775  11.160   8.831  14.349 -0.0027  0.2452  0.1153
13362W        W26776   8.685  18.037  15.697  0.2984 -0.0694 -0.0477
13363W        W26777  18.124  13.513  10.212  0.2282  0.2773  0.0768
13364W        W26778  16.327   0.370  13.903  0.0054  0.0081 -0.1670
13365W        W26779   3.746  17.997  10.790  0.1288  0.0682  0.4321
13366W        W26780   2.299  16.589  13.919 -0.2565  0.1504  0.0327
13367W        W26781   1.323   5.967   2.047  0.1843  0.0611 -0.0792
13368W        W26782  15.082   9.331  15.101  0.1021 -0.0286 -0.0187
13369W        W26783   7.214  18.160   3.228 -0.0308  0.0677  0.0891
13370W        W26784   7.780   2.800   1.247 -0.0161 -0.0115  0.1833
13371W        W26785  10.708  14.630   2.286  0.3391 -0.0836  0.0271
13372W        W26786  17.075   3.472  10.730  0.0668 -0.1322 -0.1973
13373W        W26787  11.868   8.037  14.438 -0.0082 -0.1714 -0.2369
13374W        W26788  11.417  10.690   3.809  0.0121  0.2881  0.1868
13375W        W26789  12.095  12.928   6.309  0.1710 -0.1529 -0.0655
13376W        W26790   5.256   9.397  10.836  0.1863  0.3069  0.0487
13377W        W26791  12.297   6.762   5.928  0.1767 -0.2127 -0.0034
13378W        W26792  18.057  11.923   0.026  0.1973  0.0491 -0.3024
13379W        W26793   2.707   6.780  15.435 -0.0122 -0.0921 -0.2276
13380W        W26794   5.463   4.500   5.004  0.1578 -0.1666 -0.0762
13381W        W26795   6.110   8.584   4.608  0.2545  0.0819  0.0517
13382W        W26796  14.873   5.667   0.268 -0.0582  0.1915 -0.0799
13383W        W26797  14.775  16.359   2.117 -0.5194  0.4376  0.4825
13384W        W26798  12.167   8.916   2.306  0.1057  0.2459  0.0067
13385W        W26799  16.490  14.085  14.456  0.1602 -0.1514 -0.1416
13386W        W26800  15.825  17.929  14.612  0.0848  0.1111 -0.0884
13387W        W26801  10.082   7.855  12.016 -0.1563 -0.0261  0.2259
13388W        W26802   2.890  18.048  15.475 -0.0620 -0.6068  0.3275
13389W        W26803   9.547   8.568   3.339  0.1017  0.0032 -0.1052
13390W        W26804  17.022   3.720   4.258  0.1817  0.0713  0.1596
13391W        W26805   1.001  13.906  13.625  0.1594 -0.0151  0.0580
13392W        W26806  13.367   0.260  13.163  0.2012  0.0287 -0.1266
13393W        W26807  12.381   0.500   5.348 -0.1791 -0.0824  0.0679
13394W        W26808  17.616   2.194  10.487  0.0917  0.2500 -0.0968
13395W        W26809   2.763  12.635   0.141  0.1530 -0.1132 -0.1882
13396W        W26810   1.071   7.370  16.185  0.4198  0.0128  0.1364
13397W        W26811   2.016  11.952  11.140 -0.0486 -0.1680  0.0525
13398W        W26812  17.648  18.133   5.281  0.4655  0.2736 -0.0050
13399W        W26813   7.536  15.512  10.424 -0.0899 -0.2561  0.0672
13400W        W26814  17.850   3.515   4.623 -0.0099 -0.5715  0.1986
13401W        W26815  12.655  13.477   9.990 -0.1558 -0.0193 -0.2162
13402W        W26816  14.377   7.635  10.884  0.1521  0.0939 -0.4512
13403W        W26817  16.193   0.375   2.850  0.0487  0.5635  0.1601
13404W        W26818   0.891  15.768  14.335 -0.2077 -0.0124 -0.0006
13405W        W26819   7.938   8.421  13.013 -0.0156  0.0668  0.4128
13406W        W26820  17.502   9.906  13.517 -0.1586 -0.0712  0.4315
13407W        W26821  17.268   9.649  12.378 -0.1805 -0.1043  0.2056
13408W        W26822   7.330  11.963   2.196 -0.3548  0.2765 -0.0221
13409W        W26823   4.888   6.813  14.642 -0.2062  0.2329  0.2802
13410W        W26824  10.538   4.728   0.204  0.1257  0.1735  0.1836
13411W        W26825   3.994   3.598  16.009  0.0565 -0.2092  0.0797
13412W        W26826  13.314  10.415   2.101  0.1502  0.1024  0.1277
13413W        W26827  11.237   8.106  15.130 -0.2194 -0.1887 -0.0214
13414W        W26828  17.425   5.077  14.321  0.0973 -0.0610 -0.2785
13415W        W26829  14.738  14.025  12.159  0.2791  0.1503 -0.0407
13416W        W26830   5.744   8.948  14.889 -0.1529 -0.0453  0.0100
13417W        W26831  12.267   1.848  10.745  0.2983 -0.0239 -0.3187
13418W        W26832  16.800   3.205   2.272  0.5117 -0.3064  0.0087
13419W        W26833  12.024  14.405  10.823  0.0824 -0.3433  0.0481
13420W        W26834  16.099   2.940  11.607 -0.1563  0.1362  0.0888
13421W        W26835   6.555  16.148   1.827  0.1021 -0.2123  0.3723
13422W        W26836  14.073  17.155  11.284 -0.3280  0.0637  0.4128
13423W        W26837   0.717   6.387  16.409 -0.0499  0.0487 -0.0583
13424W        W26838   9.779  13.383   2.201 -0.3232 -0.2261  0.0553
13425W        W26839  11.881   2.376   1.639 -0.0805 -0.3536 -0.2500
13426W        W26840   9.398   4.121  12.148 -0.0181 -0.0721 -0.1179
13427W        W26841   8.921  14.599  13.556  0.1133  0.0163  0.1929
13428W        W26842  10.494  17.098  13.653  0.1669  0.1914 -0.0906
13429W        W26843   7.229   7.533   3.924 -0.0963 -0.1144 -0.0318
13430W        W26844  10.730   5.597   0.508 -0.0453  0.0339  0.0225
13431W        W26845  12.885   7.829   3.575 -0.0330 -0.0233  0.0961
13432W        W26846  16.735   6.424   1.372  0.1839 -0.0657 -0.0419
13433W        W26847   1.537   6.261  11.515  0.0128 -0.1640  0.2737
13434W        W26848   1.657   6.484  11.983 -0.4313  0.1557 -0.2645
13435W        W26849  15.145   7.631   2.315 -0.1267  0.3555  0.2502
13436W        W26850   0.562   2.011   2.598 -0.2295 -0.1706  0.0873
13437W        W26851   5.186   1.506  14.033  0.5636 -0.1158  0.2009
13438W        W26852   5.413  14.751  14.430 -0.1780 -0.1164  0.1705
13439W        W26853   7.104  14.966  14.740 -0.0898  0.1162 -0.1511
13440W        W26854   9.596   4.285   4.434  0.3285 -0.1968 -0.1084
13441W        W26855  11.775   6.268  13.953  0.0246  0.1673  0.0465
13442W        W26856   5.442   4.571  14.780 -0.0384  0.0140 -0.0471
13443W        W26857   0.390  10.906  16.130  0.1521  0.1363 -0.3593
13444W        W26858   9.498   5.936   5.393 -0.1413  0.1232  0.0806
13445W        W26859   5.528  10.970  13.692  0.0421 -0.1328  0.1852
13446W        W26860   9.609   2.307   3.079  0.0693 -0.1119 -0.3103
13447W        W26861   4.854   5.883  13.519 -0.1183 -0.1486  0.3435
13448W        W26862  15.974   4.876  14.665  0.0132  0.1588 -0.1005
13449W        W26863   1.731  10.688  15.096  0.0042  0.0229 -0.3738
13450W        W26864  14.826   5.421  13.971  0.1819 -0.4211  0.0119
13451W        W26865  17.609   7.527   4.756  0.1410  0.3229 -0.2493
13452W        W26866   5.346   8.864   5.195  0.0501  0.4094 -0.0257
13453W        W26867   5.096   8.818   5.712 -0.0255 -0.2901 -0.3226
13454W        W26868   9.153  13.957   2.165 -0.1534  0.1680  0.1328
13455W        W26869   5.270   5.517  15.914  0.0965  0.1759 -0.0460
13456W        W26870  15.141  12.544   3.601 -0.2296 -0.2321  0.1013
13457W        W26871  14.460  17.197   0.376 -0.0832 -0.2427  0.0705
13458W        W26872  18.248  14.328  12.864  0.1667  0.1918  0.2963
13459W        W26873   3.717   3.332  12.209  0.2498  0.1565  0.1503
13460W        W26874  13.612   6.991  10.112  0.1973 -0.1104  0.3937
13461W        W26875   6.782   1.028  16.064  0.1136  0.2569 -0.0409
13462W        W26876   9.851  10.218   4.378  0.1499  0.1059  0.1951
13463W        W26877  14.325   6.497  11.827 -0.1200 -0.0137  0.2061
13464W        W26878  10.015   3.706  14.434  0.3094 -0.1161  0.1085
13465W        W26879   4.486   6.846   5.362 -0.1596 -0.1938  0.2494
13466W        W26880  18.093   8.918  11.693  0.1649  0.1288 -0.0630
13467W        W26881  14.713  15.419   0.503  0.1288 -0.0657 -0.0060
13468W        W26882   1.086  17.953  11.495 -0.0909 -0.1042  0.1960
13469W        W26883  14.706  10.326  12.010 -0.0496  0.0527  0.1060
13470W        W26884   7.641   9.300   2.047 -0.1364 -0.1062 -0.1604
13471W        W26885   4.541   4.914   2.638 -0.2000 -0.3234 -0.4173
13472W        W26886  11.462   8.665   6.236  0.2336  0.0509  0.3139
13473W        W26887   0.793  11.397   3.621  0.0831 -0.1234 -0.0058
13474W        W26888   0.238  14.842  11.451  0.0668 -0.0011  0.2453
13475W        W26889  11.477   7.954  15.568 -0.0983 -0.0576  0.1922
13476W        W26890  15.395   4.419   4.964 -0.4420  0.0656  0.1367
13477W        W26891  17.320  17.423  11.585  0.0638  0.2567 -0.1793
13478W        W26892   1.561   2.206   4.453  0.0934  0.1068  0.1830
13479W        W26893   0.238   0.145   5.018  0.0487 -0.1931 -0.0169
13480W        W26894  13.974   3.932   0.253 -0.0152  0.1267  0.0462
13481W        W26895  10.402  12.991  15.622 -0.0698  0.0104 -0.0392
13482W        W26896  10.513   1.768   4.010 -0.0065  0.0632  0.0731
13483W        W26897   6.123   5.017   4.544 -0.0183 -0.1881  0.1033
13484W        W26898   0.628   1.075  12.636  0.0318  0.0078 -0.2208
13485W        W26899   4.515   5.104  16.239  0.0870  0.0457  0.2030
13486W        W26900  11.408   1.760  10.588 -0.0608  0.0462 -0.2298
13487W        W26901   5.577  12.728   4.468 -0.2598 -0.2184  0.3034
13488W        W26902   7.757   5.034  12.265  0.1127 -0.0130  0.0682
13489W        W26903  18.105  13.293  14.485 -0.1352 -0.0077 -0.1043
13490W        W26904  14.340   5.902  14.208  0.0872 -0.0348  0.0526
13491W        W26905   1.142   8.218   4.239  0.2688  0.1174  0.2823
13492W        W26906  11.748  13.960   4.189 -0.1224 -0.0070  0.1414
13493W        W26907  13.058   1.870   0.586 -0.0010 -0.1612 -0.0274
13494W        W26908  15.681  11.235   2.759  0.0946  0.3151 -0.1814
13495W        W26909   3.514  14.886  10.535 -0.2536  0.1532 -0.0080
13496W        W26910   5.165   5.566   1.089  0.0334  0.0873 -0.1644
13497W        W26911   9.038  14.423   9.970  0.0241  0.1044  0.0019
13498W        W26912  15.486   5.181  15.948 -0.0483 -0.0109  0.1484
13499W        W26913  12.773   2.188  11.311  0.0317 -0.0440  0.0103
13500W        W26914  16.408   4.949   9.822 -0.3043  0.4526  0.0655
13501W        W26915   7.163  11.515  14.094  0.2355 -0.2013 -0.2100
13502W        W26916  16.077   7.342  12.747  0.0066 -0.1290 -0.0257
13503W        W26917  10.696  13.285   4.510  0.1165 -0.1497 -0.0368
13504W        W26918  11.918   6.727  15.300 -0.1452  0.0064 -0.0020
13505W        W26919   2.407   9.483  15.785 -0.0251  0.1710  0.0461
13506W        W26920   2.213   5.088   1.544 -0.1034  0.1049 -0.1024
13507W        W26921  12.113   7.671   3.120 -0.1885 -0.2472  0.0710
13508W        W26922  15.648   3.962   3.425 -0.0550  0.0069 -0.1145
13509W        W26923   0.904  16.435   0.106 -0.2619 -0.1466 -0.0467
13510W        W26924   2.846  16.402  13.617 -0.1830  0.2261  0.2369
13511W        W26925   4.170  17.066  15.611 -0.1138  0.1271  0.2224
13512W        W26926  13.516   8.831  14.027  0.1430 -0.0901 -0.0320
13513W        W26927  15.176  16.519  15.628 -0.1047 -0.1985  0.1004
13514W        W26928   6.539   8.085   2.245 -0.0659 -0.0045 -0.1502
13515W        W26929  13.823   1.530   2.534  0.0383 -0.0874 -0.4117
13516W        W26930   8.174  14.932  14.720 -0.0133  0.1498  0.1892
13517W        W26931  12.525   0.505   1.085  0.1312  0.0522  0.1039
13518W        W26932  15.200   2.372   3.259 -0.3301 -0.0307  0.1479
13519W        W26933   7.755   1.870   9.866  0.0032 -0.1604 -0.0311
13520W        W26934   2.440   1.240  14.138 -0.0589 -0.0573  0.1424
13521W        W26935   4.712  13.685   4.798  0.0458 -0.3895  0.1874
13522W        W26936  15.458   2.422   9.930  0.2740 -0.0604 -0.0001
13523W        W26937  11.913   7.059  13.970 -0.3347  0.0125  0.1744
13524W        W26938   8.284  10.099   0.179  0.1562 -0.0747 -0.2094
13525W        W26939  15.623  18.177   1.153  0.4699 -0.0294 -0.1027
13526W        W26940   4.766  13.441  12.177 -0.1807 -0.0917  0.3787
13527W        W26941   5.098  10.992   2.355 -0.0630  0.0048 -0.1131
13528W        W26942   7.475  17.647  15.653  0.1250 -0.1340 -0.3406
13529W        W26943   2.420   5.103  14.909 -0.0402  0.1355  0.0937
13530W        W26944   6.718   1.633   3.968 -0.0551  0.1185 -0.0766
13531W        W26945   4.273   2.626  14.428 -0.0992 -0.1040  0.0328
13532W        W26946   7.739  12.003  12.328 -0.2712  0.1380  0.3207
13533W        W26947   8.281  10.150  12.143  0.1697 -0.2048  0.0593
13534W        W26948  13.025  18.113  15.420  0.1064  0.0543  0.2485
13535W        W26949  16.465   4.792  13.112  0.1943  0.2523 -0.1403
13536W        W26950  12.587  15.637   5.950 -0.1742 -0.2388 -0.1980
13537W        W26951   4.193  11.119  12.556  0.0019  0.0014 -0.0154
13538W        W26952   3.553  10.393  11.235 -0.2634  0.3053  0.1344
13539W        W26953  17.299   5.424   1.898 -0.2732  0.3180 -0.0626
13540W        W26954  17.522   3.276  10.566  0.0221 -0.1567 -0.1105
13541W        W26955  13.432   6.862  15.312  0.1116 -0.0974  0.2613
13542W        W26956   2.838  11.942  11.369  0.0174 -0.0632 -0.0862
13543W        W26957   0.692  12.930   0.804  0.3243  0.1235  0.2870
13544W        W26958  14.608   5.768  13.296 -0.1254  0.0311 -0.0656
13545W        W26959  15.570  12.599   6.336 -0.0287  0.0859 -0.3229
13546W        W26960  15.146   8.890  10.980 -0.1376 -0.1929  0.1049
13547W        W26961  13.192   5.639   6.024  0.3004 -0.2112 -0.2572
13548W        W26962  13.964   8.044  11.574 -0.1288  0.0664 -0.0040
13549W        W26963   1.123   4.749   0.647  0.0831  0.1740 -0.2941
13550W        W26964  15.572  11.278   5.225  0.3033  0.0922  0.1190
13551W        W26965   8.300  16.649   5.035 -0.3664  0.1177 -0.1898
13552W        W26966   2.129   5.717  14.737  0.0273  0.1500 -0.0851
13553W        W26967   8.112   1.977  11.238 -0.3940 -0.1281  0.0770
13554W        W26968  14.366  15.553  11.061  0.0255 -0.0677  0.0606
13555W        W26969   8.357   3.793   2.940  0.2699 -0.0128 -0.3262
13556W        W26970  17.000   8.660   0.896  0.1489 -0.1700  0.2260
13557W        W26971   5.659   7.354  12.225 -0.2764  0.1575 -0.0119
13558W        W26972   7.906   6.777  11.100  0.4018  0.0631  0.3051
13559W        W26973  14.552   3.442  10.955 -0.1808  0.2504 -0.1853
13560W        W26974   2.530   9.425   3.869  0.3253  0.1161  0.0517
13561W        W26975  12.255  10.861  10.486  0.2536 -0.1083  0.1607
13562W        W26976  12.601  15.333   4.979  0.0297 -0.2667  0.0549
13563W        W26977   5.124   6.927  16.126 -0.0717  0.0875 -0.1188
13564W        W26978   4.896   8.105  13.544 -0.2114  0.2427 -0.2355
13565W        W26979  14.300   7.340   2.837 -0.0025  0.0303  0.0248
13566W        W26980   7.534   5.466  11.414 -0.0054 -0.1734 -0.1024
13567W        W26981   3.970  15.517  15.322  0.1605 -0.0125 -0.0859
13568W        W26982   3.758   1.291  16.357 -0.1314 -0.0874  0.0559
13569W        W26983   9.394   5.997   1.013  0.0393  0.0873 -0.2980
13570W        W26984   7.208  17.023  15.024 -0.1495  0.2467  0.1449
13571W        W26985  11.236   0.477  15.332  0.0277 -0.2194 -0.0577
13572W        W26986   9.523   5.238  15.135 -0.1078 -0.1479 -0.1416
13573W        W26987   0.477  16.643   5.282  0.1257 -0.2932  0.4416
13574W        W26988   9.511   9.050  11.105  0.0815  0.0532 -0.0211
13575W        W26989   8.609   5.386   0.706  0.3126  0.0291  0.2294
13576W        W26990   9.422   0.601  16.446 -0.2012  0.1090  0.1446
13577W        W26991  11.462  18.170   0.393  0.1208 -0.1028  0.0505
13578W        W26992   8.151  11.705  13.021 -0.1135  0.0520 -0.2164
13579W        W26993   8.356   9.720  14.450  0.1289  0.2888 -0.0275
13580W        W26994  13.754   5.993   2.605 -0.2677 -0.2091  0.0042
13581W        W26995   5.017   7.870   4.999  0.1727 -0.1743 -0.1315
13582W        W26996   1.624   7.792   3.945  0.1146 -0.0087  0.1357
13583W        W26997   9.716  15.453   3.339  0.0988  0.3050 -0.0265
13584W        W26998   2.257   7.020   1.302  0.1312 -0.2279 -0.0140
13585W        W26999   1.832  11.670   5.908 -0.0867 -0.1120  0.0687
13586W        W27000   6.174  15.947   4.338 -0.3407  0.1790 -0.1825
13587W        W27001   9.224  13.606   1.156  0.0322  0.1683 -0.0029
13588W        W27002  11.351  12.534   2.322  0.0837 -0.1956 -0.0527
13589W        W27003  15.891   2.033  14.396 -0.0231 -0.0132  0.0678
13590W        W27004  11.176   5.066   4.856 -0.3360 -0.2740 -0.0042
13591W        W27005   5.613   2.924  11.442 -0.0960  0.0393  0.1157
13592W        W27006  12.082  11.718  12.423 -0.1054 -0.1580  0.0763
13593W        W27007   8.175  11.796  15.191  0.0560 -0.1252  0.2725
13594W        W27008   5.619   5.694  15.179  0.0940 -0.1334 -0.0655
13595W        W27009   6.318  17.861  15.134  0.1172  0.0658 -0.5028
13596W        W27010  12.970   9.368   0.028  0.0114  0.4016 -0.1537
13597W        W27011   3.892  13.676   2.100 -0.1092 -0.3329 -0.1480
13598W        W27012   5.861  15.648   2.124 -0.1530 -0.2929  0.0586
13599W        W27013   7.752   9.510   5.350 -0.1016 -0.1303 -0.4391
13600W        W27014  14.512   6.662  13.238  0.4332  0.2397  0.3032
13601W        W27015  13.911  13.880   5.486 -0.1361  0.1484 -0.0093
13602W        W27016  11.711  17.093   3.489  0.0127  0.0381 -0.3792
13603W        W27017  15.207   3.562   9.842  0.0160  0.2998 -0.0146
13604W        W27018   8.702  15.889  11.574  0.3119  0.0932 -0.0165
13605W        W27019   8.476   5.433  12.863  0.1209 -0.1695 -0.0631
13606W        W27020  12.060   2.309  12.156  0.0280  0.2400  0.2928
13607W        W27021   0.187   8.629  16.232  0.1168 -0.2593  0.0401
13608W        W27022   1.497  14.257   4.729  0.0498  0.0044  0.3320
13609W        W27023   7.641  12.987  11.360  0.2083 -0.5330 -0.2339
13610W        W27024  18.035  10.577   4.536  0.2232  0.0558  0.0146
13611W        W27025  15.331   4.517   3.764  0.1439  0.3693 -0.0448
13612W        W27026  10.984  15.346   4.991  0.0752  0.2791 -0.0182
13613W        W27027  10.114   4.932   3.843  0.0343 -0.2778  0.0100
13614W        W27028  11.188  16.568  14.756 -0.0429  0.2241  0.1767
13615W        W27029   1.941  16.627  15.934 -0.0919 -0.0516  0.1416
13616W        W27030   1.921   9.350   4.564  0.3461  0.2460  0.2476
13617W        W27031   4.579  16.951  15.243  0.0565  0.2153  0.1906
13618W        W27032  17.313   1.318   5.048 -0.0210 -0.1649  0.1530
13619W        W27033   4.584  11.249  11.030 -0.1362  0.1102  0.0284
13620W        W27034   5.035   2.705  15.556 -0.0636 -0.0009  0.0318
13621W        W27035  11.953   2.766  13.013 -0.2511 -0.3632  0.0786
13622W        W27036  15.913  10.174   1.729  0.1272 -0.0376  0.0214
13623W        W27037  17.853   2.757   3.628  0.1806  0.0074 -0.2644
13624W        W27038   5.885  13.109  11.834 -0.1449 -0.2373  0.2509
13625W        W27039  15.914  13.666  12.856  0.0333  0.1067 -0.0297
13626W        W27040   9.818  16.730   4.611 -0.0710  0.1623 -0.1533
13627W        W27041   2.242   2.487  11.349 -0.0658  0.1175  0.0544
13628W        W27042  12.073   7.604   4.064  0.0795  0.0172  0.0309
13629W        W27043   6.570  15.291  14.671 -0.1688 -0.4045 -0.1359
13630W        W27044  13.866   9.988  15.112  0.1527 -0.0251  0.1788
13631W        W27045   2.764   6.365   0.969  0.1639 -0.0665 -0.1947
13632W        W27046   0.685  13.317  10.427 -0.3145  0.1870 -0.2203
13633W        W27047   7.934   5.655   4.115  0.0735 -0.1507  0.0982
13634W        W27048   6.769   2.312   0.399 -0.2534 -0.3679 -0.2125
13635W        W27049   9.882  16.565  12.417  0.0189  0.0004  0.0733
13636W        W27050   3.133   7.026   0.745  0.1008 -0.0835 -0.2112
13637W        W27051  13.125   2.758   0.573  0.4082  0.2395 -0.0798
13638W        W27052   1.607  13.901  14.823  0.1102  0.3450  0.0610
13639W        W27053   3.922  13.969  13.114  0.2669 -0.0526 -0.1808
13640W        W27054  11.847   5.694  10.482  0.2245 -0.2530 -0.1652
13641W        W27055  14.046  13.386  11.686  0.4296 -0.0357 -0.2567
13642W        W27056  10.113   5.479  16.133 -0.3268 -0.0343 -0.3587
13643W        W27057   4.658  12.898  13.096  0.2821 -0.1108 -0.2478
13644W        W27058  15.519  11.335   0.712 -0.1646 -0.4462 -0.0633
13645W        W27059   1.785  16.792   3.809  0.0585 -0.0167  0.2761
13646W        W27060  15.344  12.290  12.139 -0.0738  0.1358 -0.2778
13647W        W27061   4.188   9.496  16.168 -0.0072  0.2620  0.0146
13648W        W27062   4.018   9.061   0.402 -0.1757  0.0698 -0.0240
13649W        W27063  10.224  12.723  13.477  0.1088  0.3725 -0.0912
13650W        W27064  16.721   4.352   4.879  0.0839  0.1584 -0.1762
13651W        W27065   6.949   3.373   2.888  0.1263  0.1103  0.0347
13652W        W27066  18.248  12.910   4.869 -0.2478 -0.2970  0.1480
13653W        W27067   4.088   7.033   4.222  0.1339  0.2375  0.2429
13654W        W27068   9.760   6.734  16.463  0.1656  0.1946  0.0394
13655W        W27069  13.361   0.073  15.813 -0.2788 -0.0575 -0.0835
13656W        W27070  16.608   1.782   4.281 -0.2838  0.2006  0.1135
13657W        W27071   6.051   4.505  13.577  0.0036 -0.0168  0.2571
13658W        W27072  17.503   6.799  11.245  0.3340  0.0066 -0.0680
13659W        W27073  17.120  16.168   5.196 -0.1239 -0.0371  0.2866
13660W        W27074  16.907   6.050  13.552  0.1629  0.2210  0.0953
13661W        W27075   4.894  10.993   4.976  0.1477  0.2504  0.0996
13662W        W27076   6.390  12.163   1.162 -0.1347 -0.0146  0.0434
13663W        W27077   0.250  15.900   4.151 -0.1041 -0.1053 -0.1900
13664W        W27078   2.135   3.338  14.821 -0.2125 -0.0974 -0.0017
13665W        W27079   4.457  10.210   2.783 -0.1947 -0.0263 -0.2955
13666W        W27080  16.218   7.808  12.594 -0.0750 -0.0544 -0.0203
13667W        W27081  15.616  15.891  16.116 -0.2765 -0.2301  0.0620
13668W        W27082  16.772  15.551  12.683  0.2037 -0.1946 -0.2025
13669W        W27083   3.422  16.080   1.768 -0.2667  0.2081  0.1942
13670W        W27084  16.195   6.381   5.798 -0.0347 -0.0371 -0.2976
13671W        W27085   3.293   1.281  12.508 -0.1064 -0.0296 -0.0688
13672W        W27086   9.550  11.460  14.302  0.2644  0.2781 -0.0282
13673W        W27087   8.818   6.650   0.018  0.0504 -0.1355 -0.2302
13674W        W27088  16.814  12.553   2.927 -0.0120 -0.1901 -0.1798
13675W        W27089   4.441   1.175  13.259 -0.0303 -0.1476 -0.1808
13676W        W27090  10.884   3.791   3.948 -0.0989  0.0449  0.0454
13677W        W27091  12.492  14.341  14.017 -0.2291  0.1005 -0.3196
13678W        W27092  14.898  13.591   2.573  0.1162  0.0088 -0.4308
13679W        W27093   6.161   0.868   1.187  0.1529 -0.0084  0.1771
13680W        W27094  11.311   2.644   9.795 -0.0825 -0.1787  0.1711
13681W        W27095   3.811  17.625  14.053  0.1008 -0.0829 -0.0055
13682W        W27096  10.941  17.612  16.311  0.1245 -0.1499 -0.0291
13683W        W27097  16.740  16.889   2.613  0.4888 -0.0686  0.0790
13684W        W27098   2.441   1.692  10.836 -0.4265 -0.1502 -0.1187
13685W        W27099  12.090   6.879   0.178 -0.0897  0.2865  0.0612
13686W        W27100   8.075   6.918   4.855 -0.0903 -0.1379 -0.1883
13687W        W27101   4.377   1.454   3.616 -0.0838 -0.3372  0.1194
13688W        W27102   6.673  15.639  11.074 -0.2074  0.2492 -0.0162
13689W        W27103  14.574   3.067  15.104 -0.3220 -0.0747  0.1344
13690W        W27104  10.448  14.813  10.496 -0.0150  0.1497 -0.0325
13691W        W27105   3.635  18.024   0.135  0.2829  0.2109  0.0985
13692W        W27106  10.418  16.178   4.494  0.2043  0.3375 -0.1534
13693W        W27107  14.002   0.066   2.179  0.0207 -0.3029 -0.1442
13694W        W27108  10.094  13.718  13.480  0.0480 -0.1064 -0.2340
13695W        W27109   1.293   2.699  13.187  0.0182 -0.2919  0.1464
13696W        W27110   3.427   3.300   3.621 -0.1441 -0.2176  0.0958
13697W        W27111  18.053   1.884   4.658  0.0399  0.0547 -0.1369
13698W        W27112   7.988   8.728   3.773  0.2226  0.2202  0.0186
13699W        W27113   8.946   5.733  14.560 -0.2795 -0.1027 -0.1705
13700W        W27114   0.620  11.295  12.271 -0.0547  0.1615 -0.0120
13701W        W27115  11.102   8.057   2.661  0.3049  0.4041 -0.0674
13702W        W27116  16.312  13.412   3.287  0.0645  0.0568 -0.0467
13703W        W27117  10.887  12.809   2.256 -0.0692  0.0382 -0.1762
13704W        W27118  10.189  11.379  11.004 -0.1386  0.1789 -0.0174
13705W        W27119   5.738  16.413   0.724  0.0476  0.2918 -0.2229
13706W        W27120   6.516  17.878  11.270  0.0324 -0.3381  0.2189
13707W        W27121  11.045   1.295  13.791 -0.0018  0.0530  0.0926
13708W        W27122  13.368   7.061   1.195 -0.0939 -0.0552  0.0688
13709W        W27123  10.973  13.474   5.761  0.0719 -0.1577  0.1886
13710W        W27124   3.097   3.102  14.597 -0.0030  0.0196  0.1495
13711W        W27125   6.608  15.467   2.637 -0.2428 -0.0294 -0.0904
13712W        W27126   2.460   5.852   6.638  0.1071 -0.0877 -0.2664
13713W        W27127   5.460  16.034   1.355  0.2858  0.0915  0.0848
13714W        W27128   4.070  17.896   1.286  0.1148 -0.1323  0.1442
13715W        W27129   2.915   5.782  14.600  0.1559  0.0671  0.0998
13716W        W27130   9.120  15.231  10.106  0.2316 -0.0452 -0.0659
13717W        W27131  14.289   8.199  14.408 -0.1097 -0.0818  0.1768
13718W        W27132   2.915  16.951   4.101  0.3200 -0.0273  0.4361
13719W        W27133   5.921   1.849  10.343 -0.1663 -0.0596 -0.1147
13720W        W27134   6.689  11.077   1.471 -0.1168 -0.0544  0.1621
13721W        W27135   8.739   0.329  15.751 -0.0860 -0.0624  0.0481
13722W        W27136  10.518   6.843   1.067  0.1298 -0.1049  0.0650
13723W        W27137  15.815   6.447  11.932 -0.2454 -0.1199  0.1059
13724W        W27138   6.697  10.613  16.214 -0.2786 -0.0013  0.0103
13725W        W27139  17.808  10.163  11.893  0.0420  0.1391 -0.1039
13726W        W27140  14.697  16.443   2.997 -0.2072  0.2705  0.2317
13727W        W27141  12.750  11.042  10.507 -0.2659  0.0268 -0.2508
13728W        W27142  16.984   1.875  13.670  0.2860  0.0960 -0.1529
13729W        W27143   0.734  14.650   2.251  0.2667  0.3853 -0.3776
13730W        W27144  13.924   4.341   3.973  0.4007 -0.0073  0.0770
13731W        W27145  12.262  12.255  15.327 -0.0219 -0.1088 -0.0072
13732W        W27146   6.787   1.113   3.869 -0.2834 -0.1422  0.1928
13733W        W27147  17.559   5.735  13.417 -0.0557 -0.0055  0.4108
13734W        W27148  17.689   9.864   5.529  0.0382 -0.0264  0.1743
13735W        W27149  15.427  16.938   3.015  0.0391 -0.0823  0.0567
13736W        W27150   8.232  16.534  15.365  0.0305  0.0320 -0.2693
13737W        W27151   1.380  15.943  15.850  0.0718  0.1044 -0.1358
13738W        W27152   1.037   0.469  16.305 -0.3420  0.2641 -0.1131
13739W        W27153  14.719   7.593   2.002 -0.2100 -0.2228  0.0189
13740W        W27154   5.021   0.843   1.559  0.0156  0.0343 -0.2147
13741W        W27155   8.775   6.347  10.641  0.2374 -0.0643  0.0824
13742W        W27156  14.765  14.728   5.429 -0.2639 -0.2099  0.0121
13743W        W27157   7.782   6.367  16.304  0.1520  0.3360 -0.3287
13744W        W27158   9.991   9.893   0.690  0.1697 -0.2596 -0.0005
13745W        W27159   9.811   1.870   3.531 -0.0582 -0.1505 -0.1549
13746W        W27160   8.848   0.423   3.221  0.3277 -0.0444  0.0317
13747W        W27161  18.168  16.318   1.889  0.0427  0.0296 -0.3739
13748W        W27162   3.605  15.647   3.478  0.1527 -0.1389  0.0209
13749W        W27163   2.782   5.575   4.353 -0.1436 -0.1104 -0.1273
13750W        W27164  11.076  13.642   3.078  0.2392  0.1664 -0.0410
13751W        W27165   0.896  13.048  11.692  0.1174 -0.1127 -0.0855
13752W        W27166   5.975   3.527   4.378 -0.1560 -0.0634 -0.1831
13753W        W27167  16.799  14.546  13.637  0.2623 -0.0436  0.0761
13754W        W27168  17.892   5.613   5.768 -0.4754 -0.0712 -0.1277
13755W        W27169   1.586  16.222   0.560  0.0820 -0.2124 -0.1024
13756W        W27170  17.291  17.287   2.768 -0.2715 -0.1340 -0.1794
13757W        W27171  10.047  11.645  14.459 -0.0272  0.2863  0.1818
13758W        W27172  15.097  16.132  12.301  0.0789 -0.0489  0.1447
13759W        W27173   4.481   9.531  14.346  0.0472 -0.1724  0.4120
13760W        W27174   8.644   5.006  10.296 -0.1713 -0.0564 -0.3171
13761W        W27175  16.440   9.543  10.250 -0.0257 -0.2440 -0.2560
13762W        W27176   3.379  14.190   3.840 -0.1395  0.1921 -0.1998
13763W        W27177  11.581  13.916  12.886 -0.2228  0.1946 -0.0533
13764W        W27178   1.061  14.563  14.955  0.0918 -0.3651  0.0148
13765W        W27179   7.256  14.745   0.777  0.3033  0.3657 -0.1326
13766W        W27180  16.961  15.798   4.265 -0.1455 -0.0674  0.1468
13767W        W27181   1.695  15.799  14.246 -0.3030 -0.4433  0.0280
13768W        W27182   4.851   6.724   0.558  0.1991  0.2290 -0.1909
13769W        W27183   9.243   8.249   0.453  0.3397 -0.1380  0.0828
13770W        W27184   1.602  16.903  12.909 -0.0984  0.3194  0.2251
13771W        W27185   3.226  18.228  13.657 -0.0997 -0.1501  0.3392
13772W        W27186   3.541   0.117  13.268 -0.1256 -0.1677  0.2814
13773W        W27187   7.711   1.308  16.224  0.1557  0.0781  0.1571
13774W        W27188   1.536  17.418   2.287  0.4196  0.0571  0.0724
13775W        W27189  13.100  16.341   5.625  0.0630 -0.2155 -0.1758
13776W        W27190   7.435  13.506   5.789  0.2271  0.1855 -0.1180
13777W        W27191  10.155  17.769   1.093  0.3574  0.0088  0.1692
13778W        W27192   8.578  10.366  13.020  0.0994 -0.0876 -0.1999
13779W        W27193  16.452   4.361  12.800 -0.2347 -0.0852  0.5309
13780W        W27194  11.844  10.412   0.096  0.0424 -0.0471 -0.0540
13781W        W27195  14.848  16.177  13.705 -0.0238 -0.0100 -0.1235
13782W        W27196  18.141   5.802   3.930  0.0242 -0.1757 -0.1491
13783W        W27197   8.471  12.421  13.394  0.2741  0.1463 -0.0915
13784W        W27198   3.039   2.903   0.908 -0.3789 -0.3423 -0.2057
13785W        W27199  11.093  15.763   1.387  0.3505 -0.3503  0.1883
13786W        W27200  12.895  14.978  10.532  0.0138 -0.2443  0.1660
13787W        W27201   3.351  14.384  15.833 -0.1010  0.0074  0.0004
13788W        W27202  13.674  10.561  10.662  0.1135 -0.0806  0.2720
13789W        W27203   9.496  10.301  13.883  0.0836  0.3082  0.1378
13790W        W27204   6.098   2.912   3.622 -0.0142  0.3696 -0.0095
13791W        W27205   7.579  12.544  14.800 -0.2769 -0.0250  0.0855
13792W        W27206   2.811  17.324  15.190 -0.2758 -0.1091 -0.2161
13793W        W27207   9.902   9.657  12.598  0.1429  0.0041  0.1768
13794W        W27208  10.438  15.169  12.679  0.0785  0.0052  0.1283
13795W        W27209  12.332  16.571  12.612  0.0761  0.1498  0.1601
13796W        W27210  10.637  17.639  11.300  0.1337  0.0619  0.1350
13797W        W27211  16.076   1.546   0.815 -0.0726 -0.0792 -0.1041
13798W        W27212  16.648  16.839  13.907  0.0336  0.0920  0.1605
13799W        W27213   4.853  12.831  14.547  0.1693 -0.1075  0.1528
13800W        W27214   3.489   1.728  14.070 -0.0436  0.1558 -0.0819
13801W        W27215  11.954  11.826   3.248  0.1706  0.0047 -0.1886
13802W        W27216   5.911   7.679   3.551 -0.0246 -0.0090 -0.1968
13803W        W27217   7.540  12.138   1.396 -0.0661 -0.1416  0.2161
13804W        W27218  12.195   0.552   1.470  0.1721  0.0052  0.4205
13805W        W27219   0.800   1.839  13.976 -0.2067  0.2095 -0.1228
13806W        W27220   1.580  10.750  12.896  0.4324 -0.3171  0.0775
13807W        W27221   2.115  12.044   0.521 -0.2017  0.1578 -0.0810
13808W        W27222  11.521   4.280  12.496  0.1720 -0.1558 -0.0204
13809W        W27223   3.763   4.790   2.394 -0.1356  0.1874  0.0039
13810W        W27224   4.104   3.397   5.489 -0.0296 -0.1148  0.2166
13811W        W27225   5.415  14.429   6.338 -0.2441 -0.2126  0.0676
13812W        W27226  11.178  17.093  12.104 -0.1985 -0.0838  0.0464
13813W        W27227   1.961   0.249   0.700 -0.0293  0.4328 -0.2095
13814W        W27228   3.494  14.348  11.957 -0.0572 -0.2205  0.3350
13815W        W27229   8.897   5.552  11.141  0.0493  0.1294 -0.1618
13816W        W27230   3.542  14.661   2.618 -0.0269  0.0154 -0.1135
13817W        W27231  11.238   9.680  14.683 -0.5166  0.1316  0.0065
13818W        W27232   9.596   2.847   0.870 -0.2047  0.1741 -0.0340
13819W        W27233  17.681   9.755   1.543  0.0317 -0.1763 -0.0798
13820W        W27234  11.481   4.675  15.967 -0.0396  0.0631 -0.1056
13821W        W27235   4.834   6.795  12.499 -0.1424 -0.1526 -0.2437
13822W        W27236   0.701   9.305  13.417 -0.0839  0.0441  0.0471
13823W        W27237  10.423  15.399   1.499  0.1609 -0.0058 -0.1060
13824W        W27238   1.559   8.094   5.111  0.1347 -0.0939  0.1342
13825W        W27239  15.265   8.072  13.881  0.0232 -0.1868 -0.0034
13826W        W27240  10.279   8.353  14.737 -0.1047 -0.0199  0.0870
13827W        W27241  15.032  15.476  15.192  0.3001  0.1395  0.0392
13828W        W27242  14.664  15.029  11.087 -0.0242  0.1762 -0.3265
13829W        W27243   8.639   7.615  12.871 -0.0404  0.0751 -0.1766
13830W        W27244   1.152  11.320  15.685  0.3818 -0.2705  0.1516
13831W        W27245   1.602   8.243  15.279 -0.1514 -0.0440 -0.3020
13832W        W27246  13.682  11.087  15.659  0.1292  0.5035  0.1789
13833W        W27247   3.165  16.534  13.155 -0.2035  0.0634 -0.2563
13834W        W27248   0.468  11.826   3.480  0.0246  0.4300  0.2904
13835W        W27249   1.294  16.893   3.646 -0.0857 -0.1759 -0.1602
13836W        W27250  11.706  17.378  13.544 -0.3076 -0.0734 -0.2562
13837W        W27251   2.131   3.297  12.022  0.0297 -0.0845  0.3181
13838W        W27252   5.621  17.778   4.722  0.0952 -0.0444  0.1541
13839W        W27253   5.516   6.706   5.856  0.0055 -0.0680 -0.1511
13840W        W27254   4.113  12.232  13.805  0.0925  0.0417  0.0940
13841W        W27255  10.709  13.217   3.980  0.0974 -0.0750 -0.4008
13842W        W27256  12.750  11.638   4.931  0.1373  0.0491 -0.3526
13843W        W27257   0.689  13.873   4.010  0.1011  0.0403 -0.2226
13844W        W27258  13.289  16.742  14.154 -0.0072  0.0777 -0.0279
13845W        W27259   6.580   1.938   4.417 -0.1746  0.1163  0.1824
13846W        W27260  16.129  10.389   6.312 -0.2215  0.0945  0.1782
13847W        W27261   5.149   2.702  14.072 -0.0044  0.1863  0.0569
13848W        W27262  14.197  16.899  14.892 -0.0217  0.0052 -0.2149
13849W        W27263  13.276  15.735  11.483  0.1135  0.0942 -0.1422
13850W        W27264   9.511  16.163   2.230  0.3925 -0.2912 -0.3382
13851W        W27265  16.363  14.508  15.725  0.0791  0.1929  0.0835
13852W        W27266  16.528   6.009   0.988 -0.0356  0.0079 -0.0363
13853W        W27267   5.057   3.987  16.125  0.3523 -0.1645 -0.2687
13854W        W27268  12.334  10.130  14.125 -0.0496  0.1435 -0.0279
13855W        W27269  11.930   5.125   3.829  0.2359  0.2052 -0.0058
13856W        W27270   2.740   9.826  15.981 -0.0020 -0.0372  0.3212
13857W        W27271   7.190  15.341   0.406  0.2583  0.4694 -0.0706
13858W        W27272   3.496   5.011  10.085  0.2785  0.0292  0.2577
13859W        W27273   6.944  10.022  12.134 -0.1428 -0.1025 -0.1757
13860W        W27274   9.737   0.515   5.321 -0.0987  0.1850  0.2195
13861W        W27275   8.972  10.776   2.410 -0.1833  0.4951 -0.0725
13862W        W27276   0.134   2.594  10.783 -0.1457  0.4094 -0.0121
13863W        W27277  16.518  14.778   3.499 -0.1141 -0.0102 -0.1730
13864W        W27278  11.228  14.595   0.605 -0.0492 -0.2090 -0.0725
13865W        W27279  15.302  10.011   6.492 -0.0279  0.1419  0.4384
13866W        W27280  17.998  16.064  10.299  0.1619  0.0582  0.1744
13867W        W27281   4.553   5.103   5.721 -0.1980 -0.0395  0.0188
13868W        W27282  16.250   2.648  10.584  0.1781  0.0451  0.0457
13869W        W27283   9.722   9.019  11.530  0.1713  0.2753 -0.1158
13870W        W27284  11.020  12.333   3.203 -0.2668  0.0840  0.3330
13871W        W27285   8.133  17.364   3.675 -0.2028  0.1201  0.0789
13872W        W27286  12.325  14.741  12.148  0.1543  0.0771  0.1898
13873W        W27287  10.260  13.106  14.079 -0.3310  0.1706 -0.0665
13874W        W27288  15.366   4.833  11.018 -0.2153  0.1771 -0.0502
13875W        W27289   9.367  12.669  14.997  0.1804 -0.3636  0.0863
13876W        W27290  10.814   8.765  13.053 -0.0597  0.1418 -0.3190
13877W        W27291  15.989   5.546   4.611  0.1148 -0.1488 -0.1609
13878W        W27292  16.773   5.830  15.750  0.2023  0.0632  0.0032
13879W        W27293   3.358  17.144   2.147 -0.1470  0.0470 -0.3563
13880W        W27294   1.422  12.084   5.496 -0.5350 -0.2389 -0.1192
13881W        W27295   9.450   7.656   0.225  0.2008 -0.0242 -0.0018
13882W        W27296  12.436   5.166  15.070 -0.0879  0.0877  0.0050
13883W        W27297  17.412   3.214   1.069 -0.4144  0.0740 -0.2721
13884W        W27298   4.929   9.096   0.401 -0.0134 -0.1238  0.0343
13885W        W27299  12.371   7.133  15.077  0.3542  0.0322  0.0172
13886W        W27300  14.486   1.053  10.934 -0.2302  0.3028 -0.2529
13887W        W27301  11.216   2.988  14.965  0.1471  0.0954 -0.2883
13888W        W27302   4.448   4.866   4.964  0.0016 -0.0483  0.1243
13889W        W27303   9.956   5.472  14.919 -0.0675  0.2390 -0.0387
13890W        W27304   1.892   9.174  15.682 -0.1572 -0.3893 -0.0495
13891W        W27305   4.856  16.797   5.665 -0.0944  0.1757 -0.0101
13892W        W27306  14.449   8.294   5.872  0.1981 -0.3485  0.1342
13893W        W27307   1.648   8.405   4.666 -0.2421  0.3257 -0.0082
13894W        W27308   7.350   5.002  15.043 -0.0912 -0.0732  0.1691
13895W        W27309  14.141   8.792   3.577 -0.1613  0.1083 -0.4095
13896W        W27310   2.688   2.634   1.243 -0.2796 -0.1570  0.1645
13897W        W27311   0.256   3.469  14.423  0.2045  0.5040  0.1667
13898W        W27312  17.743   2.973  14.058 -0.0148 -0.0549  0.3548
13899W        W27313  12.920  13.530   0.997  0.1429 -0.1544 -0.3268
13900W        W27314  16.117   8.867   0.631 -0.3075 -0.1476 -0.2013
13901W        W27315  13.832   1.800  15.678  0.0253  0.0216  0.2255
13902W        W27316   9.454   9.009   1.637 -0.4368  0.0332 -0.0187
13903W        W27317  12.351   8.177  14.425 -0.2773  0.1765 -0.1471
13904W        W27318   0.243  18.209   3.105  0.4185  0.2028  0.0289
13905W        W27319  13.115  16.280  11.783  0.4258  0.0951 -0.4455
13906W        W27320  18.242  11.392  15.378 -0.5932  0.1276  0.2611
13907W        W27321  11.943   1.537   6.188 -0.0693 -0.1467 -0.2078
13908W        W27322   4.514   3.867   5.496 -0.1204 -0.0369 -0.1051
13909W        W27323  14.137  17.524  13.003  0.0451 -0.1083  0.0610
13910W        W27324   3.666   8.662  14.583 -0.2429 -0.2678 -0.1540
13911W        W27325  16.845  13.777   4.581 -0.1016  0.0652  0.1086
13912W        W27326  15.318   7.131   3.202  0.0437 -0.0060  0.0375
13913W        W27327   5.392   2.986   1.212  0.1193 -0.3099 -0.1335
13914W        W27328   0.635   1.538  10.477 -0.0098  0.0653 -0.1812
13915W        W27329   0.374   6.788  11.082  0.2708 -0.2280 -0.0389
13916W        W27330   0.211   2.341  16.091  0.2239 -0.1668 -0.1105
13917W        W27331   7.791  18.191  13.608  0.0532  0.2516  0.1476
13918W        W27332  16.717  10.471   5.049  0.0346  0.2612  0.2454
13919W        W27333  11.196   6.771   5.015 -0.1004 -0.1161  0.0349
13920W        W27334  15.968  13.876   5.131 -0.3224  0.2150 -0.2511
13921W        W27335   2.596  17.142   2.128 -0.3315  0.0058 -0.2016
13922W        W27336  16.464  13.635  14.170  0.1716 -0.0273 -0.1658
13923W        W27337   5.326  13.447   0.156  0.1937 -0.1052 -0.2016
13924W        W27338  18.221   6.606  14.883  0.2920 -0.1546  0.0241
13925W        W27339   5.910  13.296  11.354 -0.2474  0.0493  0.0053
13926W        W27340   4.057  16.557   2.262  0.2512 -0.0846 -0.1301
13927W        W27341   3.142   9.886   6.004  0.0287 -0.1801  0.1163
13928W        W27342   9.674   8.964  12.086  0.1138 -0.2202  0.1923
13929W        W27343   8.934   2.580  16.352 -0.0143  0.1493  0.0232
13930W        W27344  12.074   7.304  11.762 -0.0246 -0.0273 -0.2527
13931W        W27345   8.714  17.760   2.141 -0.1454 -0.0408  0.0896
13932W        W27346  13.771   1.681   3.053 -0.0804  0.0745  0.0208
13933W        W27347   3.536  15.747  13.692  0.0242  0.0490  0.2558
13934W        W27348  13.239  13.634   3.621 -0.1543 -0.4514 -0.1501
13935W        W27349   4.806  18.151   4.883 -0.0762  0.1751 -0.1460
13936W        W27350   2.477  12.276  15.895  0.0042 -0.1400 -0.0592
13937W        W27351   0.573   6.487   2.101  0.1785 -0.2611  0.2049
13938W        W27352   3.082   9.834   0.268 -0.0696 -0.0253 -0.1036
13939W        W27353  10.778   2.058   3.493 -0.4538 -0.1629  0.0330
13940W        W27354   8.307  12.229   2.300 -0.1235  0.0107 -0.2163
13941W        W27355   0.209  14.567   1.383 -0.0296 -0.1345  0.3778
13942W        W27356   3.294   3.988  15.403 -0.1658  0.0434 -0.3527
13943W        W27357   2.802  13.489   1.655  0.1937  0.0941  0.1057
13944W        W27358  13.563  18.071  11.451 -0.0337  0.0753 -0.1455
13945W        W27359  15.139  11.659   0.766 -0.1408 -0.1191  0.0403
13946W        W27360  11.159  14.972   2.597 -0.2464  0.0635  0.0617
13947W        W27361   3.939  18.146  11.244 -0.0498  0.0294 -0.0753
13948W        W27362  17.124   1.122   6.077  0.4242  0.4238 -0.1434
13949W        W27363   9.698  16.764   2.122  0.2286 -0.2483  0.1351
13950W        W27364   3.926   6.580   4.532  0.1849  0.0074 -0.3247
13951W        W27365  11.664   5.687  15.025 -0.0837  0.1509 -0.2220
13952W        W27366  15.559   7.341  16.115  0.2614 -0.1341  0.3310
13953W        W27367  13.402  17.492  15.360  0.1626 -0.3182 -0.0937
13954W        W27368   1.423  17.545   3.177 -0.3386 -0.0196 -0.3876
13955W        W27369  10.521   0.972  13.227  0.2794 -0.0020 -0.1936
13956W        W27370   8.286  10.546   6.848 -0.4963  0.1322 -0.1130
13957W        W27371   1.528   2.004   4.975  0.0289  0.3062  0.4778
13958W        W27372   6.622  17.215  10.216 -0.3196  0.1785  0.1283
13959W        W27373   7.541   3.169  14.319  0.0745  0.1083  0.1567
13960W        W27374  11.551   7.472   4.688 -0.1123 -0.4376  0.1781
13961W        W27375   8.477  10.810   0.748 -0.2301  0.0364  0.0314
13962W        W27376  12.328  18.094  14.492  0.0178 -0.0722 -0.1221
13963W        W27377   9.207   8.944  16.343 -0.0043 -0.1120 -0.1707
13964W        W27378  14.816  11.122  12.824 -0.1103  0.1469  0.4916
13965W        W27379  18.084   0.679   5.268  0.2136  0.1337  0.1109
13966W        W27380  15.155   1.389  13.041  0.0477  0.1492  0.0620
13967W        W27381   9.988  13.798   5.486  0.0499 -0.0119  0.1195
13968W        W27382   0.215   9.032  11.361 -0.2562 -0.2626 -0.1843
13969W        W27383  12.042  14.742   2.883  0.0833  0.0154 -0.1013
13970W        W27384  10.545   4.726  15.693 -0.2794 -0.2888  0.1875
13971W        W27385  15.419   0.922  15.094  0.1872  0.1484 -0.2128
13972W        W27386  15.416   1.232  13.556  0.0805 -0.3133  0.1637
13973W        W27387  11.808   8.162   2.317 -0.0855 -0.0833 -0.1851
13974W        W27388   2.337   0.712  12.847  0.1404  0.1242 -0.0481
13975W        W27389  13.213   2.697   2.466  0.1009  0.1704 -0.0137
13976W        W27390  11.461   0.990  13.531 -0.0903  0.0729 -0.0807
13977W        W27391   9.215  10.469   3.196 -0.2900  0.0091  0.3618
13978W        W27392   4.669  14.903  15.332  0.2748  0.1135 -0.0664
13979W        W27393   7.824  12.077   2.360  0.1761  0.0428 -0.0968
13980W        W27394   3.561   1.413   5.212 -0.2663 -0.0735  0.2705
13981W        W27395   5.323  14.033  14.379  0.1793  0.0527  0.2575
13982W        W27396  18.005   5.990  13.719 -0.1621  0.2502 -0.2852
13983W        W27397  15.202   9.999   3.902  0.0327  0.0726 -0.2269
13984W        W27398  15.791   9.106  15.530 -0.2620 -0.3131 -0.0215
13985W        W27399  11.380   0.418  10.563 -0.0140  0.1828  0.1671
13986W        W27400   9.087   9.054   2.423 -0.1850 -0.1013 -0.3860
13987W        W27401  12.965   3.863   4.029  0.1428  0.0489  0.3710
13988W        W27402   9.484  13.690  11.634 -0.0916 -0.1320  0.0295
13989W        W27403  11.811  12.021   1.371 -0.2290 -0.1838  0.0981
13990W        W27404   7.818  17.423  13.863  0.0020 -0.0866  0.4369
13991W        W27405   9.723  15.275   5.410  0.0202 -0.0755 -0.0765
13992W        W27406  18.184  13.722  14.302 -0.0465 -0.0684 -0.1681
13993W        W27407  12.888   5.794  12.095  0.0179 -0.0195 -0.2037
13994W        W27408   9.540   1.890   5.472 -0.1754 -0.2254 -0.1939
13995W        W27409   6.306   4.822  11.617 -0.0949 -0.1222  0.0777
13996W        W27410   9.678   2.407  16.428  0.1589 -0.0960 -0.2433
13997W        W27411  11.248  14.006  10.237  0.0255 -0.1733  0.1339
13998W        W27412  16.868   9.608  14.160  0.1649  0.0419  0.1498
13999W        W27413   5.232   0.095   2.388  0.3736 -0.1105  0.2303
14000W        W27414  10.969   5.490   0.972  0.1808 -0.1081  0.0977
14001W        W27415   6.369   0.436   0.897  0.1097 -0.0342  0.2885
14002W        W27416   3.677  15.286  13.354 -0.1031 -0.0346 -0.3644
14003W        W27417   0.907  11.691   3.105  0.0806 -0.2788 -0.1506
14004W        W27418  13.736   1.467  13.992 -0.0418 -0.0708  0.0138
14005W        W27419  17.902   9.608   0.165  0.1165  0.1443 -0.2694
14006W        W27420   1.007   1.560   4.170 -0.0806 -0.2732  0.0562
14007W        W27421  17.038   0.462   3.852  0.0427 -0.1519  0.2504
14008W        W27422   4.233   5.885  14.359 -0.0905 -0.1319 -0.2097
14009W        W27423  10.900  12.030  11.568 -0.1163 -0.0922  0.0074
14010W        W27424   3.147  14.887   6.084 -0.0185 -0.2520  0.4298
14011W        W27425  10.299  17.083   1.385 -0.0268  0.0165 -0.0902
14012W        W27426  10.102  14.317   0.157  0.3177 -0.0238  0.0302
14013W        W27427   8.876  13.056  13.750  0.0062  0.0977  0.2614
14014W        W27428   4.764  15.605  10.900  0.1293 -0.1185 -0.4675
14015W        W27429   7.713  17.155  15.031  0.1361  0.0309  0.0097
14016W        W27430  10.655   2.599   2.587 -0.1278 -0.0229 -0.0089
14017W        W27431  17.200   2.167   4.945 -0.0484 -0.2730 -0.0772
14018W        W27432  10.225  17.407  10.378 -0.2247 -0.1279  0.2580
14019W        W27433  10.014   3.734  13.841 -0.2487  0.0123  0.0187
14020W        W27434  16.585   8.381   0.851  0.0357 -0.2798  0.2886
14021W        W27435  17.640   6.776  12.357  0.1293 -0.0338 -0.0407
14022W        W27436  15.155   2.767   3.686 -0.2097 -0.2838 -0.1252
14023W        W27437  11.779   2.270  13.957 -0.2371  0.3417  0.2748
14024W        W27438  16.842  18.209  15.362  0.0838  0.1759  0.1252
14025W        W27439   3.259   8.664  10.419  0.0802 -0.1505  0.0903
14026W        W27440   0.409  13.984   1.273 -0.0786  0.0501 -0.1149
14027W        W27441   0.201   9.453  13.400  0.1021 -0.0561 -0.1241
14028W        W27442   9.217  16.733  14.563 -0.0360  0.2095 -0.0070
14029W        W27443   8.246  10.495  13.386  0.1529  0.0883 -0.0028
14030W        W27444   4.925  10.313  14.794  0.2769  0.3785  0.0078
14031W        W27445   9.980  15.638   1.782  0.0131 -0.0263 -0.1295
14032W        W27446   0.366   0.772  13.646 -0.0482  0.0573  0.2587
14033W        W27447   4.022   5.247  16.472 -0.1012 -0.1914  0.0039
14034W        W27448   8.220  17.176   1.680 -0.0334 -0.0892 -0.2365
14035W        W27449   6.395   5.487  10.642  0.1203 -0.1876 -0.0413
14036W        W27450  10.838  14.137   5.577  0.1569  0.1059  0.1517
14037W        W27451  12.380   9.673  13.410 -0.0787  0.2226  0.1834
14038W        W27452  16.479   1.534   5.628  0.0066 -0.0455 -0.0153
14039W        W27453   6.733   5.315  12.487 -0.0002 -0.2575  0.1677
14040W        W27454   5.209   5.993  12.154 -0.0410 -0.0787  0.2793
14041W        W27455  16.190   4.065   3.369 -0.0364  0.0740 -0.2374
14042W        W27456   9.841  14.264   0.623 -0.0507  0.2022 -0.0854
14043W        W27457  13.610  14.451  10.786 -0.1916  0.0194  0.0717
14044W        W27458  17.920  13.095   3.245 -0.0159  0.2521 -0.0640
14045W        W27459   2.000  16.070   4.349 -0.1092  0.2394 -0.0001
14046W        W27460   3.375  11.585  14.845  0.1468 -0.0966 -0.1783
14047W        W27461  14.151  14.754   0.037 -0.2509  0.0172  0.2951
14048W        W27462   4.958  16.627   6.169  0.0768  0.0778  0.3953
14049W        W27463  17.587   9.974  15.120 -0.3386  0.1041 -0.1769
14050W        W27464   9.617  12.988  14.213 -0.1064 -0.0331 -0.0507
14051W        W27465  17.868  15.590  11.832  0.1003  0.0758  0.0304
14052W        W27466   9.139   8.701   6.043  0.1091  0.1370  0.0015
14053W        W27467  17.444   2.629   4.820  0.0835 -0.1084  0.2938
14054W        W27468   2.759  18.085   4.666 -0.0071  0.1260 -0.0277
14055W        W27469  11.718   3.217  14.409  0.0127  0.1652  0.2299
14056W        W27470   1.833  13.441  14.013  0.2253  0.0374  0.2350
14057W        W27471  12.846  18.131  11.090 -0.0254  0.2306 -0.0090
14058W        W27472  13.136   5.688  15.516  0.4876 -0.0903 -0.1085
14059W        W27473  10.859   7.763   2.288  0.0801 -0.1899 -0.2200
14060W        W27474   3.466  17.072   5.085 -0.0942 -0.0233 -0.0178
14061W        W27475   7.986  13.585   4.597 -0.0068 -0.0396 -0.1590
14062W        W27476   3.028   9.153   5.487 -0.2914 -0.2718 -0.0632
14063W        W27477   0.721  14.470   3.090 -0.0806  0.1733  0.2836
14064W        W27478  13.545  16.493   3.995 -0.0580 -0.2070  0.3416
14065W        W27479   1.035  14.246   2.550  0.5424  0.3134 -0.0738
14066W        W27480  15.756   6.937   5.833 -0.0888 -0.1342  0.1829
14067W        W27481   2.891  13.785   3.757 -0.0007 -0.0601 -0.0493
14068W        W27482   9.312   6.677   3.899  0.0251  0.0062 -0.0757
14069W        W27483   0.826  17.375   5.715  0.0299  0.0513 -0.0172
14070W        W27484  13.450   6.105  10.710 -0.1816 -0.2266  0.0875
14071W        W27485  16.328   5.911   3.395  0.1672 -0.4068  0.1678
14072W        W27486   3.853  12.660   3.932 -0.0027 -0.2047 -0.0424
14073W        W27487  12.110  13.706  14.246  0.1350  0.3003 -0.2013
14074W        W27488  15.677   3.205  13.238 -0.2005 -0.1854 -0.6106
14075W        W27489   6.185   5.451   4.794  0.0588  0.4224  0.1127
14076W        W27490  10.081   2.998  16.266 -0.0814  0.0179  0.1480
14077W        W27491   2.599  14.685  12.787  0.1042 -0.1266  0.1916
14078W        W27492   1.543   3.291  15.721  0.0164  0.2967 -0.0151
14079W        W27493   7.729   5.895   5.163  0.2405  0.3530 -0.3328
14080W        W27494  17.843  10.597   0.749  0.2690  0.0129  0.0966
14081W        W27495   6.089   7.150  11.412  0.1881  0.1154  0.0219
14082W        W27496   3.302   4.572   3.815  0.1291  0.4769  0.3723
14083W        W27497   2.181  16.209   2.462 -0.2709 -0.1196 -0.2424
14084W        W27498  16.262  14.706   6.077  0.3143 -0.1336 -0.0879
14085W        W27499   0.996   1.257   1.570  0.0683 -0.1535 -0.2513
14086W        W27500   1.852   6.911   3.636 -0.0596  0.2433  0.1603
14087W        W27501   9.771  15.489   2.677  0.0871 -0.1870  0.0024
14088W        W27502  11.323  15.096  13.080 -0.1346 -0.1937 -0.1312
14089W        W27503  14.631   5.725  12.102  0.2334 -0.0652  0.1643
14090W        W27504   2.629   6.986   5.264  0.1232  0.2807  0.2683
14091W        W27505   0.846  13.898  15.357  0.2044  0.0402  0.2517
14092W        W27506   7.000   1.516  15.207  0.1985 -0.0333 -0.2328
14093W        W27507   4.157  11.611   1.298 -0.0127  0.0339 -0.0775
14094W        W27508  14.772  14.820  12.712  0.0207  0.1226  0.2260
14095W        W27509   7.694   1.016  12.363  0.1662 -0.1160 -0.0306
14096W        W27510   8.748   3.261  11.763 -0.1067 -0.0691  0.1991
14097W        W27511  15.793   0.841  15.931  0.0777 -0.2285 -0.0598
14098W        W27512   0.202   4.260   3.058  0.0823  0.2205 -0.0003
14099W        W27513   1.598  16.385   4.596 -0.0680  0.0327 -0.1844
14100W        W27514   6.456   4.135  12.680  0.1630 -0.2924 -0.1726
14101W        W27515  11.326   2.682  16.147  0.0358 -0.1411 -0.3488
14102W        W27516  18.090  13.575  14.914  0.2421 -0.1112 -0.3255
14103W        W27517   7.956  11.312   2.689  0.0378 -0.1497  0.1827
14104W        W27518  16.520   6.619   2.154 -0.0329  0.0298 -0.2114
14105W        W27519  11.422  12.440   4.628  0.1520 -0.0230  0.1398
14106W        W27520   1.038  16.922   3.126  0.0804 -0.3218  0.2597
14107W        W27521   3.495  18.171   3.803 -0.0494 -0.0875 -0.0649
14108W        W27522  13.991   3.089   9.575 -0.1854  0.2116 -0.0869
14109W        W27523   0.086   2.993  11.659  0.0209 -0.0710  0.0401
14110W        W27524   8.897  14.780   3.943  0.3934 -0.1371 -0.0315
14111W        W27525  10.927   3.932  15.017  0.1705 -0.1983  0.4278
14112W        W27526   5.921   2.715  15.091 -0.3204 -0.2060  0.0210
14113W        W27527  14.659  18.047   0.001  0.0127  0.1375  0.0091
14114W        W27528   5.301   6.017  15.933  0.0584 -0.1510  0.1719
14115W        W27529   6.528  18.093  13.174 -0.1176 -0.1964  0.0652
14116W        W27530   2.491  10.894   5.282 -0.0870 -0.0267 -0.1142
14117W        W27531   8.858  13.936  14.948  0.1626 -0.0094  0.1492
14118W        W27532  14.269   4.396   3.555  0.1360 -0.2377 -0.1668
14119W        W27533  15.287   2.135   1.011  0.0314  0.2181  0.3275
14120W        W27534  16.477   7.607  13.588  0.1760  0.0865  0.3697
14121W        W27535   5.376  11.459  16.132  0.2111 -0.0332  0.2324
14122W        W27536   6.186   6.831   4.726  0.1331  0.0604  0.0305
14123W        W27537  10.570  13.107   0.586 -0.1395  0.0469  0.1507
14124W        W27538   6.811  11.600  13.738 -0.3347 -0.1951 -0.2107
14125W        W27539  12.507  17.841  10.769 -0.0682  0.2880 -0.0195
14126W        W27540   3.238  18.164  12.334 -0.0364  0.0714 -0.2030
14127W        W27541  17.317  14.468   4.018 -0.0088 -0.0068  0.0514
14128W        W27542   3.727  10.143  16.273 -0.2579  0.0757 -0.0224
14129W        W27543   8.729   7.500  10.832 -0.0303 -0.4078  0.0675
14130W        W27544   7.350  11.106   4.397 -0.0746 -0.1745  0.1614
14131W        W27545  16.112   2.687  11.138 -0.2929 -0.2069  0.1065
14132W        W27546  11.288   8.574  11.819 -0.1971  0.2876  0.3120
14133W        W27547   7.679   9.208   4.405  0.2455  0.2711 -0.1269
14134W        W27548   5.306  17.945   3.690  0.0812  0.2888 -0.2909
14135W        W27549  11.484  13.374  15.782 -0.1494  0.0522 -0.0792
14136W        W27550   0.961   9.748   0.160 -0.2409  0.0960 -0.0668
14137W        W27551   4.506   4.812  13.564  0.1757 -0.1703 -0.2039
14138W        W27552   1.112   4.647   2.708 -0.0401 -0.3040  0.1419
14139W        W27553  15.513  15.664  13.701 -0.3266 -0.1519  0.4525
14140W        W27554   9.669   0.679   4.455 -0.0777  0.0459 -0.1008
14141W        W27555   0.736   8.743  11.920 -0.1887  0.1052 -0.0629
14142W        W27556  13.546   4.857   3.403  0.0646  0.0847  0.1190
14143W        W27557  17.300   8.354  14.317  0.0190  0.0051 -0.0380
14144W        W27558   1.775   8.975  13.889  0.2668  0.0066 -0.0615
14145W        W27559  12.795   2.427  14.890  0.2604  0.1143 -0.0972
14146W        W27560  14.184  14.138   5.830  0.0617  0.1169 -0.0404
14147W        W27561   1.636  13.614  12.452  0.2622  0.0491 -0.1146
14148W        W27562  14.525   0.552  10.920 -0.0030 -0.1056 -0.1577
14149W        W27563   8.190  11.694   5.150  0.0897  0.0642  0.2084
14150W        W27564   6.320   9.456   1.669  0.0408  0.2114  0.1420
14151W        W27565  10.355  13.296  13.568  0.4510  0.4779 -0.0616
14152W        W27566  10.544  11.941  10.768 -0.0588 -0.0062  0.3760
14153W        W27567   2.247  12.414   2.553 -0.1931 -0.2593 -0.0006
14154W        W27568   7.326   7.387  12.557  0.0099  0.1980  0.0104
14155W        W27569   5.317  14.357   5.662 -0.0885  0.1148 -0.1742
14156W        W27570   9.697  13.392  10.289  0.0790  0.0135 -0.0805
14157W        W27571  17.907   1.858   3.209 -0.2648  0.0718 -0.0263
14158W        W27572  18.213  13.675   1.071 -0.4768 -0.0625  0.0829
14159W        W27573   9.324  16.526  13.596  0.2798  0.1469 -0.0340
14160W        W27574  15.065  13.900   6.318  0.2452  0.4697  0.0221
14161W        W27575  10.307   2.159   1.110 -0.0499  0.0868  0.1250
14162W        W27576   7.879   1.163   0.180  0.0483 -0.0091  0.0486
14163W        W27577   8.370   6.790   2.174 -0.0935 -0.1324 -0.0314
14164W        W27578  16.147  13.515   1.684  0.1257  0.1591  0.0819
14165W        W27579   9.883  14.009   3.187 -0.0938 -0.0620  0.2854
14166W        W27580   6.369   3.695   0.321  0.1514 -0.0397 -0.0604
14167W        W27581  10.589  16.650   1.284 -0.0928  0.1879 -0.3752
14168W        W27582  11.665  17.954   5.585  0.4238 -0.1532  0.2231
14169W        W27583   9.130  10.111   4.449 -0.0422  0.0943  0.2979
14170W        W27584   1.930   5.794   2.202  0.0111  0.1760 -0.1708
14171W        W27585  14.184   2.099  11.003  0.0935 -0.0930 -0.0234
14172W        W27586   4.416   7.978  13.295 -0.0967  0.0737  0.0240
14173W        W27587  15.182   7.184   1.154 -0.0945 -0.2792 -0.1176
14174W        W27588   6.216  10.603   6.166 -0.3044  0.0512 -0.0775
14175W        W27589  15.748  12.559   1.349 -0.1903 -0.2211 -0.1308
14176W        W27590   5.714  10.148  15.228  0.0114 -0.0688 -0.0716
14177W        W27591  16.589   5.424  14.438  0.1567 -0.2157 -0.0677
14178W        W27592  11.105   8.856  11.384 -0.0076 -0.0481  0.0740
14179W        W27593   0.305   0.951   6.832 -0.2688 -0.1837  0.1441
14180W        W27594   4.410  16.755   0.545  0.0312 -0.1695 -0.1802
14181W        W27595   3.584  17.440  12.943  0.1353 -0.1878 -0.0578
14182W        W27596  18.180  14.026  13.327 -0.0337  0.0167  0.0197
14183W        W27597   8.137  13.280  15.552  0.1585 -0.0699  0.0983
14184W        W27598   8.075   0.476  11.864  0.1776  0.2303  0.1236
14185W        W27599  15.019   7.473  12.142  0.1905  0.1699 -0.0193
14186W        W27600  16.689   5.256   2.726 -0.0156  0.0966  0.0565
14187W        W27601  13.603   2.764   4.264 -0.0909  0.0049  0.0592
14188W        W27602   5.231   3.359   5.818  0.0751 -0.2715  0.0597
14189W        W27603   6.345   7.147   0.187 -0.3166  0.2825  0.0286
14190W        W27604  18.081   5.235  13.147 -0.1558  0.1091  0.0669
14191W        W27605   9.259  15.072   5.345 -0.0960  0.0805 -0.0979
14192W        W27606   3.072   0.359   0.707  0.0119 -0.2546 -0.1202
14193W        W27607  14.375   4.731   4.666  0.1156  0.0301  0.0545
14194W        W27608   7.863   8.307   0.471 -0.2040 -0.0071 -0.0150
14195W        W27609  10.186  16.599   2.261 -0.0934 -0.1145 -0.0131
14196W        W27610  14.652  15.162  13.879 -0.1441 -0.5435  0.3433
14197W        W27611   9.067  15.219   3.832 -0.0216  0.0038 -0.1890
14198W        W27612  16.711   6.853  15.975 -0.0801  0.0387  0.2799
14199W        W27613  11.378   7.318  11.242  0.0094 -0.2607  0.1713
14200W        W27614   5.913  10.985   0.046  0.2360 -0.0093 -0.3017
14201W        W27615  12.771   8.283   3.868 -0.0123  0.0997  0.1631
14202W        W27616  15.527   7.077   4.475  0.1273 -0.1086 -0.1719
14203W        W27617   1.746   5.157  12.419 -0.1666 -0.1034  0.1439
14204W        W27618  14.122   6.474   3.449 -0.1508  0.0445 -0.0409
14205W        W27619   3.899  10.938  12.979 -0.0180  0.1027 -0.0219
14206W        W27620  15.099  12.884  14.079 -0.2130  0.2594  0.0134
14207W        W27621  17.454  13.476  15.897 -0.2452 -0.0827 -0.1119
14208W        W27622  14.346   8.320  10.928 -0.0765 -0.0467 -0.1224
14209W        W27623   0.435  15.139   6.398  0.1404  0.0340  0.0571
14210W        W27624  18.045   9.725  13.557  0.3208  0.1786  0.0584
14211W        W27625  12.172  12.098   5.517 -0.1556 -0.1818 -0.0979
14212W        W27626   9.494  16.034  11.264 -0.0718 -0.0334 -0.0034
14213W        W27627  18.161   9.314  15.202 -0.0060  0.1257 -0.2255
14214W        W27628  14.903   9.363   4.517 -0.1724 -0.0271 -0.0178
14215W        W27629   0.570   6.610  11.571 -0.1820 -0.0761  0.1399
14216W        W27630  16.217   3.133  12.026  0.0048  0.1829  0.0040
14217W        W27631   3.861  10.186  14.892 -0.0945 -0.0436  0.1592
14218W        W27632   2.372  16.582   5.209  0.1297  0.0983  0.0263
14219W        W27633   4.258  17.179  12.159 -0.1604  0.0997 -0.0827
14220W        W27634  16.861   8.919  11.969  0.2965 -0.2403  0.0679
14221W        W27635   6.455  10.223   4.310 -0.0164  0.0447 -0.1375
14222W        W27636  10.309  13.126  14.700 -0.0087  0.2661  0.0426
14223W        W27637   9.145   2.736   0.701  0.2014  0.0317  0.1608
14224W        W27638   4.445  12.713  11.874  0.1780 -0.2239 -0.2007
14225W        W27639  12.605   1.153   3.446 -0.0509 -0.4622 -0.3849
14226W        W27640  18.249   6.373  13.599 -0.2854 -0.1456  0.3655
14227W        W27641   5.081   5.325   5.566  0.0622  0.0229 -0.0157
14228W        W27642   5.667   0.502  11.176 -0.2946  0.0750  0.1492
14229W        W27643  11.236   7.367  12.883 -0.2851  0.1873  0.0089
14230W        W27644  10.018   7.396   4.478 -0.0676 -0.2313  0.0360
14231W        W27645   3.533   6.216  10.958 -0.2056 -0.0229 -0.2152
14232W        W27646   3.783   0.832  11.849 -0.5039  0.1698  0.2890
14233W        W27647   2.438   2.785  10.056  0.3650 -0.2010  0.0476
14234W        W27648   9.455  12.047   0.575  0.1397 -0.0205 -0.3664
14235W        W27649  13.658   0.280  13.673  0.0385 -0.1449 -0.0293
14236W        W27650  12.513   0.030   5.232  0.0847  0.1270  0.3597
14237W        W27651  17.792   3.396  12.346  0.0613 -0.2239 -0.0195
14238W        W27652  11.508   6.999   1.709  0.1379 -0.3583  0.1233
14239W        W27653  16.558   0.189  13.345  0.1922 -0.0266 -0.0027
14240W        W27654  15.610   7.402   5.982  0.1589  0.1134 -0.0570
14241W        W27655   1.262  17.088   0.724 -0.0532  0.0959  0.3217
14242W        W27656  10.468  16.831   0.368  0.2775 -0.2759  0.0039
14243W        W27657  13.994  11.887  10.996  0.3628 -0.1505 -0.0493
14244W        W27658   0.473   5.719  14.012 -0.2581 -0.3346  0.0897
14245W        W27659   6.112   1.784   1.891  0.0615 -0.3442  0.1354
14246W        W27660   5.194   5.120  13.700 -0.1013 -0.0788  0.2781
14247W        W27661   1.780  11.541   2.406 -0.1718 -0.3493  0.2227
14248W        W27662  10.632   9.824  13.588  0.0183  0.0307 -0.0218
14249W        W27663   4.151   3.051  11.033 -0.0539 -0.1462  0.0909
14250W        W27664   5.116   9.545   3.697  0.6699  0.0437  0.1537
14251W        W27665   3.449  17.843   5.468 -0.0487 -0.1750 -0.0240
14252W        W27666  10.509   3.873  10.885  0.1460  0.1725 -0.1959
14253W        W27667   6.508   4.930   4.005  0.1503  0.1750 -0.1482
14254W        W27668  10.185  17.440  13.989  0.1485 -0.1682  0.2579
14255W        W27669  18.132   2.718  14.414 -0.2168 -0.1575  0.3292
14256W        W27670  11.255   9.233   6.360  0.4453 -0.0187  0.2288
14257W        W27671   1.437   4.249   2.389  0.0079  0.2333 -0.1352
14258W        W27672  13.508   7.943   4.389  0.0431  0.2910  0.0603
14259W        W27673  12.960  16.141  14.329 -0.3141 -0.2888  0.0335
14260W        W27674   9.340   0.318   2.009  0.0941  0.1030  0.0457
14261W        W27675  13.555   9.748   2.727 -0.1892  0.0775  0.1242
14262W        W27676   0.703  17.097   5.299  0.1648  0.0671  0.2043
14263W        W27677  14.137  13.537   4.155  0.1734 -0.1957 -0.1769
14264W        W27678  12.991  10.626   4.811 -0.0858 -0.1966 -0.0758
14265W        W27679  17.231   8.656  11.208  0.2905 -0.0622 -0.1768
14266W        W27680   8.729  12.962  12.059  0.1074 -0.1047 -0.0956
14267W        W27681   1.860  14.457  15.660  0.2905  0.1316  0.2792
14268W        W27682   3.717   0.426  14.288 -0.0669 -0.0465  0.0180
14269W        W27683   1.543  10.817   1.348 -0.2142 -0.0860  0.1493
14270W        W27684   5.308   6.867  12.180 -0.1863 -0.1916 -0.1119
14271W        W27685  11.566   2.540   5.295  0.1997 -0.0874  0.1811
14272W        W27686   2.652  11.712   1.943  0.0398 -0.3512 -0.0483
14273W        W27687   3.683   5.326  12.560  0.0255  0.2759 -0.1132
14274W        W27688   9.660  17.442   5.516 -0.0360 -0.1705 -0.0293
14275W        W27689   6.944   5.249   2.707 -0.0658  0.1045  0.2270
14276W        W27690   9.001   3.002  13.220  0.0522 -0.2792 -0.3130
14277W        W27691   3.269   5.262   0.412  0.1066 -0.0363  0.0891
14278W        W27692   5.098   5.099   3.776 -0.0081 -0.0104  0.1300
14279W        W27693   2.846  16.495   4.027  0.1784  0.0302 -0.1381
14280W        W27694   2.260  12.736   2.932  0.0376  0.0221  0.0771
14281W        W27695  13.981  16.963   0.246 -0.2673  0.0835 -0.0272
14282W        W27696  17.848   8.269   1.662 -0.1505 -0.0239 -0.0575
14283W        W27697   4.706   4.537  13.052 -0.2684 -0.2368 -0.3782
14284W        W27698   8.685  11.431  10.921  0.0011 -0.4167  0.0518
14285W        W27699   6.408   8.126   6.484  0.1891 -0.1005 -0.1538
14286W        W27700   9.242  14.670  13.168 -0.1662 -0.0539  0.0445
14287W        W27701  12.679  16.619   6.002 -0.4023  0.0553  0.0490
14288W        W27702   1.339  12.434   0.611  0.0253  0.2636 -0.0431
14289W        W27703   2.501   0.729   4.314  0.1014 -0.1730 -0.0930
14290W        W27704  15.767  11.607  15.798 -0.0304 -0.2863  0.2671
14291W        W27705  13.903   3.141   4.751  0.2448  0.0713  0.1668
14292W        W27706  15.659   3.577  16.426  0.1986 -0.1307  0.0185
14293W        W27707  13.794  14.243   0.391 -0.2779 -0.0356 -0.0699
14294W        W27708  11.307  15.131   4.599  0.2478  0.0012  0.1563
14295W        W27709   2.056   9.600  14.470 -0.1270  0.0419  0.0191
14296W        W27710  13.234   5.857  15.064  0.1673  0.1577  0.0900
14297W        W27711  17.912  12.078  12.460  0.1142  0.0722 -0.3256
14298W        W27712  16.089   6.575   4.113  0.0892 -0.6025 -0.1755
14299W        W27713  13.004  13.682  10.897  0.1112  0.0262 -0.1264
14300W        W27714   2.168   3.779  10.794  0.0712 -0.1186 -0.0775
14301W        W27715  17.966   1.352  14.685  0.1014  0.0401 -0.0127
14302W        W27716  14.064  10.733   1.416  0.1979 -0.1588 -0.0129
14303W        W27717  13.067   0.943  10.823  0.0497  0.0639 -0.1066
14304W        W27718   1.112  13.674   2.902 -0.0294 -0.2158  0.0399
14305W        W27719   9.232   5.757   4.980  0.1382  0.2398  0.3408
14306W        W27720   5.958   9.650  12.067  0.1187 -0.0601  0.2026
14307W        W27721  12.432   1.642  16.007  0.1414  0.3559 -0.0533
14308W        W27722  11.571   4.108  10.626 -0.1022  0.4093  0.3343
14309W        W27723   9.141   2.053  13.229 -0.1708  0.0608 -0.3683
14310W        W27724  15.665   7.115   0.946  0.3876  0.0914  0.3616
14311W        W27725  16.500   2.332  12.539 -0.5603 -0.0997  0.1593
14312W        W27726  16.585   3.478  10.913 -0.0276 -0.2906  0.1354
14313W        W27727  10.955   3.730  14.284 -0.1520  0.1009  0.1778
14314W        W27728  13.696   1.007   5.150  0.0719 -0.3714  0.0023
14315W        W27729   5.252  10.341  15.935  0.3498  0.1581  0.2594
14316W        W27730  13.253   1.733   0.023 -0.0232  0.0190  0.1673
14317W        W27731   5.191  18.168  11.916  0.0906  0.1224 -0.3304
14318W        W27732   8.626   4.020  12.027  0.6073 -0.1141 -0.1863
14319W        W27733   5.064   2.632   4.973  0.2150 -0.1046 -0.1368
14320W        W27734   8.845   7.181   5.145 -0.1981  0.1508  0.2526
14321W        W27735  10.939  14.852   0.164  0.1449  0.3138 -0.2671
14322W        W27736  17.168  11.614   0.193  0.0585 -0.1323  0.5072
14323W        W27737   8.905   4.155   3.739  0.0332  0.0562 -0.0386
14324W        W27738  16.221   0.795   4.670 -0.0089  0.1769  0.1639
14325W        W27739  12.677  13.426   0.523 -0.2925 -0.1601 -0.0613
14326W        W27740   4.392   0.477   4.206  0.0383 -0.4465 -0.2779
14327W        W27741   3.963  11.969   6.002 -0.0489 -0.1273  0.0505
14328W        W27742   5.139  13.464   1.702 -0.0134 -0.2352 -0.0709
14329W        W27743  17.087   5.405  14.193 -0.3054  0.0615  0.3141
14330W        W27744  13.362  11.266  11.169  0.0908 -0.1358 -0.0372
14331W        W27745  13.916  10.940   0.526  0.2226 -0.2880 -0.4813
14332W        W27746   2.820   6.269  12.607 -0.0546  0.2272 -0.1129
14333W        W27747   0.191   4.856  15.586  0.1226 -0.1310 -0.1982
14334W        W27748   4.549  12.839  14.965  0.1303  0.0955  0.1409
14335W        W27749   4.942   5.287   2.812  0.5338  0.1399  0.1257
14336W        W27750  12.635  13.700  16.196  0.0917 -0.1065 -0.0714
14337W        W27751   6.368  14.849  12.927 -0.1080  0.2066  0.2418
14338W        W27752   5.857   8.249  10.241  0.0774  0.0852 -0.2067
14339W        W27753  10.382   4.268  15.952  0.1147 -0.1453  0.0139
14340W        W27754  12.048  14.162   2.497 -0.1228 -0.0563  0.0444
14341W        W27755  16.970   5.734  14.757  0.0951 -0.1697 -0.2454
14342W        W27756  12.213   9.022  12.019  0.0137  0.0358  0.2566
14343W        W27757   3.105  10.377   3.967  0.2743  0.3091 -0.0202
14344W        W27758  11.303   5.325  15.017  0.2876  0.0648  0.3306
14345W        W27759   5.678   2.725   1.636  0.2105  0.1608 -0.3488
14346W        W27760  11.702   4.337  10.155  0.1501 -0.2269 -0.1741
14347W        W27761   3.836   1.728   5.935  0.3306  0.0949 -0.2380
14348W        W27762  16.838   5.853  14.066 -0.2919 -0.0788 -0.1460
14349W        W27763   2.514  11.340   1.024  0.0929 -0.2558 -0.1106
14350W        W27764  11.083   0.860   1.552  0.1182  0.0389  0.1730
14351W        W27765   5.738   1.203   1.272 -0.1613  0.0025  0.1054
14352W        W27766  14.583   3.398   2.558 -0.0658 -0.2583 -0.4467
14353W        W27767  16.898   7.294   1.595 -0.2784  0.1059 -0.0999
14354W        W27768   3.598   6.507   2.856 -0.1141  0.0389 -0.0579
14355W        W27769  16.201  13.149  11.295 -0.6127  0.0702  0.0049
14356W        W27770   0.716   1.368  13.753  0.1506  0.0157  0.2354
14357W        W27771   2.359   4.565  14.087 -0.1264 -0.5489  0.0331
14358W        W27772   8.144   2.819  12.186  0.2794 -0.1527 -0.0142
14359W        W27773  15.612   1.360   5.111  0.0789 -0.0233  0.0837
14360W        W27774   2.952   9.379   3.506 -0.1324 -0.2477  0.2607
14361W        W27775   3.337   6.504  14.202  0.1842  0.0014 -0.1499
14362W        W27776   2.881  16.711  15.178 -0.0608  0.1150  0.3988
14363W        W27777  12.170   8.159  16.053  0.2710  0.0423  0.0817
14364W        W27778  14.907   2.114   6.368 -0.3153 -0.1496 -0.2935
14365W        W27779   1.062  10.254  15.353 -0.1315 -0.2144 -0.0718
14366W        W27780   2.353   7.279   4.442  0.0085 -0.0627  0.2578
14367W        W27781  17.515  18.115   3.915  0.0633  0.0201 -0.0417
14368W        W27782   4.371   0.676   2.254  0.0243  0.1932 -0.1013
14369W        W27783  10.548  15.372   5.288 -0.0436 -0.1239 -0.0285
14370W        W27784   3.768  12.663  12.495  0.1766  0.2074  0.2072
14371W        W27785  16.465  10.289   2.967 -0.1184 -0.1904  0.0640
14372W        W27786  14.584   6.319  14.994 -0.1368 -0.3094  0.2446
14373W        W27787   5.511   9.080   2.709 -0.0548  0.1772  0.0616
14374W        W27788   6.469   8.555   0.497 -0.1054 -0.3641  0.1264
14375W        W27789  13.718  15.607  13.276  0.3871 -0.0722 -0.2185
14376W        W27790  12.848   8.362   0.211 -0.1715 -0.0517 -0.1120
14377W        W27791  17.121   8.028   3.009 -0.0583  0.3254  0.1829
14378W        W27792  18.031   9.260   2.397  0.0037 -0.0006  0.0493
14379W        W27793  14.457   3.151   0.110 -0.2508 -0.1258 -0.1524
14380W        W27794  11.603  12.742   1.968  0.3171 -0.2122  0.0685
14381W        W27795  11.892   8.563  13.597  0.3572  0.0628 -0.0116
14382W        W27796   1.223   0.323   5.069  0.0051  0.1316  0.2366
14383W        W27797   8.223   6.543  16.437  0.0828 -0.0180  0.0531
14384W        W27798  13.796   2.294   4.357  0.0851 -0.1490 -0.2899
14385W        W27799   0.861  17.372  15.587  0.1579  0.1573  0.0252
14386W        W27800  15.484  12.845   1.032 -0.1308  0.0343 -0.0278
14387W        W27801   1.562  10.811   0.874 -0.0688 -0.0003  0.1921
14388W        W27802   7.997   8.762   0.118 -0.1489  0.3106  0.0262
14389W        W27803   9.661  10.940  16.446  0.1002  0.3285  0.2338
14390W        W27804  11.251   3.058  11.885  0.0181 -0.4373  0.5142
14391W        W27805  16.877   9.274  11.506  0.1863  0.3061  0.1197
14392W        W27806  17.266   3.470   5.155  0.0192 -0.1369  0.4519
14393W        W27807   0.988  16.711  11.426  0.1966  0.0945 -0.1511
14394W        W27808   0.463  10.477  13.729  0.2366  0.0111 -0.1354
14395W        W27809  11.017   2.641   0.072  0.0790  0.0031 -0.1313
14396W        W27810  15.629  14.109  14.144  0.1351 -0.1119  0.0421
14397W        W27811  11.754   2.345   4.719 -0.1681 -0.0676 -0.2052
14398W        W27812   1.152   1.488   2.013 -0.0673 -0.0977  0.2300
14399W        W27813  13.528   4.803  16.035  0.1486 -0.2740  0.1215
14400W        W27814  17.249  15.958  15.409  0.0297 -0.0907  0.1372
14401W        W27815   6.461  12.604  12.255 -0.1734  0.2140  0.1406
14402W        W27816   8.062  11.459   3.247 -0.1315 -0.1484 -0.0146
14403W        W27817  10.486   1.720  12.673 -0.3109 -0.2586  0.1250
14404W        W27818  12.404   0.196  14.000 -0.2619 -0.0204  0.2130
14405W        W27819  17.718   3.050  11.817 -0.1852 -0.0624 -0.1708
14406W        W27820   1.610   5.942  14.761 -0.1176  0.1307 -0.2104
14407W        W27821   4.782  14.251  12.830 -0.1059  0.0071 -0.0792
14408W        W27822  16.225  11.274   5.747  0.1487  0.0176 -0.1326
14409W        W27823   2.306  11.629   0.174  0.1057 -0.0470 -0.3378
14410W        W27824   9.520  16.459   4.392  0.1341  0.1263 -0.1631
14411W        W27825  18.088   4.316   5.066 -0.1392  0.1552 -0.1436
14412W        W27826  17.854  17.693   0.773 -0.0072  0.0025  0.0663
14413W        W27827  14.931  14.752   3.983  0.0801 -0.1412 -0.2785
14414W        W27828  17.052   9.686   1.484  0.0970 -0.1963  0.1442
14415W        W27829  14.137   7.201   4.261 -0.3285 -0.1771  0.4801
14416W        W27830  13.221   5.515   3.887 -0.1626 -0.0033  0.0826
14417W        W27831  15.047   2.925  16.237  0.2088 -0.0945  0.2887
14418W        W27832  11.532  13.228   3.516 -0.2214  0.1793  0.0020
14419W        W27833   3.676   1.091   0.280 -0.0222  0.2474  0.0622
14420W        W27834  15.911  10.842   5.086 -0.1680  0.2933  0.1083
14421W        W27835   0.344   7.964   1.303  0.0868  0.1124  0.0011
14422W        W27836   3.063  12.933   5.063 -0.0544 -0.1131 -0.2572
14423W        W27837   7.451   9.278  10.395 -0.3679 -0.0181 -0.0788
14424W        W27838   5.054   0.722  14.079  0.1375 -0.0735  0.2986
14425W        W27839   1.600  14.525   5.839  0.0919  0.1289  0.1537
14426W        W27840   6.762  13.007  13.129 -0.2692 -0.0321 -0.0704
14427W        W27841   5.658  15.731   0.934 -0.1282 -0.2790  0.2095
14428W        W27842   3.613   5.309   2.406  0.2247 -0.0934 -0.1765
14429W        W27843  14.110   0.532   1.914  0.0235 -0.1292  0.3735
14430W        W27844   9.076   6.452   0.787  0.1010 -0.0278  0.1266
14431W        W27845   1.436  15.361   3.285  0.0797 -0.0487  0.0567
14432W        W27846  11.997   8.654  11.057 -0.0948 -0.2112 -0.0730
14433W        W27847   7.510  14.603  12.232 -0.0683 -0.0453 -0.0138
14434W        W27848  13.231   2.582   4.621  0.0729 -0.0481 -0.0753
14435W        W27849   8.738   4.968  11.870 -0.0592 -0.0856 -0.1301
14436W        W27850  13.220  14.186   2.692  0.0902 -0.0632 -0.0880
14437W        W27851  12.935  11.460  12.399  0.1234  0.0185 -0.1021
14438W        W27852  16.733  10.037  16.122 -0.0944  0.0095 -0.2500
14439W        W27853  17.891  16.504   0.668 -0.1472 -0.1194  0.0730
14440W        W27854   7.830   5.757   4.623  0.0537 -0.0075  0.2951
14441W        W27855   5.827   0.382   3.128 -0.0756  0.1254  0.1333
14442W        W27856   5.239   4.715  15.205  0.3559 -0.2048  0.0654
14443W        W27857  13.802  14.390  16.430 -0.0478  0.1635 -0.1637
14444W        W27858   6.093  15.884  13.905 -0.0975  0.0510  0.0889
14445W        W27859   9.379   0.991   5.970 -0.4496 -0.2972  0.3027
14446W        W27860  13.682   0.162  11.043  0.0028 -0.1962  0.0405
14447W        W27861  12.674   7.721  14.384  0.3003  0.1271 -0.0735
14448W        W27862  14.218   4.941  14.308  0.0872  0.1979 -0.2337
14449W        W27863  14.317   3.407   4.550 -0.0923  0.0630  0.0138
14450W        W27864   4.644  13.546  14.325 -0.0778 -0.1492  0.2239
14451W        W27865   9.630  12.692  15.405  0.0871 -0.0700  0.0660
14452W        W27866  13.193   5.275  10.968 -0.0151 -0.1360 -0.0375
14453W        W27867  17.006  11.168  13.032  0.0413 -0.0334 -0.0752
14454W        W27868   4.895   8.743   5.255 -0.2716 -0.0150  0.2483
14455W        W27869  17.874  16.687  15.647 -0.3949 -0.3305  0.0998
14456W        W27870  15.918  11.016  12.293 -0.2347 -0.1353  0.0038
14457W        W27871  17.211   3.907   2.661  0.1759 -0.1298  0.0632
14458W        W27872  17.435  11.584  15.348  0.0159 -0.0434  0.1696
14459W        W27873   3.408   5.051   0.822 -0.1267  0.1572  0.4533
14460W        W27874   0.864  10.838  14.585  0.0279  0.2645 -0.0402
14461W        W27875  15.922  15.374  13.986 -0.1676 -0.2134 -0.3431
14462W        W27876   1.914   9.313   2.359  0.0643 -0.0314  0.2907
14463W        W27877  12.409   1.904  11.604  0.0430  0.1059 -0.0943
14464W        W27878  16.020   6.454   5.290  0.1466 -0.1426  0.0447
14465W        W27879  10.208   6.334  10.890 -0.0443 -0.4176 -0.0801
14466W        W27880  14.344   4.418   0.286 -0.1416  0.2876 -0.1187
14467W        W27881  17.131  16.181  11.488  0.0657 -0.0652  0.1756
14468W        W27882   5.495   1.181  16.458 -0.1213  0.2048  0.1416
14469W        W27883   1.068   8.436   3.439 -0.0116 -0.0551 -0.1004
14470W        W27884  10.299   7.773  11.491 -0.0488 -0.2691  0.4160
14471W        W27885  16.094  13.956   3.150 -0.1553  0.0766  0.0843
14472W        W27886   2.351   8.586  14.468  0.1137  0.0863  0.2078
14473W        W27887  17.798   9.747   6.817 -0.1479 -0.0980 -0.0899
14474W        W27888  13.955   1.939  14.203 -0.2789  0.0682 -0.0229
14475W        W27889  14.800   7.341   2.889 -0.0048  0.1179 -0.2445
14476W        W27890   8.396  11.925  11.140 -0.0873 -0.0070 -0.2690
14477W        W27891  10.751  15.459   2.964 -0.0333 -0.0973  0.1122
14478W        W27892   1.210   5.310   4.076  0.2146  0.0167 -0.2208
14479W        W27893  12.077   8.427   4.573  0.0149  0.4342  0.1057
14480W        W27894   3.685  13.553  13.383 -0.3037 -0.1023  0.3198
14481W        W27895  16.076   5.074  12.063  0.0527  0.0051  0.3149
14482W        W27896   5.427  10.876   5.853  0.3485 -0.0207 -0.0584
14483W        W27897   0.406   1.334   5.376 -0.1602  0.1861 -0.3025
14484W        W27898  15.065   4.064   3.578 -0.1767 -0.0524  0.2057
14485W        W27899   3.702   0.533  12.857 -0.0376 -0.0383 -0.1018
14486W        W27900   7.087   5.833  15.581  0.0281  0.2339 -0.2294
14487W        W27901   9.239   9.489   0.079  0.2725  0.1463 -0.0563
14488W        W27902  13.201  16.089   2.433  0.2725 -0.4451 -0.0732
14489W        W27903   1.089   3.602  12.493 -0.1111 -0.1658 -0.0154
14490W        W27904   7.039   9.586   2.200 -0.1682 -0.2934  0.2909
14491W        W27905  15.981  14.262  11.206  0.2913  0.1068 -0.1392
14492W        W27906  18.125   6.678  11.040  0.2748 -0.1215 -0.0173
14493W        W27907   2.424   5.389  16.491  0.2745  0.1747  0.2910
14494W        W27908   7.596   0.239  14.565  0.0462 -0.1978  0.0622
14495W        W27909   3.266   5.538  12.224 -0.2087  0.0247  0.2404
14496W        W27910   5.744   8.066   6.373 -0.2359 -0.0927 -0.0773
14497W        W27911   3.681   9.458  10.520  0.1477  0.1607 -0.0203
14498W        W27912   4.197  11.371   2.881  0.1416  0.0262 -0.1117
14499W        W27913   4.548  12.287  13.523  0.1035  0.0755  0.1685
14500W        W27914   2.093   1.688  12.577 -0.3113 -0.3582  0.1292
14501W        W27915   7.492   4.071  15.954 -0.2491 -0.0213  0.1137
14502W        W27916  16.655   4.090   1.467 -0.1746 -0.2179 -0.2621
14503W        W27917   1.568  15.279  15.247  0.0017  0.5024  0.1927
14504W        W27918   9.873   4.168   0.124  0.0108  0.2609 -0.2216
14505W        W27919   1.152  12.089   2.922  0.0232  0.1457  0.0680
14506W        W27920   0.707   5.494   4.083  0.0663  0.1921 -0.2334
14507W        W27921   9.548  13.438  12.207  0.0257  0.4235  0.3511
14508W        W27922   6.787  14.854   1.301  0.0982  0.1410 -0.0232
14509W        W27923  17.034   1.134   1.819  0.1812 -0.1135 -0.1626
14510W        W27924  18.056   7.419  10.781  0.2120 -0.2583 -0.0110
14511W        W27925  11.752  12.970   2.541 -0.1500 -0.1278  0.4560
14512W        W27926   7.772  15.852  11.712 -0.1593  0.1186  0.0909
14513W        W27927   6.280   0.873  11.254 -0.1289 -0.1736  0.2008
14514W        W27928  17.035   3.357  11.849  0.2133  0.3326  0.0028
14515W        W27929  11.453   9.363  15.668  0.3543  0.2498  0.0141
14516W        W27930  15.452  13.843  10.549  0.1717  0.0214 -0.0089
14517W        W27931   3.518   2.379   0.011  0.4449 -0.0223  0.0162
14518W        W27932  16.707  17.109   4.271  0.1059  0.0702  0.1387
14519W        W27933  17.837   4.543   1.360 -0.1205  0.0547 -0.0139
14520W        W27934   1.372   2.428   0.293 -0.0205  0.0886 -0.0892
14521W        W27935   9.149   0.211  15.490  0.2152 -0.0163 -0.0978
14522W        W27936   8.421   1.155   1.608 -0.1020 -0.1392  0.0179
14523W        W27937   2.038   3.060   4.097 -0.0821  0.4153  0.0639
14524W        W27938   0.834   0.559  13.576  0.2493  0.1244  0.4176
14525W        W27939   7.682   5.610  10.605  0.0507 -0.0364 -0.2048
14526W        W27940  13.599  12.228  13.346 -0.0725  0.0349 -0.2763
14527W        W27941  15.855  13.577   3.475  0.0557 -0.0725  0.0998
14528W        W27942  16.535  10.590  12.275 -0.0271  0.3141  0.1936
14529W        W27943   6.957   7.022   0.933  0.1897 -0.1132 -0.0819
14530W        W27944  16.613   3.977   2.031  0.0526  0.0921 -0.0240
14531W        W27945  15.364   9.276   2.223  0.1178 -0.2129  0.2892
14532W        W27946   2.934  10.993   2.434  0.2357  0.0087 -0.2119
14533W        W27947   1.353  18.087  12.669  0.0692  0.1616  0.0526
14534W        W27948  10.158   7.583   3.747  0.1820  0.0110  0.2781
14535W        W27949  17.143  10.149   1.045 -0.0576 -0.0368  0.2113
14536W        W27950   7.925  11.018  11.906 -0.0649  0.0666 -0.0709
14537W        W27951   1.176  10.249   5.482 -0.0044 -0.1590  0.2291
14538W        W27952  10.884   2.866   1.326 -0.2106  0.1567 -0.3131
14539W        W27953   9.184   1.884   3.241  0.3409  0.1737 -0.0715
14540W        W27954   7.720  12.545  11.118 -0.1039 -0.1814 -0.0324
14541W        W27955   4.039   8.261  13.531 -0.0186  0.0205  0.1566
14542W        W27956  10.976   2.231  11.954 -0.3348 -0.2914  0.3508
14543W        W27957  10.167   0.141   4.571 -0.1619  0.2329  0.0999
14544W        W27958   0.004   4.244  13.403 -0.0684 -0.2828 -0.1328
14545W        W27959  14.032   3.393   0.346  0.3731  0.1134  0.2170
14546W        W27960  17.942   1.892   5.281 -0.2575 -0.0790 -0.2779
14547W        W27961   3.177  12.517   0.373  0.0684  0.1794 -0.2251
14548W        W27962   8.956   8.823   1.599 -0.2534 -0.2893 -0.1552
14549W        W27963   5.087   1.036  14.922  0.1001  0.2119 -0.1578
14550W        W27964  10.661  10.261   3.928  0.1364  0.0123 -0.1952
14551W        W27965  10.718  13.327  13.949 -0.1985 -0.0260  0.3456
14552W        W27966   3.030  16.307  11.872 -0.0724 -0.1695  0.2509
14553W        W27967  17.487   2.049  15.456 -0.0651  0.0972 -0.0404
14554W        W27968   3.058  12.669   1.029  0.0457 -0.3121  0.0989
14555W        W27969  16.308  17.772  14.255 -0.0005 -0.1038 -0.0533
14556W        W27970   1.217  16.466  12.506  0.2178 -0.0236  0.1440
14557W        W27971   5.461  15.482  12.274  0.0624 -0.1369  0.1344
14558W        W27972  15.238   2.731  12.506  0.2823 -0.0236  0.4082
14559W        W27973   6.795  14.996   0.362 -0.1712 -0.1402  0.0052
14560W        W27974   8.809  13.178  16.295 -0.0131 -0.1227  0.1347
14561W        W27975  13.727   0.321  12.694  0.0811  0.0657 -0.1788
14562W        W27976   6.915  11.443   1.764  0.3201  0.3302 -0.0557
14563W        W27977   6.922   0.062   0.703 -0.1037 -0.2808 -0.3411
14564W        W27978  16.973   7.235   2.650 -0.0328 -0.2258 -0.0376
14565W        W27979   5.450   3.463   3.803  0.0635  0.4963 -0.2385
14566W        W27980  11.938   8.998   4.024 -0.0050  0.0018  0.1162
14567W        W27981   5.388   9.217   4.092 -0.2054  0.0850  0.2285
14568W        W27982   6.366   6.669  12.441  0.2584 -0.1499  0.4115
14569W        W27983   0.242   8.409  12.675  0.2453  0.0212 -0.1074
14570W        W27984   2.220   5.082   6.449  0.3017  0.2939 -0.0110
14571W        W27985   4.893  17.848  10.550  0.3207  0.0838  0.2502
14572W        W27986  11.904  16.661  10.755  0.0172  0.0565  0.0085
14573W        W27987   8.696  16.424   2.148 -0.3165  0.0027 -0.1211
14574W        W27988   5.333   9.610   1.980 -0.0620  0.4308 -0.2768
14575W        W27989  15.224   4.791  13.470  0.0348 -0.1293  0.0147
14576W        W27990   6.243  12.755   2.202 -0.0225  0.1020  0.1248
14577W        W27991   6.452   3.339   3.029 -0.1123  0.1790  0.3486
14578W        W27992  16.891   4.611   1.454  0.0902 -0.0597 -0.0077
14579W        W27993  13.545   6.494  11.036  0.1007 -0.0599 -0.0859
14580W        W27994  10.178  15.663   1.077  0.0933  0.2278 -0.1842
14581W        W27995   9.091  13.192   5.316  0.0586 -0.0721 -0.2134
14582W        W27996   1.993  14.139   1.258  0.0053  0.0968 -0.2016
14583W        W27997  13.286   5.844  12.978 -0.2175 -0.2525  0.2872
14584W        W27998  13.661   8.280  10.736  0.0124 -0.1746 -0.1112
14585W        W27999   7.419  12.264   2.666  0.0205  0.0076  0.2456
14586W        W28000   0.105  12.183   0.294  0.1030  0.1680 -0.1039
14587W        W28001   4.041  15.357   3.253  0.0555  0.1442 -0.1586
14588W        W28002   8.971   8.195  13.521 -0.0095  0.2559  0.0917
14589W        W28003   8.948   0.880   3.319 -0.1147 -0.1811 -0.1840
14590W        W28004  12.681   4.259  10.115 -0.0435 -0.0841 -0.1815
14591W        W28005   6.312  10.626   1.596  0.0466  0.0083  0.1690
14592W        W28006  18.128   5.379   2.521 -0.2086 -0.0783 -0.0476
14593W        W28007   3.308   3.833   1.126  0.1201 -0.4382  0.1034
14594W        W28008   4.103   8.839  13.312 -0.0183 -0.0388  0.2188
14595W        W28009  14.053   3.888   3.652 -0.0432  0.0881 -0.1113
14596W        W28010  10.043   4.937  14.828 -0.0835 -0.1515 -0.2726
14597W        W28011   7.409   4.989  16.191  0.0087 -0.3789 -0.0221
14598W        W28012   7.146   3.307  15.655 -0.3715 -0.1137  0.1679
14599W        W28013  11.714   9.206   1.185  0.0012  0.0043  0.0231
14600W        W28014   5.286  10.390  15.419  0.0185  0.2779 -0.3518
14601W        W28015   0.767   5.896  11.932 -0.2099  0.0217 -0.2964
14602W        W28016   3.174  16.593  11.351 -0.0405  0.0187 -0.0880
14603W        W28017   9.803   6.441  14.687 -0.0821  0.0681  0.0581
14604W        W28018  11.290  17.584  11.234 -0.1034 -0.0142  0.0937
14605W        W28019  15.632   2.084   0.126 -0.4896 -0.0974 -0.0625
14606W        W28020  17.024  13.159   3.647  0.0158 -0.3463  0.1050
14607W        W28021  17.595   9.178   0.241  0.1675 -0.0361  0.3223
14608W        W28022   4.356   1.234  14.621 -0.0627  0.3103  0.1891
14609W        W28023  10.125  13.046   0.148 -0.1192 -0.2831 -0.3689
14610W        W28024   2.376  12.049  10.781 -0.3755 -0.0649  0.3163
14611W        W28025  17.535   9.731   4.719 -0.1171  0.1008  0.1173
14612W        W28026  15.626  12.554   5.339  0.2194 -0.1443  0.0266
14613W        W28027  10.071   3.875  15.833  0.3276 -0.0434 -0.0022
14614W        W28028  13.911   2.349   0.452 -0.1908 -0.1426 -0.0664
14615W        W28029  15.353   0.087   0.290  0.1596 -0.1768 -0.1461
14616W        W28030   6.584   5.887   2.398 -0.1706 -0.0483  0.0546
14617W        W28031  12.428   8.890  14.792 -0.3055  0.1987  0.1863
14618W        W28032  15.313   6.541   2.745  0.1772  0.2684  0.1255
14619W        W28033   7.535   4.186  10.395 -0.1459  0.2210 -0.2631
14620W        W28034  12.779   9.313   3.107 -0.1602  0.1298  0.1785
14621W        W28035  11.600  17.595  12.191 -0.0013  0.0736  0.0704
14622W        W28036  15.614   9.833  14.677 -0.1907 -0.2640  0.2295
14623W        W28037   4.859   2.241  12.439 -0.3715 -0.3263  0.2409
14624W        W28038   8.348  14.720   5.261  0.0233 -0.0415 -0.1124
14625W        W28039   0.316  14.324  16.073  0.1879  0.4651 -0.0496
14626W        W28040   7.021  16.387   2.264  0.2431  0.0032  0.3348
14627W        W28041  11.529  16.485  16.108  0.0202 -0.0679 -0.0338
14628W        W28042   6.189  18.023   4.648 -0.0307  0.0495  0.0028
14629W        W28043   8.315  16.899  11.948 -0.1057  0.0708 -0.4485
14630W        W28044   3.433   8.876  13.338  0.5093 -0.1798  0.2076
14631W        W28045   5.369   9.103   0.670  0.2069  0.2238  0.1327
14632W        W28046   6.897   4.621  15.331  0.1428 -0.1431 -0.1164
14633W        W28047   0.765   0.962  14.553 -0.4344 -0.0204  0.0983
14634W        W28048  16.284   1.173   1.116  0.0511 -0.2058 -0.0564
14635W        W28049  17.673   1.312   0.726 -0.2137 -0.0084 -0.0132
14636W        W28050   5.255  10.136   4.895  0.3675 -0.0134 -0.1652
14637W        W28051  12.282   6.566   3.529  0.0299 -0.2063  0.3197
14638W        W28052  17.559   5.395   2.330 -0.1810  0.1546 -0.0158
14639W        W28053  12.789  13.871   5.491  0.1719  0.0846 -0.3526
14640W        W28054   3.281   5.031  14.998 -0.2582 -0.0645  0.1332
14641W        W28055   3.309  11.205   5.044  0.1432  0.0019 -0.1081
14642W        W28056   2.968  11.815  16.001 -0.2385 -0.1585 -0.0361
14643W        W28057  14.054   0.978  15.872 -0.1189 -0.1804 -0.0530
14644W        W28058   4.129  10.988   4.398  0.1118  0.3812 -0.0907
14645W        W28059   9.495  15.290   4.409  0.3823 -0.0112 -0.2344
14646W        W28060  13.592   2.211  12.550  0.1760  0.1348  0.0518
14647W        W28061   0.636  14.017   2.868  0.3559  0.2210 -0.1923
14648W        W28062   6.451   7.832  11.390 -0.1201 -0.1367  0.1679
14649W        W28063   5.082   3.454   4.635 -0.0169 -0.1718 -0.2188
14650W        W28064   6.246  12.223  11.910 -0.2550 -0.2137 -0.0334
14651W        W28065  10.564   5.562   3.129  0.0824  0.4098  0.3009
14652W        W28066  15.978  15.373   1.277  0.0947  0.4747 -0.2991
14653W        W28067   0.392   9.894  11.421  0.3408 -0.0717 -0.2783
14654W        W28068  13.219  16.601  16.183  0.0157 -0.0886  0.0349
14655W        W28069  17.522  14.488  11.193 -0.0233  0.0200  0.1111
14656W        W28070  10.583  10.732   3.215  0.0386  0.3407  0.1346
14657W        W28071   6.105  13.191   1.440 -0.0724  0.2047 -0.3908
14658W        W28072   9.428  13.909  12.107 -0.0600 -0.3178  0.0622
14659W        W28073   3.945  13.221   3.768  0.0511 -0.2190 -0.1328
14660W        W28074   5.918   6.235  11.809 -0.0920 -0.0243 -0.0051
14661W        W28075  14.185  14.233  15.110 -0.2474  0.1675  0.0747
14662W        W28076  13.848  13.892   0.034  0.2681  0.2049  0.0797
14663W        W28077   1.108   4.510   3.653  0.2920  0.1609  0.2849
14664W        W28078  13.872  11.578  15.151  0.2879  0.3011 -0.0316
14665W        W28079   5.859   0.737  13.611  0.1905  0.2522 -0.0031
14666W        W28080   4.472   3.198  16.207 -0.3345 -0.2956 -0.0003
14667W        W28081   3.980   9.416   2.654 -0.0200  0.0505  0.3050
14668W        W28082   0.874  12.194  12.286  0.1935  0.0499 -0.1999
14669W        W28083   5.496  14.839   4.524 -0.1635 -0.2956  0.3824
14670W        W28084   0.311   8.879   5.579 -0.4132  0.2002  0.0593
14671W        W28085  13.157  12.134   2.573 -0.3076  0.1760  0.1715
14672W        W28086  17.529   8.915   3.562  0.1134 -0.1210  0.3045
14673W        W28087  11.221  11.051   9.985 -0.2147 -0.0362  0.2207
14674W        W28088  10.511  13.699   3.970  0.4303 -0.1714 -0.0236
14675W        W28089   0.868  13.994   1.583  0.2027  0.0009  0.2682
14676W        W28090  16.758   6.320  15.628 -0.0914  0.2437 -0.0723
14677W        W28091  12.324   0.650  12.965 -0.0235 -0.0816  0.0614
14678W        W28092  15.076   9.754  12.673  0.1776  0.2279 -0.1286
14679W        W28093   2.820   7.295  11.905  0.0240 -0.3643  0.3260
14680W        W28094   3.574   9.178  14.739  0.0162  0.0347 -0.3727
14681W        W28095   7.467  10.587   4.465 -0.2632 -0.1883  0.0642
14682W        W28096   7.432   3.068  12.429 -0.0635 -0.1124 -0.2863
14683W        W28097  14.626  16.181  12.381 -0.0160  0.0591 -0.1037
14684W        W28098  14.910  10.619  14.268  0.0754  0.1167 -0.1614
14685W        W28099   6.624  13.961   1.638  0.1601  0.2370 -0.1836
14686W        W28100   3.646   0.307  11.508  0.1034  0.2994 -0.1748
14687W        W28101   6.919   4.968   3.190  0.0312 -0.0202 -0.0976
14688W        W28102   2.028   9.289   4.041 -0.0813 -0.0782 -0.1717
14689W        W28103  13.459  10.461  11.691 -0.1512 -0.2853 -0.0514
14690W        W28104   2.266   2.227   2.640 -0.2102 -0.0001  0.0367
14691W        W28105   0.421   6.153  11.717 -0.3549  0.2293  0.3478
14692W        W28106   3.943  14.923  12.706  0.1601  0.2485  0.2539
14693W        W28107   0.493   8.278   6.089  0.1267  0.0626  0.0107
14694W        W28108   4.595  10.595  13.334 -0.0112  0.0093 -0.1943
14695W        W28109  15.282   8.155   5.840 -0.0648  0.2293  0.0226
14696W        W28110   5.115   1.980  16.175  0.1946  0.2836  0.0741
14697W        W28111  14.243  14.929  12.821 -0.1895 -0.0335  0.0260
14698W        W28112   9.720   0.279   3.835  0.1523 -0.0938  0.0400
14699W        W28113  17.892  13.462   1.472  0.2671 -0.3561  0.2276
14700W        W28114  17.191   8.658   5.507 -0.1012 -0.1777  0.1682
14701W        W28115   1.765  10.236   2.632 -0.1440 -0.0586 -0.3093
14702W        W28116   2.907   5.218   1.781  0.1716 -0.0095  0.0622
14703W        W28117   2.238   4.212  13.091 -0.4903  0.1464  0.0699
14704W        W28118  16.633  11.005   5.774  0.1750  0.1322 -0.0458
14705W        W28119  10.868   7.870  14.337 -0.2799 -0.1112  0.0425
14706W        W28120   7.000  14.634   2.153 -0.2016  0.1282  0.1757
14707W        W28121  14.228   7.824  10.041  0.4711  0.0492  0.3647
14708W        W28122  11.496   0.714  15.771 -0.0278 -0.1923  0.2559
14709W        W28123  12.535   1.984   4.686 -0.1897 -0.0664 -0.0699
14710W        W28124  12.392   4.660   2.511 -0.0900 -0.4236 -0.1164
14711W        W28125   6.045   0.058  14.965  0.1123  0.0477 -0.0223
14712W        W28126  17.129  11.265  11.461  0.3471 -0.2004 -0.0399
14713W        W28127   4.416  15.139   2.868  0.0145  0.3997 -0.2545
14714W        W28128  16.508   9.999   5.128 -0.1458  0.2356  0.3737
14715W        W28129  10.971  10.409   5.484 -0.2944 -0.2870  0.1391
14716W        W28130   3.488   9.274   2.753  0.2343  0.0255 -0.2484
14717W        W28131   3.808   7.654  11.107 -0.1704  0.0623  0.1097
14718W        W28132  13.804  14.627  11.453  0.0324  0.0266  0.1177
14719W        W28133  14.747  10.492  15.233 -0.1708 -0.0746 -0.4162
14720W        W28134  11.630   5.123  10.509  0.0130  0.0968  0.1365
14721W        W28135   2.536  10.190  13.793  0.2401 -0.2476  0.2346
14722W        W28136  11.744   0.699   0.249 -0.0176 -0.1153  0.2925
14723W        W28137  13.061   7.213   2.407 -0.0405  0.1901  0.3336
14724W        W28138   2.141   1.422   0.895 -0.1165 -0.2318  0.0408
14725W        W28139  14.175   8.342  16.155  0.0653 -0.3050  0.0617
14726W        W28140  17.230   0.771  15.897  0.0267  0.0021 -0.2426
14727W        W28141  11.635   3.032   5.340 -0.0625  0.1829 -0.0698
14728W        W28142   0.218   5.025  11.852 -0.1635 -0.0312  0.3753
14729W        W28143   8.263  12.357  11.841 -0.1259  0.0240  0.0511
14730W        W28144  12.910  13.674   0.089 -0.0471 -0.2779 -0.0846
14731W        W28145  15.158  13.897  15.599  0.1263 -0.1785  0.1225
14732W        W28146  17.636  13.523   2.728  0.2695 -0.1140 -0.3249
14733W        W28147   1.512   6.974   5.364 -0.0780  0.4426  0.1220
14734W        W28148   0.480   2.207  14.278  0.0352 -0.1660 -0.0612
14735W        W28149  13.715  10.878  11.463 -0.0598  0.2508  0.0715
14736W        W28150  16.415   1.095   5.349  0.2916  0.2492  0.2747
14737W        W28151  17.049  10.390  11.308  0.0281  0.0202  0.1693
14738W        W28152   7.143  12.525  12.339 -0.0283 -0.0812 -0.3201
14739W        W28153   8.190  10.408   0.554 -0.1542 -0.4039 -0.1723
14740W        W28154   2.732  13.341   5.221  0.0806  0.0251 -0.1496
14741W        W28155  10.697   8.936   4.394  0.1714  0.0518 -0.1065
14742W        W28156  13.041  10.167   4.620 -0.2600 -0.0252  0.0762
14743W        W28157   3.444  18.237   6.382 -0.0042 -0.0701 -0.2539
14744W        W28158   7.535   7.176  12.048  0.4038  0.0459  0.1012
14745W        W28159   9.885   9.475  11.862  0.1847  0.3080 -0.1095
14746W        W28160  10.861   1.020   4.650  0.0945  0.0357 -0.2219
14747W        W28161   5.456  11.947   2.657 -0.0860 -0.2529 -0.1047
14748W        W28162  11.702   4.457   5.379 -0.0795 -0.1245  0.2585
14749W        W28163   0.110   1.076  15.442  0.2739  0.3286 -0.3508
14750W        W28164  10.141  14.854   0.485  0.2758  0.0225  0.2973
14751W        W28165  16.929   8.591  14.033  0.1440 -0.1082 -0.1082
14752W        W28166   8.010  14.760   3.349  0.1313  0.1060 -0.0713
14753W        W28167   3.910   3.804   0.460  0.1137 -0.0960  0.1721
14754W        W28168   2.032  17.245  14.538  0.0295  0.1032  0.3264
14755W        W28169  15.984   4.631   0.120 -0.4030 -0.0982  0.0637
14756W        W28170   6.961   5.782  10.853  0.4152 -0.2525 -0.1866
14757W        W28171   2.375   8.697  16.267 -0.3119 -0.1211 -0.0644
14758W        W28172   2.647   7.560  13.874 -0.1610 -0.4473 -0.1422
14759W        W28173  16.584  12.756  12.211  0.1994  0.0660  0.1107
14760W        W28174   0.482   6.409   4.741 -0.4231 -0.0244  0.0376
14761W        W28175  10.718   0.945   3.682 -0.1270  0.1876  0.3614
14762W        W28176  15.066  15.193  15.680  0.0105  0.0866  0.0405
14763W        W28177   2.719  10.052  11.494  0.1422  0.1138 -0.1647
14764W        W28178  17.421   9.868   0.733  0.0850  0.2390  0.0813
14765W        W28179   3.990   2.882   6.475 -0.0293  0.3610  0.0868
14766W        W28180  11.704  14.436   0.448 -0.2023  0.0597  0.0943
14767W        W28181   0.689   9.012   2.799  0.0679  0.0727  0.0055
14768W        W28182  10.718  10.556  14.566 -0.0971 -0.1442 -0.1291
14769W        W28183   8.216   7.406  12.391 -0.1029  0.1680 -0.0735
14770W        W28184  15.683   0.761   0.440  0.0344  0.0804 -0.1802
14771W        W28185   0.236  10.533   4.688  0.2955 -0.3107  0.0187
14772W        W28186   0.418  11.185  10.374 -0.0056  0.0408  0.0622
14773W        W28187   8.487   2.810   0.760  0.2441  0.1918  0.5070
14774W        W28188  13.168  13.653   1.986 -0.0806 -0.1575 -0.0816
14775W        W28189   6.204  12.172   3.318 -0.1868  0.0503  0.2432
14776W        W28190  14.949  15.899   4.890  0.1177 -0.1748  0.0837
14777W        W28191  13.433   2.753  14.174 -0.0381  0.2434  0.2961
14778W        W28192  14.226  17.988   5.438 -0.0550 -0.0276  0.1912
14779W        W28193  12.866  11.244   1.838 -0.0453 -0.2268 -0.1064
14780W        W28194   2.213   1.936  11.311 -0.0110 -0.0587 -0.0329
14781W        W28195   6.636   5.440  10.207 -0.0943  0.0178 -0.0717
14782W        W28196   5.835  10.334  12.656 -0.0477  0.1173 -0.0549
14783W        W28197  17.756   3.034  11.017  0.0843 -0.0207 -0.0501
14784W        W28198   2.589   8.827  13.640 -0.3284 -0.1016  0.1527
14785W        W28199   4.013   0.975   2.030  0.0153  0.1406  0.1240
14786W        W28200   5.481   6.432  11.878  0.0035  0.3543 -0.4734
14787W        W28201  12.993  16.643  10.834 -0.1669 -0.0569  0.0548
14788W        W28202   6.188   1.677   3.814  0.0232  0.3741 -0.3668
14789W        W28203  17.058   5.882  13.057  0.1525 -0.2310  0.1854
14790W        W28204  10.028  16.627  11.539  0.3552  0.2989  0.2728
14791W        W28205  13.346   7.983   3.909 -0.1438 -0.0896 -0.0855
14792W        W28206   4.219  10.343  14.532  0.0051  0.1111  0.0242
14793W        W28207  16.057  17.516  15.436 -0.1393  0.0802 -0.0768
14794W        W28208  13.418   8.822  14.830  0.0686  0.1385  0.0462
14795W        W28209   7.996  15.970  11.123  0.3192  0.0748  0.1230
14796W        W28210  12.350   1.153   1.896 -0.1003  0.0445  0.2115
14797W        W28211   6.365   1.406  13.252 -0.2522  0.4065  0.2204
14798W        W28212  14.910   1.931   5.834 -0.2145 -0.3622 -0.0252
14799W        W28213   0.619   4.871  12.958 -0.1803 -0.2815 -0.3621
14800W        W28214  14.476  13.510  11.457  0.2009 -0.1743  0.1555
14801W        W28215   9.902   2.872   2.770 -0.0132 -0.3430  0.0458
14802W        W28216   7.198   5.630  10.426  0.1213 -0.0746 -0.0808
14803W        W28217  15.640   7.909   6.099  0.1950 -0.2170  0.1708
14804W        W28218  12.311  17.223  14.585  0.0367  0.2678 -0.3389
14805W        W28219  11.521  13.165   1.041  0.0367  0.0863  0.2083
14806W        W28220  16.013   1.148   2.744 -0.0302 -0.0400  0.1348
14807W        W28221   1.523  13.468  16.056 -0.3260 -0.0279  0.0021
14808W        W28222  14.910   5.460   3.056 -0.0415  0.0474 -0.0765
14809W        W28223  10.508  13.880  12.126 -0.1113 -0.2897  0.0452
14810W        W28224   6.944   5.935  16.053  0.2946  0.4956 -0.0323
14811W        W28225  12.633  15.924   3.227 -0.0945  0.1962 -0.2013
14812W        W28226  12.401   2.421   3.427 -0.3218 -0.4834  0.0539
14813W        W28227  17.121  16.679   5.133  0.3778 -0.0334 -0.0815
14814W        W28228  12.386   2.693  13.183  0.0499 -0.0253 -0.1505
14815W        W28229  13.890  12.928  11.777 -0.1676  0.0679 -0.4408
14816W        W28230   4.996  13.615  15.137  0.5791  0.1220 -0.0135
14817W        W28231  17.014  13.389  11.557 -0.1408 -0.3609 -0.3605
14818W        W28232   4.975   6.335  11.719  0.2942  0.0388 -0.2266
14819W        W28233  11.375  15.638  10.277 -0.3040 -0.2257 -0.1317
14820W        W28234   4.248  17.674   1.764  0.0304 -0.2986  0.1689
14821W        W28235  13.976   0.749  16.342  0.1703 -0.0047  0.0162
14822W        W28236   6.559   8.174   0.238  0.0076  0.3976  0.0440
14823W        W28237   5.610  11.786   1.664  0.3999  0.1363  0.1807
14824W        W28238   0.465  10.252  13.256  0.0717  0.0999 -0.1170
14825W        W28239   2.855  12.606  10.646 -0.0386  0.1225 -0.1637
14826W        W28240   4.607   6.483  15.426  0.3664 -0.0287 -0.2697
14827W        W28241  10.485  12.596  10.419  0.1001 -0.0543  0.0120
14828W        W28242   8.142  17.042   2.268 -0.0580 -0.2814 -0.0537
14829W        W28243  13.227  16.672   3.207 -0.1424 -0.2354  0.0890
14830W        W28244  15.334   3.870  13.903 -0.2811 -0.1110 -0.0560
14831W        W28245   0.360  15.546   2.766 -0.2524  0.0914 -0.2675
14832W        W28246   4.063   6.837  13.482  0.1731 -0.0845  0.0134
14833W        W28247  15.592   1.116  13.028  0.0584  0.2841  0.1392
14834W        W28248   0.396   0.221  10.294 -0.1636 -0.1877  0.1641
14835W        W28249   6.223  16.488   0.973 -0.0815 -0.0619 -0.0205
14836W        W28250  12.433  15.696  11.770  0.0683  0.0562  0.0519
14837W        W28251  13.460  11.886   0.178 -0.2509 -0.0438  0.0601
14838W        W28252   9.030  10.080  12.864  0.1394 -0.1589 -0.0488
14839W        W28253  15.297  15.555  14.771 -0.0688 -0.0768 -0.1444
14840W        W28254   5.700   5.407   0.277  0.0218  0.0885 -0.3103
14841W        W28255   1.194   3.389  11.453 -0.1572  0.2156  0.0410
14842W        W28256   5.264   0.340   4.533  0.0340  0.0514  0.3368
14843W        W28257   0.707  15.256  16.107 -0.1528 -0.2871 -0.0134
14844W        W28258   5.493   9.159  12.228  0.3134 -0.1673  0.0453
14845W        W28259  16.879   9.895  11.408 -0.2672  0.0533  0.0235
14846W        W28260  17.369   1.042  16.372 -0.0180  0.1852  0.2174
14847W        W28261   0.782   7.822  13.019 -0.1017 -0.0893  0.2268
14848W        W28262   3.269   9.124  10.785  0.0319 -0.0707 -0.1603
14849W        W28263  13.211  12.279  12.935  0.2425 -0.1590  0.2716
14850W        W28264  11.461  14.292   0.932  0.1894  0.0289 -0.2597
14851W        W28265   8.190   1.589  12.897 -0.1938  0.1728 -0.2287
14852W        W28266  10.830  11.581  11.221  0.1445  0.0885  0.2495
14853W        W28267   7.999  17.007  15.515 -0.3086 -0.3272  0.0394
14854W        W28268  15.826   6.260   0.304  0.0156 -0.3869 -0.2892
14855W        W28269   1.430   1.830  10.839  0.0935  0.1669 -0.1261
14856W        W28270   2.199   4.683  15.143 -0.0901 -0.2074 -0.1206
14857W        W28271   1.039  17.683  12.853 -0.1260 -0.1419 -0.3028
14858W        W28272  17.479   6.079  13.733 -0.0737  0.1931 -0.0171
14859W        W28273  12.674   9.015  13.834 -0.2846 -0.2935  0.1239
14860W        W28274   7.878  10.530   3.695  0.0911 -0.0871 -0.0829
14861W        W28275  10.270   4.988  16.318 -0.0027 -0.2236  0.1489
14862W        W28276   5.572   5.984   3.258 -0.0644 -0.1620  0.1264
14863W        W28277  16.369  12.735  16.176 -0.1303 -0.1062 -0.1242
14864W        W28278  14.214  15.270   0.874 -0.3782 -0.1597 -0.1467
14865W        W28279  13.697   9.402   4.636  0.0111  0.1965 -0.1449
14866W        W28280   0.144   4.512  11.683  0.0337 -0.2265 -0.0999
14867W        W28281   7.424   6.628  13.432 -0.0024  0.2079 -0.0114
14868W        W28282  17.315  12.538   2.817  0.1746 -0.2374  0.3207
14869W        W28283  14.008  10.487   6.037  0.2779 -0.0793  0.1714
14870W        W28284  11.451  10.703  13.200 -0.3455 -0.1673  0.1766
14871W        W28285   4.139  15.987   4.289  0.2355  0.3813  0.0604
14872W        W28286   3.242  13.391   4.135 -0.1280  0.2206 -0.1631
14873W        W28287  12.355   5.523   0.218 -0.1783  0.0073  0.3571
14874W        W28288   1.232  16.322   6.265 -0.2409  0.1710 -0.1153
14875W        W28289   2.965   6.827  10.296  0.0099  0.1440 -0.1122
14876W        W28290   5.043   8.585  13.423  0.0805  0.0920  0.1121
14877W        W28291   9.549   3.575  12.938  0.1432 -0.1358 -0.1229
14878W        W28292  15.503  10.703  16.251 -0.3958 -0.2382  0.1437
14879W        W28293  12.443  11.954   3.138 -0.0072  0.0398 -0.1017
14880W        W28294   5.823   5.801  13.909  0.2031 -0.1299 -0.0959
14881W        W28295  13.609   8.922  11.750  0.3102 -0.1005 -0.3062
14882W        W28296   6.220  11.578   0.903 -0.0551  0.1530 -0.0304
14883W        W28297  10.325  11.076  15.271 -0.2216 -0.1045 -0.1945
14884W        W28298  12.004   8.654  14.052 -0.4763  0.0077  0.0027
14885W        W28299   4.932   4.806  13.921  0.3291  0.0520 -0.1188
14886W        W28300  10.449  15.009  15.176 -0.1518 -0.1550 -0.0155
14887W        W28301   2.111   8.918  13.365 -0.0322 -0.1508 -0.2835
14888W        W28302  16.739   1.960   5.771 -0.2471 -0.4914  0.0810
14889W        W28303   7.601  17.003   4.383 -0.3650 -0.0385  0.2394
14890W        W28304  10.907  17.305  11.042  0.1775 -0.0612 -0.0987
14891W        W28305  10.088  16.694   3.683 -0.1264  0.0548 -0.2062
14892W        W28306  11.768   2.667   6.503 -0.1749 -0.1733  0.1664
14893W        W28307  11.392  15.189  13.636  0.1159  0.3468  0.1598
14894W        W28308   7.270   2.735  13.796 -0.0226 -0.0313 -0.0760
14895W        W28309  17.369   5.721  15.515 -0.0193  0.2016  0.1995
14896W        W28310  11.100   0.004   9.715  0.0124  0.0632 -0.0035
14897W        W28311   4.187  10.526  13.685 -0.0303 -0.0409 -0.0768
14898W        W28312  16.659  13.547  11.116  0.0133 -0.2036 -0.1695
14899W        W28313  13.160   0.365  15.376  0.2949  0.1123  0.0633
14900W        W28314   5.548   8.928   5.978  0.2667  0.1149  0.1466
14901W        W28315   7.920  11.680  14.793 -0.1579 -0.4102 -0.1192
14902W        W28316   6.470  17.509   5.587 -0.1430  0.0121 -0.3267
14903W        W28317   6.232  11.360   0.236 -0.1866  0.1684 -0.1303
14904W        W28318   4.002   1.650  14.677 -0.2489 -0.0045 -0.0416
14905W        W28319   2.800  16.745   0.825 -0.1484 -0.0629  0.2136
14906W        W28320   1.963   6.818   4.138 -0.2446 -0.1390  0.2354
14907W        W28321   5.437   7.161  13.381  0.1454  0.2223 -0.2673
14908W        W28322  16.310   9.985  11.213 -0.0670 -0.1326  0.0171
14909W        W28323  15.687   9.765   3.929  0.2220  0.0216 -0.0257
14910W        W28324  12.382  16.197  11.591 -0.2259 -0.1843 -0.1601
14911W        W28325   9.824   9.095   3.238  0.0625 -0.2248  0.1483
14912W        W28326   2.664   1.243   3.541 -0.0380 -0.3000  0.2602
14913W        W28327  12.806  10.027   5.243  0.1177  0.0951 -0.1445
14914W        W28328   6.795   3.362   2.409  0.1366 -0.1177  0.0904
14915W        W28329   1.135   4.176  12.445 -0.0750  0.0226 -0.0277
14916W        W28330   8.078   3.823   0.669  0.1229  0.1500 -0.0871
14917W        W28331   4.152   5.262   5.434  0.0223  0.0138  0.0682
14918W        W28332   1.868   2.459  14.738  0.2024 -0.0742 -0.0895
14919W        W28333   7.853   8.249  15.284  0.1102  0.0574  0.1041
14920W        W28334  12.645   2.720   3.772 -0.1416  0.0419 -0.4874
14921W        W28335   1.177  16.265  13.697  0.1094 -0.2022  0.1162
14922W        W28336   8.923  11.466   5.437  0.0766 -0.1138 -0.1162
14923W        W28337  14.735   4.135   0.028 -0.0291  0.1838  0.1352
14924W        W28338   3.938   8.573  15.149 -0.2093  0.1642 -0.0195
14925W        W28339  16.017  10.682  14.393  0.1657  0.0404  0.0392
14926W        W28340   9.900   9.134   0.447 -0.0987  0.1861  0.3115
14927W        W28341  16.632   2.435   5.552  0.1323 -0.0851 -0.0833
14928W        W28342   3.058  14.967  11.558  0.0519 -0.2890 -0.3887
14929W        W28343   2.786  11.805   5.108 -0.0952  0.0186 -0.1106
14930W        W28344   2.373   9.200  11.554 -0.0443  0.4373  0.2655
14931W        W28345   3.798  13.617   4.265  0.0965  0.0857 -0.0121
14932W        W28346  12.310   4.471  11.350 -0.0259  0.0696 -0.1999
14933W        W28347  10.794   0.690  11.896 -0.0720 -0.1150 -0.0490
14934W        W28348   4.189   9.455   0.742 -0.0421 -0.1752  0.0433
14935W        W28349   5.339  13.455   5.252  0.0719  0.0328 -0.3243
14936W        W28350  10.540  13.840  11.010 -0.1869  0.2133 -0.2551
14937W        W28351   7.889   3.655  11.742  0.0913  0.0372  0.3062
14938W        W28352   1.307  14.945  11.753  0.2235 -0.0165 -0.1446
14939W        W28353   4.580   0.051  13.254 -0.1114 -0.0464  0.1809
14940W        W28354  12.740   8.086  12.098  0.1245 -0.1587  0.0777
14941W        W28355   1.617  11.417  14.735 -0.1113  0.0827  0.4284
14942W        W28356  14.197   1.731  16.131 -0.1672 -0.0096 -0.2683
14943W        W28357  10.766  15.749  11.842  0.1620 -0.2306 -0.1435
14944W        W28358  13.866  11.706  12.550  0.1019  0.1362  0.3221
14945W        W28359   3.121  15.023   3.422 -0.1115  0.3536  0.0059
14946W        W28360   0.907  11.228   0.150  0.3781 -0.0737  0.0124
14947W        W28361  11.793  10.251   2.656 -0.1106 -0.2268 -0.2828
14948W        W28362  16.302   6.868   1.783  0.1842 -0.2375 -0.0868
14949W        W28363   9.673   7.188   0.187  0.2652  0.1542 -0.2280
14950W        W28364  14.019  11.502   9.971 -0.0528 -0.0539 -0.1640
14951W        W28365  17.134   9.973  13.867 -0.0533 -0.0981 -0.2928
14952W        W28366  17.195  16.220   2.392  0.0871 -0.0875  0.1072
14953W        W28367   6.494   6.058   2.870  0.2836 -0.1371 -0.0126
14954W        W28368   6.029   3.547   2.908  0.1859 -0.2431 -0.1258
14955W        W28369  14.866   8.528  16.167 -0.0783  0.1637  0.1192
14956W        W28370  15.159   7.115   5.311 -0.3393  0.1184 -0.0255
14957W        W28371  11.745  12.870  11.808  0.2497  0.2308 -0.3072
14958W        W28372   7.227  17.307   3.040  0.1835  0.2553 -0.4182
14959W        W28373   1.506   8.225  14.722 -0.1384 -0.1376 -0.0160
14960W        W28374  17.285  13.682  14.985  0.0545 -0.1027 -0.1762
14961W        W28375  17.940  11.500   5.388 -0.2472 -0.0114 -0.2169
14962W        W28376   0.214   5.695  15.356  0.0704  0.1070  0.3117
14963W        W28377   1.501  12.688   2.363 -0.2502  0.0961  0.0413
14964W        W28378   9.641   3.597   3.138 -0.0912  0.2320 -0.2483
14965W        W28379   8.917   7.418   2.522 -0.1474  0.1704  0.3553
14966W        W28380   5.795  13.543   6.015 -0.2309  0.0056 -0.1162
14967W        W28381  17.804  14.788  12.429 -0.1776  0.1948  0.0413
14968W        W28382   3.794   2.257   2.853  0.2251  0.3494  0.0621
14969W        W28383  13.921   2.496   2.472  0.1548 -0.0099 -0.0647
14970W        W28384  15.030  16.230   5.248  0.1816 -0.0312 -0.3496
14971W        W28385  16.224  17.444   9.999  0.1058  0.1138  0.1208
14972W        W28386   8.366  17.623  11.239 -0.0530  0.2666  0.1096
14973W        W28387  10.572   9.662   3.245  0.2104  0.0821  0.2689
14974W        W28388  14.166  15.102   2.563  0.1008 -0.1299 -0.1706
14975W        W28389  14.992   9.134   2.953  0.2078  0.0039 -0.2034
14976W        W28390  15.949   2.087   1.777  0.0384  0.2697 -0.0957
14977W        W28391  10.413  15.277  14.329 -0.1278 -0.2988 -0.2473
14978W        W28392  15.459   7.375  14.964  0.1502  0.1321  0.0247
14979W        W28393   8.119   4.731  14.680 -0.1651  0.1654 -0.0495
14980W        W28394   1.302   6.511  15.434  0.0481  0.0976  0.1306
14981W        W28395  16.250   9.639  12.877  0.0259 -0.1969 -0.0722
14982W        W28396   4.306  13.282  11.289 -0.2241  0.2648 -0.0976
14983W        W28397   2.233  13.612  13.722  0.0645 -0.1827  0.1243
14984W        W28398   6.591  13.196  14.444 -0.0356 -0.0346 -0.0839
14985W        W28399   5.450  14.422   4.159 -0.1676 -0.1090  0.0175
14986W        W28400  11.910   1.547   4.144  0.3592  0.2216  0.0210
14987W        W28401  12.159  17.112  12.734 -0.0086  0.2503 -0.0320
14988W        W28402  13.954   7.524  15.936 -0.0751 -0.1569  0.1403
14989W        W28403  16.719   7.424   1.115  0.1153  0.1280  0.0897
14990W        W28404   3.228   5.570   0.829 -0.2335  0.1379 -0.0315
14991W        W28405  13.282   0.199   0.148 -0.3190 -0.2218  0.0701
14992W        W28406  14.540   5.427  10.590 -0.2784  0.0365  0.1350
14993W        W28407   7.506  15.189   2.674 -0.2022 -0.1777  0.1177
14994W        W28408  10.373   8.443   5.560 -0.0858 -0.1014  0.1756
14995W        W28409   2.692   5.678  15.406  0.0539 -0.0916 -0.0372
14996W        W28410   6.172   0.243   2.772 -0.0828 -0.0693  0.0323
14997W        W28411  16.687   5.535   1.219 -0.0414 -0.2194 -0.0627
14998W        W28412  13.706  14.020   1.445  0.0219  0.1938 -0.0317
14999W        W28413  17.251   7.894  15.283 -0.1161 -0.5256  0.1286
15000W        W28414   2.648   4.809  13.182 -0.1953  0.0335 -0.0555
15001W        W28415   7.458   5.552  14.225 -0.1296 -0.3941 -0.1346
15002W        W28416   8.055  18.237  11.617  0.0374 -0.0919  0.2096
15003W        W28417  10.759   7.291  13.079  0.0121  0.1084  0.0116
15004W        W28418  12.677  10.034   1.124 -0.3850  0.0324  0.0642
15005W        W28419  17.483   8.489   0.685  0.1553  0.2825  0.1989
15006W        W28420   3.123   0.913  15.520  0.2995 -0.3169 -0.1386
15007W        W28421   7.492   9.689   0.266 -0.0004 -0.1563 -0.3293
15008W        W28422   1.358   6.780   4.525  0.1282 -0.0736 -0.1290
15009W        W28423  11.486   5.796  12.485 -0.2290  0.0172  0.1788
15010W        W28424  16.612   4.299  15.095  0.0106 -0.1396  0.0496
15011W        W28425   7.547  15.952   1.073 -0.0144 -0.1490 -0.4014
15012W        W28426  15.612   6.197   3.063  0.1521 -0.0670  0.1860
15013W        W28427  11.530  18.243  16.262 -0.1838  0.1352 -0.2105
15014W        W28428  15.516   6.008   9.858  0.4039 -0.2284 -0.0117
15015W        W28429   5.373   4.962   5.267 -0.4910  0.0820  0.2269
15016W        W28430   1.863   0.566  13.061 -0.0019  0.0373 -0.0940
15017W        W28431  11.905  12.371   1.650  0.1103 -0.1284 -0.4136
15018W        W28432  15.703   5.304  11.705  0.1781 -0.2402 -0.2108
15019W        W28433   8.088   5.142   1.564 -0.1710 -0.0377  0.3634
15020W        W28434   1.259  12.252  13.183  0.4539  0.1192  0.1977
15021W        W28435  12.272   0.671   0.152 -0.0198 -0.1550  0.0715
15022W        W28436  16.091   4.528   2.581  0.2830 -0.4646 -0.1533
15023W        W28437   1.687  12.142  15.524  0.1317 -0.3665  0.2403
15024W        W28438  14.702  11.645   0.426 -0.0509  0.2524  0.0571
15025W        W28439  15.835   0.256  14.609 -0.1490 -0.2139 -0.0458
15026W        W28440   5.088   8.812  14.208  0.1324 -0.1381  0.0703
15027W        W28441   7.694   1.302   1.717 -0.2724 -0.0549  0.1386
15028W        W28442  12.405  17.547  12.937 -0.2632  0.0937  0.1516
15029W        W28443   1.506  14.095  11.599 -0.2097 -0.2010 -0.0522
15030W        W28444  15.866   2.929  12.888 -0.0881 -0.2812 -0.2197
15031W        W28445   8.786  11.974  13.604  0.2594  0.1122 -0.3169
15032W        W28446   3.652  14.603  12.405  0.0407  0.4202  0.0458
15033W        W28447  15.397  17.780   1.336 -0.1787  0.1107  0.2657
15034W        W28448  14.198   3.608  11.906  0.1174 -0.0637 -0.3391
15035W        W28449  11.336  18.132  11.320 -0.3530  0.0418 -0.1390
15036W        W28450   8.155   4.663   3.876 -0.1756  0.1745  0.0700
15037W        W28451  10.697  18.188  11.190 -0.3115 -0.1359  0.2798
15038W        W28452   0.307   7.376  11.758 -0.0620  0.2684 -0.1184
15039W        W28453   6.002  13.333  13.439  0.0649  0.1984  0.0332
15040W        W28454  10.702   2.654  13.231 -0.2135  0.0096 -0.0884
15041W        W28455   1.315   6.592   0.644 -0.1096  0.1220 -0.2868
15042W        W28456  16.630   7.724  14.433  0.3745 -0.1407 -0.1536
15043W        W28457   4.926  14.303  12.337 -0.2441  0.1420 -0.0744
15044W        W28458   3.627   2.864   0.087  0.2836  0.0443 -0.0552
15045W        W28459  14.924   3.499  13.834 -0.2980 -0.0897 -0.0414
15046W        W28460  18.036  12.344   4.343  0.1593 -0.0039 -0.3176
15047W        W28461   1.603   5.616   2.707  0.0612  0.2358  0.0849
15048W        W28462   9.995   9.905  15.251  0.2542  0.5461 -0.0364
15049W        W28463  15.506  15.969  14.564 -0.1866  0.1081 -0.1273
15050W        W28464   7.984  17.496  16.347 -0.0583 -0.3346  0.1800
15051W        W28465  13.862   6.076  15.870  0.0190  0.0294 -0.0871
15052W        W28466  12.587  11.874  12.331 -0.2373  0.0513 -0.1294
15053W        W28467   6.051   6.542   2.289  0.0673 -0.0910 -0.3409
15054W        W28468  11.127   9.626   1.857  0.1472  0.1986  0.0487
15055W        W28469  15.520  16.822   5.659 -0.2356 -0.0814  0.0483
15056W        W28470   4.397  14.160   6.318  0.0948  0.1119 -0.1251
15057W        W28471  11.489   6.617  12.170 -0.1900  0.1390  0.1987
15058W        W28472  10.449   3.665  14.140  0.3397  0.2176 -0.1075
15059W        W28473   9.883  15.714   5.246  0.2177  0.1034 -0.2714
15060W        W28474   6.309   4.567   4.307 -0.0613 -0.1816 -0.0883
15061W        W28475   1.337   3.921   5.440 -0.0407 -0.0255 -0.3837
15062W        W28476  14.834  14.675   1.520 -0.0514  0.4304 -0.1174
15063W        W28477  15.079  13.244   0.239  0.1014 -0.2829 -0.0481
15064W        W28478   4.271  13.068   2.630 -0.0101  0.0360  0.2063
15065W        W28479  17.255   3.039  10.948  0.0906  0.2290 -0.0480
15066W        W28480   5.016  13.924  11.161  0.4207  0.0457 -0.2262
15067W        W28481   6.100  16.428  15.253 -0.1224  0.1413 -0.0094
15068W        W28482  10.753   4.969   1.090  0.1509  0.0935  0.3660
15069W        W28483   0.178  17.511   6.114 -0.0560  0.1218  0.2439
15070W        W28484  14.064  16.139  14.513  0.2114 -0.1062 -0.0124
15071W        W28485   1.774   6.218   1.916 -0.1058  0.1024 -0.2931
15072W        W28486   3.031  13.383  12.318  0.0312  0.1575 -0.0097
15073W        W28487  15.085  14.870   4.489  0.0354  0.2482  0.3693
15074W        W28488  11.555   6.101  14.799  0.1163  0.1497 -0.2151
15075W        W28489   7.223  16.464  14.564  0.4756 -0.1486  0.0996
15076W        W28490  15.706   9.257   0.204 -0.0592  0.1130 -0.0090
15077W        W28491  11.026  16.241   0.447 -0.1199 -0.3679 -0.1912
15078W        W28492   8.956   6.145   6.463 -0.1457  0.0255  0.2977
15079W        W28493  13.983   3.734  14.094 -0.2621 -0.2027 -0.2449
15080W        W28494  10.236   2.676  13.736  0.3262  0.0221  0.0157
15081W        W28495  14.109  13.593   3.144 -0.1136  0.1358 -0.2258
15082W        W28496   5.996   0.177  11.880  0.0678 -0.2887 -0.1583
15083W        W28497  17.908   9.253   5.056  0.0398  0.1321  0.1536
15084W        W28498   6.682   8.646   3.328  0.1843  0.2299  0.1948
15085W        W28499   3.123   7.542   0.626 -0.1869 -0.4008 -0.1792
15086W        W28500   2.228   1.590   6.517 -0.2746 -0.0772  0.1138
15087W        W28501   1.951   8.333   5.572  0.0218  0.3322  0.0894
15088W        W28502  12.003   5.925   1.037  0.1547 -0.2733  0.3816
15089W        W28503   3.194   7.412   2.634  0.0620 -0.1839  0.0994
15090W        W28504  14.161  17.306  16.467  0.0691  0.0613  0.0775
15091W        W28505   2.078   7.800   0.646  0.0400 -0.2142 -0.2554
15092W        W28506  14.894  14.617   2.276  0.2709  0.0928 -0.2570
15093W        W28507  16.303   9.152   3.449 -0.1433 -0.0824 -0.0897
15094W        W28508  11.163  16.772   2.530 -0.2003  0.0203  0.1399
15095W        W28509   5.136   8.368   0.072 -0.2382 -0.0104  0.0789
15096W        W28510  10.160  16.902  14.157 -0.0343 -0.1247 -0.0555
15097W        W28511   1.355  12.534  11.460  0.0994 -0.1023  0.4770
15098W        W28512  10.939  10.259  12.010 -0.0013 -0.0340 -0.0249
15099W        W28513   4.426   8.079  13.841  0.0679  0.0422 -0.2509
15100W        W28514   5.331   0.921  12.189  0.0604  0.2595 -0.1060
15101W        W28515   6.462   0.314  11.836 -0.1386 -0.1280 -0.1413
15102W        W28516  14.401   9.453   1.802  0.0043  0.1756  0.0889
15103W        W28517  10.874   8.857  12.078  0.0421 -0.0198  0.1216
15104W        W28518  18.207  17.092   6.023 -0.2570  0.3464 -0.2360
15105W        W28519  14.351  12.514  12.684 -0.2114 -0.2029  0.2893
15106W        W28520  10.686   5.297   2.708  0.0758 -0.1730 -0.0541
15107W        W28521  15.709   5.634  16.485  0.2980  0.3294 -0.0825
15108W        W28522  16.532  14.977  15.668  0.1158 -0.0224  0.1542
15109W        W28523  15.602   2.926   3.174  0.0199 -0.1844  0.2368
15110W        W28524  13.159   4.762  10.909  0.2794 -0.2938  0.0575
15111W        W28525  11.163   5.961  13.385  0.4041 -0.0534  0.1801
15112W        W28526   2.196  17.945  15.818  0.1174  0.2438  0.1220
15113W        W28527  16.326   7.518   5.018  0.1153 -0.3272 -0.0672
15114W        W28528   2.144   4.315   4.282  0.0169 -0.4064 -0.2311
15115W        W28529  11.984  12.787  13.264  0.0376 -0.0103 -0.0089
15116W        W28530   5.889   1.216   6.137  0.0344 -0.0525  0.1119
15117W        W28531  13.541   4.333  12.955  0.0972  0.1101  0.1617
15118W        W28532   8.329  12.015   2.766 -0.2497  0.2447  0.1076
15119W        W28533   4.063  12.765   5.405 -0.1519  0.0629  0.0941
15120W        W28534   0.782  14.451  13.554 -0.0241 -0.2736  0.1386
15121W        W28535  14.643  12.748   2.537 -0.0139 -0.3477  0.1150
15122W        W28536   6.210  12.196  14.140  0.2027  0.1260  0.1071
15123W        W28537  15.558   3.750   2.326 -0.2158 -0.4979 -0.2307
15124W        W28538   5.055  13.787  11.707  0.2327  0.1338  0.0339
15125W        W28539   4.597  17.310  14.906 -0.0780 -0.0513  0.1714
15126W        W28540   5.538  11.752  12.563  0.2275  0.0615  0.1010
15127W        W28541  14.388  13.217  12.021  0.0271  0.1454 -0.2062
15128W        W28542  14.045   6.445   0.872  0.1136 -0.0339 -0.3342
15129W        W28543  10.725  15.254  14.867 -0.1684 -0.1477  0.1424
15130W        W28544  12.032  11.745  16.471 -0.3692 -0.0094 -0.0543
15131W        W28545   3.474  16.946   0.146  0.0991 -0.5393  0.1789
15132W        W28546   1.935   9.818   4.439  0.0230  0.1186  0.1812
15133W        W28547   1.740   9.997   3.947 -0.0120  0.1450  0.0472
15134W        W28548  15.349   7.600  12.581 -0.0715 -0.0186 -0.2954
15135W        W28549  10.742   7.721  13.357 -0.0543 -0.1993 -0.0330
15136W        W28550  10.072   8.733   5.773  0.0515  0.1623 -0.2344
15137W        W28551   0.952   2.568  16.007 -0.1941 -0.3306  0.0840
15138W        W28552  10.934   0.131   6.391  0.2319 -0.2410  0.0465
15139W        W28553   2.001  10.903   1.552 -0.3784 -0.0586 -0.0169
15140W        W28554   1.297  13.862  12.096 -0.1138 -0.1586 -0.1302
15141W        W28555  13.290   0.553  15.850 -0.0576 -0.2753  0.0727
15142W        W28556   2.726  12.298   1.332 -0.1462 -0.0082 -0.2131
15143W        W28557  13.958  17.094  14.456 -0.3693  0.4421  0.1262
15144W        W28558   4.292  13.494   5.008 -0.0191 -0.0892 -0.0915
15145W        W28559   8.491  12.307   1.403  0.1933  0.0690  0.0535
15146W        W28560   3.863  15.469   5.370 -0.2767  0.2370 -0.0514
15147W        W28561   2.255  16.282  12.351 -0.0264  0.1521  0.1273
15148W        W28562   0.211   9.954   5.675 -0.1276  0.2065  0.1576
15149W        W28563   6.267   9.854   1.968  0.0574  0.4139  0.1045
15150W        W28564   8.037  13.927  14.875  0.1700  0.2406  0.0251
15151W        W28565   9.013   9.645   5.683  0.1740 -0.0757  0.3423
15152W        W28566  17.182  13.295  15.415 -0.1440 -0.0587  0.0059
15153W        W28567   1.751  12.573  12.033  0.2475 -0.2475  0.2787
15154W        W28568  18.092  15.054  11.083 -0.1156  0.1694  0.0776
15155W        W28569  16.478   1.418  11.049 -0.2165 -0.0157 -0.1127
15156W        W28570   3.231  12.697   4.269 -0.2356 -0.2029 -0.0192
15157W        W28571   0.789   9.219   1.496  0.1413 -0.0401 -0.1264
15158W        W28572  16.574   3.732   3.017  0.0529 -0.0219  0.3294
15159W        W28573  18.032   5.644  15.073 -0.1407 -0.1967  0.0961
15160W        W28574   7.259  13.202  13.896  0.0390  0.0446  0.0381
15161W        W28575  18.213   3.655  12.441  0.1652 -0.2731  0.2472
15162W        W28576  18.198  10.550  13.686 -0.0601  0.0089  0.1240
15163W        W28577  16.577   6.970   1.320  0.0349  0.4391  0.0300
15164W        W28578  13.890   9.375   1.064 -0.0922 -0.1219 -0.2378
15165W        W28579  16.871  14.564   4.331 -0.1220 -0.0751 -0.0871
15166W        W28580  12.477  16.406  15.966  0.0296  0.2900 -0.0312
15167W        W28581   7.847   6.626  12.066  0.2062  0.3216  0.1770
15168W        W28582   9.997   3.513  15.200  0.1238 -0.0225  0.2678
15169W        W28583   9.323   2.498   2.181  0.0797 -0.0193  0.1481
15170W        W28584  15.621   3.478   0.996 -0.1367 -0.0029  0.0286
15171W        W28585  13.794  12.380  15.512  0.1195  0.1219  0.0646
15172W        W28586  15.572  12.191  13.626  0.2019 -0.2170  0.0227
15173W        W28587   1.293   3.180  14.525 -0.0002  0.2253 -0.1263
15174W        W28588   1.903   9.337  13.037 -0.0632  0.1421 -0.0097
15175W        W28589   6.293  12.297   4.997 -0.0728 -0.1828  0.1025
15176W        W28590   3.139   9.526  15.870 -0.2262 -0.1368 -0.2146
15177W        W28591  11.016   5.388  13.037  0.3095  0.0489  0.0726
15178W        W28592   2.165   6.289  12.124  0.0094 -0.2505  0.0823
15179W        W28593  14.880  10.781   0.654 -0.0568  0.1524  0.0221
15180W        W28594   6.705  14.854  11.705 -0.3342  0.0427  0.0017
15181W        W28595   3.592  10.169  11.801  0.1292  0.2230  0.0919
15182W        W28596   0.627   8.073  10.378 -0.2380 -0.2165 -0.1302
15183W        W28597   1.926   1.070  13.047  0.0169  0.1057 -0.1101
15184W        W28598   4.369   0.117   5.955  0.2921 -0.3625 -0.0275
15185W        W28599   0.185   6.216   3.144  0.1895  0.3068  0.0127
15186W        W28600  17.708   9.222  11.816 -0.3581 -0.3746 -0.2537
15187W        W28601   9.911   2.540   2.018 -0.1586  0.0760  0.2816
15188W        W28602  10.558  14.567   4.257  0.0323  0.2071  0.1239
15189W        W28603   4.604   8.032   0.559 -0.0007 -0.1149  0.0184
15190W        W28604   4.585   3.150  12.804  0.0485  0.0313 -0.0130
15191W        W28605   8.923  17.369   0.680 -0.2134  0.2595 -0.2304
15192W        W28606  15.819   7.346  13.897 -0.1431 -0.1180 -0.4720
15193W        W28607   9.994  15.151  10.537  0.3128 -0.0560  0.1772
15194W        W28608   3.534   7.418   3.076  0.1605 -0.3767  0.0017
15195W        W28609   1.472   1.029   0.303  0.0803  0.1132  0.3242
15196W        W28610  11.869   8.066   0.787 -0.1223 -0.0803 -0.1564
15197W        W28611   9.153  17.870  13.067  0.0695 -0.1210  0.2048
15198W        W28612   9.826  15.992   6.355  0.1592  0.0109  0.2067
15199W        W28613   7.951   6.359  14.311 -0.3862  0.1219 -0.0005
15200W        W28614  10.149   2.318   5.166 -0.1214  0.2032  0.1473
15201W        W28615  15.220   9.996  12.151 -0.0763 -0.0490  0.3321
15202W        W28616   5.931   2.112   3.072 -0.1530  0.1191 -0.3226
15203W        W28617   6.512  13.216  11.113  0.0461  0.0569 -0.1009
15204W        W28618  14.351   7.742  14.194  0.1859 -0.1786 -0.1972
15205W        W28619   2.136  14.621   0.308 -0.1591 -0.0889  0.0299
15206W        W28620   5.312   5.664   1.720  0.0882  0.2140  0.1778
15207W        W28621   1.163   2.232   3.299  0.2006  0.0032 -0.0619
15208W        W28622  12.661  11.251  13.187  0.2611  0.0304  0.1173
15209W        W28623  17.852  13.073  14.105 -0.0410 -0.0174 -0.1829
15210W        W28624  15.797   1.915  11.311  0.0759 -0.0854 -0.0721
15211W        W28625   1.404   3.544  13.534 -0.3186  0.3322  0.0673
15212W        W28626   1.210  15.342  16.090  0.3137 -0.0979 -0.1551
15213W        W28627   2.423  12.640   2.051 -0.0146 -0.0756  0.0810
15214W        W28628  14.482  16.970   6.045 -0.0596 -0.5253  0.4466
15215W        W28629  10.032   8.039   3.982  0.0095  0.0911 -0.2870
15216W        W28630   9.470  13.867  16.236 -0.1492 -0.2268  0.3463
15217W        W28631   5.226  17.448   4.578  0.0190  0.0711 -0.0620
15218W        W28632  11.004  15.999   1.952  0.0011 -0.1066  0.0215
15219W        W28633   7.353  15.644   1.409  0.1521  0.1493  0.1327
15220W        W28634   2.176   2.686   1.358 -0.1097 -0.1863  0.0024
15221W        W28635   9.978  18.164  10.854  0.2295 -0.0302 -0.2689
15222W        W28636   0.225  15.574  12.943 -0.0191  0.1885  0.0995
15223W        W28637   1.038   4.343   6.056 -0.0741 -0.1004  0.1995
15224W        W28638   7.998  11.365   0.867 -0.1639  0.1204  0.1369
15225W        W28639   2.463   5.874   2.205 -0.0675 -0.0574 -0.0692
15226W        W28640   3.250  10.709  15.218  0.2137  0.1201 -0.0737
15227W        W28641  17.907   2.260  15.433  0.2169 -0.2790  0.0162
15228W        W28642   5.759  14.356   5.425 -0.0787  0.1801 -0.3927
15229W        W28643   8.078  13.599  12.091 -0.0104  0.1654  0.0982
15230W        W28644  17.594   8.088  15.689 -0.1387  0.0802 -0.1519
15231W        W28645  15.085  17.837   4.040  0.0839 -0.2778 -0.1769
15232W        W28646   6.882   5.250  10.767 -0.0198  0.0836 -0.2695
15233W        W28647   3.096   1.159   5.962 -0.0182  0.2834 -0.2216
15234W        W28648   4.696  15.465   3.175  0.1113 -0.2642  0.0348
15235W        W28649  12.451  13.267   4.027  0.2452  0.0221 -0.1597
15236W        W28650  18.065  12.781  14.738 -0.3153  0.2556 -0.1431
15237W        W28651  14.443   3.023   0.589 -0.1477 -0.0264  0.0796
15238W        W28652  10.681   0.119   0.845  0.1750  0.0628 -0.2753
15239W        W28653  13.045  17.655  14.091 -0.0440  0.3310  0.2888
15240W        W28654   4.523  17.443  14.340 -0.4950  0.0312 -0.1420
15241W        W28655   9.734  14.292  16.121  0.3667  0.2830  0.2674
15242W        W28656  15.528  14.507   0.943  0.1673  0.0052  0.1109
15243W        W28657   2.770  14.164   3.350  0.0341  0.0162  0.0470
15244W        W28658  10.942  12.736  10.345 -0.1293  0.1061 -0.1102
15245W        W28659  12.078  15.324   4.226  0.2507 -0.0771  0.0927
15246W        W28660   6.568   8.564   4.753  0.1990  0.2235 -0.1071
15247W        W28661   9.787   6.551   2.647  0.0984 -0.0172  0.0190
15248W        W28662  11.666  12.819  13.781  0.0601 -0.0105 -0.0480
15249W        W28663  15.475   4.320  10.596  0.1903 -0.3036  0.0939
15250W        W28664   2.523  14.409  11.776  0.1766 -0.2629  0.1361
15251W        W28665  17.854   7.949   2.563  0.1224  0.2591 -0.0367
15252W        W28666  16.595   8.753   3.588 -0.1357  0.0431 -0.0807
15253W        W28667  11.741   9.881  10.022 -0.0109 -0.0411 -0.1537
15254W        W28668   5.425  16.253  15.874 -0.1636 -0.0329  0.0177
15255W        W28669   9.297   7.093  15.607  0.1500 -0.0077 -0.3465
15256W        W28670   4.167   0.653   5.150 -0.3094 -0.1324  0.0296
15257W        W28671  16.340  10.358  14.036 -0.0078  0.1862 -0.1826
15258W        W28672  17.717   0.854  13.013 -0.0163  0.0838 -0.2104
15259W        W28673  13.366  17.788   3.759 -0.1942 -0.0056  0.3257
15260W        W28674   1.679  14.661   4.981 -0.0861 -0.2622  0.0535
15261W        W28675   2.341   6.575  13.495  0.0710  0.3951 -0.1778
15262W        W28676   5.288  16.933  12.988 -0.1211 -0.1303  0.0193
15263W        W28677  10.012  12.784   2.826  0.4120  0.1895  0.0362
15264W        W28678  13.374   7.576   2.645 -0.0169  0.1508  0.0618
15265W        W28679   7.677  10.868   4.043  0.0632  0.1822  0.1222
15266W        W28680   1.678   8.400   0.942 -0.1526  0.0101  0.1868
15267W        W28681   3.423   2.601  11.552 -0.2964 -0.0956 -0.1810
15268W        W28682  17.183  13.893  11.924 -0.0049 -0.2468  0.0199
15269W        W28683   9.394   6.784  14.786  0.1309  0.1348  0.1183
15270W        W28684  17.798  16.005  13.169  0.3618 -0.1898  0.1149
15271W        W28685   3.633   4.667  15.284  0.0036  0.1845 -0.2880
15272W        W28686  14.781   6.620  12.741  0.3607  0.1217 -0.2334
15273W        W28687  11.395  12.410   1.593  0.1333 -0.1571 -0.0824
15274W        W28688  11.700   7.490  10.462  0.2872 -0.0231  0.0825
15275W        W28689  15.697  10.161  11.345  0.1402  0.2908  0.1617
15276W        W28690   9.430  14.861  12.739  0.1074 -0.0290 -0.0343
15277W        W28691  16.145   6.841  16.058 -0.1768 -0.2995  0.3890
15278W        W28692   2.037  10.817  12.973 -0.0605 -0.3018 -0.0801
15279W        W28693   0.587   8.773  13.195  0.0048 -0.1191 -0.2393
15280W        W28694   3.944  11.213   3.311 -0.0916 -0.0313 -0.1248
15281W        W28695  14.809  17.926  14.741  0.0111 -0.3510 -0.1957
15282W        W28696  11.909   5.434   2.595  0.1112 -0.0255 -0.0513
15283W        W28697  16.108  10.743   1.364 -0.0635  0.1116  0.2691
15284W        W28698  10.827  16.337   1.623 -0.0442 -0.0331 -0.0024
15285W        W28699  13.980   5.527   2.416 -0.1713 -0.3735 -0.0567
15286W        W28700  14.239  13.519   2.213 -0.1132  0.2588  0.3279
15287W        W28701  15.802  15.176   2.449 -0.2310  0.4428 -0.0991
15288W        W28702   6.808   6.021  11.359 -0.3902  0.1097  0.1026
15289W        W28703  16.953  11.082   0.518  0.0095  0.0392  0.1293
15290W        W28704   1.223  11.978  15.312 -0.0716  0.0458  0.1718
15291W        W28705   9.081   5.712   1.278  0.0723 -0.0735 -0.2688
15292W        W28706   0.609   8.365  16.149 -0.0111  0.0747 -0.2080
15293W        W28707  18.072   3.907   5.353  0.0112  0.4913  0.0603
15294W        W28708  12.934   3.119  16.309  0.0410 -0.0103  0.0373
15295W        W28709  18.050   5.687  10.403 -0.1674  0.0251 -0.2210
15296W        W28710   8.797   7.060  11.316 -0.0158  0.0004  0.1519
15297W        W28711  16.623   8.532   5.831  0.1479 -0.3704  0.0091
15298W        W28712   6.504   5.654  11.494  0.4288 -0.0679 -0.1265
15299W        W28713  15.980   4.557  11.395 -0.0592  0.0820 -0.0239
15300W        W28714  15.699   0.990  11.778  0.2718  0.2974  0.0610
15301W        W28715  12.807   6.274  10.289  0.4663 -0.1221  0.1874
15302W        W28716   0.704   7.479   6.396  0.1308 -0.0525  0.1327
15303W        W28717   3.509   7.251   0.374 -0.3686  0.3370  0.0629
15304W        W28718  14.663   9.391  14.785  0.3338  0.3328  0.0024
15305W        W28719  12.492   9.056   0.666 -0.0766  0.2134 -0.3572
15306W        W28720   8.426  15.978  14.687 -0.3136 -0.0587  0.2653
15307W        W28721   4.450   5.709   2.092  0.1054 -0.0843  0.2517
15308W        W28722   2.652   2.110   3.416  0.1166 -0.1666  0.1530
15309W        W28723  13.508  15.561   4.987 -0.3078  0.1928 -0.1484
15310W        W28724   7.838  15.845  15.858  0.1561 -0.0825  0.0268
15311W        W28725   8.217  17.991   4.881 -0.2455 -0.1114  0.1678
15312W        W28726  13.524   1.273  11.063  0.0659  0.0847  0.2419
15313W        W28727  14.628   0.785   0.250  0.1706 -0.0007  0.0507
15314W        W28728   0.712  16.973   1.399 -0.0182  0.1685 -0.1566
15315W        W28729   9.545  14.983   1.077 -0.2642 -0.3907 -0.3075
15316W        W28730   2.523   7.051  10.885  0.0771  0.1798  0.2992
15317W        W28731   0.197  16.912  11.974 -0.3007  0.2676  0.0561
15318W        W28732  16.129   2.491   2.037  0.3181 -0.0224  0.0031
15319W        W28733   2.124   3.398  12.546 -0.0029  0.4324 -0.1131
15320W        W28734   7.700  16.155   3.329 -0.0838 -0.0058 -0.1345
15321W        W28735  15.074  17.036   4.531 -0.0877 -0.1573 -0.1923
15322W        W28736  15.935   0.197   5.896 -0.1064  0.3219 -0.0154
15323W        W28737  18.145   1.827  16.120 -0.3950 -0.0026  0.2348
15324W        W28738   7.646   8.364   2.706 -0.0615  0.3549 -0.1119
15325W        W28739  17.559  16.234  16.227 -0.0077 -0.0015 -0.0121
15326W        W28740  14.128   5.616   2.943 -0.1415 -0.4234  0.4597
15327W        W28741   7.894   8.250   4.624 -0.0617 -0.0892 -0.0834
15328W        W28742  17.543  13.454   1.834  0.1665 -0.2367 -0.0755
15329W        W28743   9.385   0.488   5.017 -0.1199 -0.4824  0.4029
15330W        W28744   6.142  17.117  11.252  0.2236  0.0620 -0.0906
15331W        W28745  17.249  12.461  15.119 -0.0959  0.0007 -0.2446
15332W        W28746  15.898   5.794   3.059  0.0464  0.1661  0.0150
15333W        W28747  14.741  12.121   5.826 -0.3348  0.0563 -0.0593
15334W        W28748  10.522   8.272   3.405  0.2302 -0.2174 -0.2287
15335W        W28749  13.261   5.889   0.498  0.1121 -0.0455 -0.0492
15336W        W28750  10.809   6.933  16.321  0.3646  0.0895 -0.0033
15337W        W28751   6.380   2.522   5.491  0.4432 -0.1220  0.2052
15338W        W28752  16.146   1.352  15.655 -0.0107  0.0821 -0.0973
15339W        W28753   2.644  14.504  12.286  0.0276 -0.1539 -0.0785
15340W        W28754  15.028  13.498   3.045  0.0441  0.0944  0.0624
15341W        W28755   4.167   5.023   1.449 -0.1097 -0.0830  0.2250
15342W        W28756  10.827  15.490   0.169  0.3487  0.2315 -0.1025
15343W        W28757  13.636   6.293   0.621 -0.0754  0.0968 -0.0727
15344W        W28758   1.442   0.370  12.366  0.4203  0.1267  0.1056
15345W        W28759   8.007  10.014  15.869  0.1313 -0.0725 -0.0655
15346W        W28760   8.578  13.307   5.177 -0.1711  0.0601  0.4462
15347W        W28761   3.786   6.044   3.101  0.0226 -0.0844 -0.0506
15348W        W28762   1.621   0.190  14.952 -0.0519  0.2620  0.0251
15349W        W28763   8.207  17.335  15.151 -0.2525  0.2514  0.0791
15350W        W28764  10.722   4.933   3.871  0.0527 -0.0131 -0.0831
15351W        W28765   9.712  13.168  15.717  0.0514  0.1957 -0.0809
15352W        W28766  10.988   8.979   0.334  0.0764 -0.3840  0.1856
15353W        W28767  13.714   9.119   3.939 -0.2721  0.4154 -0.2577
15354W        W28768   5.317  14.696  11.362  0.0913 -0.1921 -0.2260
15355W        W28769   0.101  14.030   0.372  0.0957 -0.0094 -0.2161
15356W        W28770   8.528  15.338  10.831 -0.1005 -0.0977  0.1435
15357W        W28771   4.981   8.579  12.602  0.3445  0.2292  0.0168
15358W        W28772  11.220  13.487   1.346  0.1980 -0.1185 -0.0981
15359W        W28773   2.181  10.453   3.018  0.0726 -0.0530  0.5276
15360W        W28774   6.994   4.563   1.169 -0.2467 -0.0815 -0.2506
15361W        W28775  13.638  13.430  13.554  0.0776 -0.0778  0.3007
15362W        W28776  16.218  14.725  12.459 -0.1959  0.0844  0.2732
15363W        W28777   3.094   2.680  16.416  0.0255 -0.0153 -0.0227
15364W        W28778  11.249   6.154  12.227  0.2157  0.0840 -0.2121
15365W        W28779   0.418  11.285   2.284 -0.0801  0.1824 -0.1339
15366W        W28780  17.926  11.638  13.156  0.2352  0.1243  0.1322
15367W        W28781   3.658  13.751  14.460  0.0624 -0.1831 -0.0507
15368W        W28782   3.922  17.022   1.405  0.0843 -0.0327  0.1387
15369W        W28783   6.980  17.541   5.211  0.0995 -0.1217 -0.1071
15370W        W28784   4.034   4.971  15.490 -0.1539 -0.0884  0.4498
15371W        W28785  13.012  10.876   1.171 -0.2258  0.2897 -0.1155
15372W        W28786   3.345   4.721   5.733  0.1554  0.1666 -0.0048
15373W        W28787  15.656  12.904  15.733  0.2716 -0.2479  0.1939
15374W        W28788   9.117  18.032  15.987  0.0300  0.1376  0.0078
15375W        W28789  17.877   3.656   3.427 -0.0104  0.1469  0.0549
15376W        W28790   8.143  10.666  12.175 -0.0423 -0.2207 -0.3799
15377W        W28791   9.467   8.281  13.001  0.1551 -0.1451 -0.0666
15378W        W28792   5.816   1.281   0.430 -0.1618 -0.0717 -0.1652
15379W        W28793  10.351  11.292  14.261 -0.0574  0.0078  0.1537
15380W        W28794  10.722  17.136   4.780  0.0435  0.0623  0.2264
15381W        W28795  17.148  12.481  14.557 -0.2504 -0.0652 -0.1587
15382W        W28796  10.655   4.235   1.887 -0.1538  0.1987 -0.1610
15383W        W28797   2.338   5.047  14.351  0.2412  0.3437  0.2201
15384W        W28798   2.640  11.575  14.294  0.0667  0.2234 -0.2122
15385W        W28799   8.257   6.348   5.162  0.1231 -0.1248  0.2604
15386W        W28800  14.537   6.926   6.048 -0.0139 -0.1283  0.0020
15387W        W28801  10.481  11.480  11.595 -0.1377 -0.1001 -0.1388
15388W        W28802  15.440   7.089   3.965 -0.2596 -0.0851  0.0929
15389W        W28803  16.691  15.939  11.409  0.0429  0.5118  0.1263
15390W        W28804  15.127  14.622  14.354 -0.1697 -0.2792  0.0366
15391W        W28805   5.069  17.125  13.453  0.0867  0.2058 -0.2147
15392W        W28806  10.021  11.850  14.965  0.0963  0.1653  0.1160
15393W        W28807   4.942  12.228   0.958 -0.1464 -0.1352 -0.1623
15394W        W28808  17.584   0.184   0.394 -0.2155 -0.0880  0.0470
15395W        W28809   0.468  14.399  12.718  0.2114  0.1294  0.2676
15396W        W28810  14.440  14.470  16.094  0.2533 -0.4071  0.0300
15397W        W28811  12.091   1.424  15.644 -0.1378 -0.1584 -0.1920
15398W        W28812  17.128  17.502   5.574  0.0616  0.1345 -0.0706
15399W        W28813   7.233   1.345   4.773 -0.0121  0.1694 -0.3862
15400W        W28814   4.087  13.896  13.581  0.0863 -0.1398  0.2987
15401W        W28815   9.631   6.172  16.013  0.1246 -0.1103 -0.2034
15402W        W28816   4.288  15.606  11.685  0.1299  0.0600  0.0388
15403W        W28817   0.951  10.582  11.260  0.0017 -0.2065  0.0650
15404W        W28818   1.587  10.376  11.591  0.0539 -0.0811  0.0649
15405W        W28819   4.992  18.070   1.596 -0.1915 -0.0320  0.0009
15406W        W28820  16.383   1.854  12.404 -0.0816  0.2204  0.1096
15407W        W28821   9.888  15.195  14.346  0.0957  0.0727 -0.0258
15408W        W28822  11.052   3.747   5.640 -0.1278 -0.2791  0.1231
15409W        W28823   7.064   7.063   3.900  0.0610 -0.0592 -0.2731
15410W        W28824  11.790  17.529  10.663 -0.0776  0.1237  0.1546
15411W        W28825  15.004   7.865   3.715 -0.0560 -0.0048  0.0387
15412W        W28826  11.728   4.020   2.158 -0.0361  0.2631 -0.4406
15413W        W28827  13.339  14.850   3.957 -0.0709  0.1112 -0.2477
15414W        W28828   8.177   5.491  16.294  0.1804 -0.1457 -0.1155
15415W        W28829   2.987   2.720   4.085 -0.1545 -0.3594 -0.0020
15416W        W28830   1.199   5.602   2.423  0.1813 -0.0284  0.1674
15417W        W28831   6.800   2.790   4.636  0.1050 -0.2686  0.2848
15418W        W28832  17.367   6.680  11.940 -0.1065 -0.2535 -0.0710
15419W        W28833   2.110   7.944   3.012 -0.0998 -0.0408 -0.2144
15420W        W28834   8.618  10.963   4.587  0.2445  0.0331 -0.2617
15421W        W28835   4.794  16.660   1.415 -0.0317 -0.0302 -0.0887
15422W        W28836  11.766  17.818   3.896  0.3234  0.4507  0.1106
15423W        W28837   1.081  12.229   4.090  0.3444 -0.2809 -0.1699
15424W        W28838  12.124  15.472   5.134  0.2450  0.0446 -0.1163
15425W        W28839   1.825   3.644  12.225 -0.1275 -0.1072 -0.2979
15426W        W28840  14.901  18.022   0.970  0.1381  0.0674 -0.2487
15427W        W28841  11.005   7.800   0.990  0.0471 -0.0146  0.0192
15428W        W28842   7.528   8.040   6.356 -0.0037 -0.0193  0.0755
15429W        W28843  12.042   2.748  12.426 -0.1923  0.0827  0.0014
15430W        W28844  11.994   6.342   2.287  0.0979  0.0442  0.0977
15431W        W28845  13.909  18.116  15.920 -0.2368 -0.1093  0.3334
15432W        W28846  13.908  13.727  11.359  0.1198 -0.0677 -0.1538
15433W        W28847  16.422  14.536   5.179 -0.1118 -0.2002  0.1585
15434W        W28848   4.905   0.655  11.441 -0.2346  0.0586 -0.1846
15435W        W28849  16.984   1.054  12.371  0.0354 -0.0184  0.0808
15436W        W28850  17.514   0.554   0.722 -0.0796  0.0772 -0.0443
15437W        W28851  16.063  12.817   3.293 -0.0685  0.0819  0.0772
15438W        W28852  14.456  14.917   3.292  0.0572  0.0965 -0.0025
15439W        W28853  11.572   0.013  12.488  0.2371 -0.0369  0.0974
15440W        W28854   1.576  13.970   0.496  0.1384  0.1249  0.0895
15441W        W28855   4.329  11.003  16.439  0.1144 -0.4364 -0.1564
15442W        W28856   2.725   6.055   0.609  0.2372  0.2556 -0.1027
15443W        W28857  16.847   8.053   0.132 -0.0499  0.3969 -0.2932
15444W        W28858  16.805  17.887   4.721  0.2288  0.0267 -0.3515
15445W        W28859  10.319   4.009   4.929  0.1240  0.0512  0.2165
15446W        W28860  13.160   6.545  12.026 -0.1035 -0.2514 -0.3865
15447W        W28861  12.892  11.870  12.778 -0.0695 -0.5134  0.3881
15448W        W28862  17.088  13.615   6.473  0.1140 -0.0672  0.0869
15449W        W28863  10.518   8.170  12.169 -0.3447 -0.0864 -0.2193
15450W        W28864  12.710  17.165   6.363  0.0477 -0.1637  0.0781
15451W        W28865   5.585   4.150   2.138 -0.0608 -0.0567  0.0954
15452W        W28866  10.194  12.767  12.952  0.0721  0.2644  0.2571
15453W        W28867   7.443   9.801  10.120 -0.0539 -0.1008  0.0432
15454W        W28868   8.244  16.282   2.374  0.2141 -0.0040  0.3658
15455W        W28869  14.018  13.944   2.208  0.1139 -0.2416 -0.1520
15456W        W28870   2.941  17.889  12.717 -0.1777 -0.0128 -0.2907
15457W        W28871  13.271   9.728  10.609  0.0179  0.0337  0.2123
15458W        W28872   9.483   3.310  15.263  0.1682 -0.0286  0.0932
15459W        W28873   7.742   4.759   0.508 -0.1640 -0.1348  0.0273
15460W        W28874  15.870  11.674  16.276  0.1919  0.0447 -0.0045
15461W        W28875  17.878   3.542  10.984 -0.1579  0.3086  0.0329
15462W        W28876  16.193  10.422   2.566  0.1570  0.1009  0.0395
15463W        W28877   1.529  17.804   2.563  0.1665  0.2880  0.1082
15464W        W28878  14.281   5.957   2.615 -0.0823 -0.0624 -0.1446
15465W        W28879   5.886   7.665   5.560 -0.0574  0.0812 -0.0358
15466W        W28880   8.802   5.227  13.291  0.3540  0.0866 -0.0267
15467W        W28881   0.341   5.954   2.619  0.2579 -0.2284  0.0668
15468W        W28882  14.487  17.546  16.204  0.3273 -0.3980 -0.0333
15469W        W28883  10.702  11.040  10.476 -0.4384 -0.1736  0.0784
15470W        W28884   2.632   4.484  15.317 -0.2623  0.0047  0.0548
15471W        W28885  13.296  17.279  15.780 -0.1357  0.0055  0.1337
15472W        W28886  18.253   4.186  15.861 -0.0697 -0.0894 -0.0540
15473W        W28887   4.656  12.724   4.688 -0.0147  0.2558 -0.3384
15474W        W28888   1.641  14.837  13.627 -0.0785  0.1460  0.2440
15475W        W28889  17.515   2.000   1.981  0.1549 -0.2320 -0.1582
15476W        W28890  14.459   1.735  11.090 -0.1481  0.0240 -0.0318
15477W        W28891   7.294   9.821  11.887  0.2233  0.2032  0.1437
15478W        W28892  16.658   5.457  15.360 -0.3579 -0.1407 -0.1994
15479W        W28893   5.179   0.835  16.311  0.1835 -0.2695 -0.2242
15480W        W28894   1.141   0.255   3.210  0.1358  0.0753 -0.0422
15481W        W28895  10.789  14.647  15.433 -0.2848 -0.1684 -0.0723
15482W        W28896  11.988   7.330   5.518  0.3861  0.2049 -0.1792
15483W        W28897  14.862  13.400  14.999 -0.1135  0.0491 -0.1468
15484W        W28898  11.325  10.783   2.494  0.3117  0.0480 -0.0595
15485W        W28899  17.191   9.241  12.090 -0.1479 -0.1299 -0.0754
15486W        W28900   4.316  11.773  13.950 -0.2135 -0.2225  0.0458
15487W        W28901   1.922   2.544   2.862 -0.2040  0.3108 -0.1484
15488W        W28902   1.023   6.446  10.558 -0.1457  0.1501 -0.0255
15489W        W28903   7.296   0.957   3.768  0.0821 -0.1473  0.0903
15490W        W28904   4.101   8.586  11.795 -0.0582  0.0679 -0.0238
15491W        W28905  14.678  18.049   1.698 -0.1747 -0.1551  0.3888
15492W        W28906  15.844  13.356  15.887 -0.0014  0.0646 -0.1832
15493W        W28907   5.571  12.224  12.597 -0.3338  0.1823 -0.0955
15494W        W28908   7.888   7.545   2.565 -0.3955 -0.2264 -0.0778
15495W        W28909   4.276  16.497  13.738 -0.2301  0.0403 -0.0327
15496W        W28910  15.186   0.694  11.542  0.1078  0.0108 -0.0806
15497W        W28911   3.239  10.810   5.877  0.0156  0.1024  0.0480
15498W        W28912   8.497   9.330  15.184 -0.3263 -0.1795  0.2079
15499W        W28913   0.426   3.804  11.181 -0.0680  0.0912 -0.1055
15500W        W28914   0.474  15.896   3.684  0.0652 -0.2207  0.1413
15501W        W28915   5.226   6.289   5.736 -0.1663  0.0466 -0.3874
15502W        W28916   4.728   1.113  12.237 -0.0656 -0.0370 -0.1209
15503W        W28917  17.649   1.700   3.619  0.0771 -0.0071  0.0447
15504W        W28918   6.959   2.048   0.781 -0.1669 -0.1751 -0.0358
15505W        W28919  15.586  16.446  12.982  0.1381 -0.1948  0.2306
15506W        W28920   3.350  11.304  14.017  0.0660 -0.0195 -0.1910
15507W        W28921   9.654  15.087  14.840 -0.0889 -0.0091 -0.1453
15508W        W28922  18.249   3.473   5.539  0.1089  0.0415 -0.0806
15509W        W28923  15.885   6.566  14.482  0.0625 -0.1898  0.0574
15510W        W28924   3.769  11.075   4.003 -0.1649  0.1026 -0.0316
15511W        W28925   4.866  14.759   1.362 -0.0176 -0.0075  0.2080
15512W        W28926   7.302  10.139  15.179 -0.3089  0.0270  0.0063
15513W        W28927  13.448   9.542  11.032  0.1872 -0.0629 -0.0648
15514W        W28928   8.728  11.012   5.684  0.0602 -0.1356  0.0096
15515W        W28929  10.699  11.268   9.974  0.0570 -0.0688 -0.1075
15516W        W28930   4.912   6.476   2.671  0.1578  0.0578  0.3198
15517W        W28931   8.825   2.176  11.895 -0.1795  0.2584  0.1555
15518W        W28932  11.592  17.276  14.379 -0.0445  0.0047  0.3011
15519W        W28933  14.273  12.002   9.831  0.0840  0.1576 -0.0968
15520W        W28934  10.025   5.838   5.511 -0.1303  0.2189  0.0568
15521W        W28935   1.028   6.759  11.801 -0.0698  0.0616 -0.0170
15522W        W28936   0.704  14.624  11.203 -0.2047  0.2969 -0.1057
15523W        W28937   5.609  11.019  11.947  0.0479 -0.3303  0.2077
15524W        W28938  11.200  17.247   0.750 -0.2217 -0.0852  0.1863
15525W        W28939  16.311   8.146   6.736  0.0411 -0.1827 -0.0084
15526W        W28940   8.766   4.543  14.996 -0.2217 -0.0607 -0.2914
15527W        W28941  14.989   6.641  16.367  0.1357 -0.2443 -0.1207
15528W        W28942  18.195   2.043  11.672  0.0519  0.0069 -0.1254
15529W        W28943   9.883  12.940   4.941 -0.3828  0.3369  0.3244
15530W        W28944   7.698  11.870  12.850 -0.0653  0.1129 -0.0369
15531W        W28945   5.933  12.078  13.456 -0.1348  0.0445  0.1227
15532W        W28946  11.126  12.896  13.927  0.1234  0.2079 -0.1977
15533W        W28947  13.493  18.072   4.689 -0.1819 -0.0095  0.0928
15534W        W28948  14.771   0.438   3.286  0.0766 -0.0413 -0.0599
15535W        W28949   0.510  17.483   1.417 -0.0364 -0.1328  0.1618
15536W        W28950   1.941   4.168   3.701  0.1582  0.2947  0.0793
15537W        W28951   4.573  18.160  13.780 -0.1497  0.0260  0.1355
15538W        W28952  15.848  13.410   5.889 -0.1381  0.0099 -0.2371
15539W        W28953  17.293   9.870   1.905 -0.2450 -0.4544 -0.0271
15540W        W28954  12.972   6.752  15.515 -0.2131  0.2816  0.0320
15541W        W28955   9.402   0.528  12.739  0.0242  0.3281  0.2185
15542W        W28956   5.106  16.230  16.341 -0.4375 -0.0854  0.1916
15543W        W28957  12.573   7.092  10.311  0.3095  0.1484 -0.2274
15544W        W28958  13.812   3.328   0.807  0.3258 -0.1600  0.0631
15545W        W28959   0.637  12.213   3.754  0.0739 -0.1264 -0.0844
15546W        W28960   0.207   7.946  12.379 -0.0379 -0.0938  0.0478
15547W        W28961   7.619  15.226  13.867  0.1677  0.0020 -0.1841
15548W        W28962   7.232  16.002   1.902 -0.1415 -0.1602 -0.0872
15549W        W28963  14.254  13.933   0.567 -0.1037  0.3463 -0.0268
15550W        W28964  12.477   9.286  14.421 -0.0134  0.0125 -0.2090
15551W        W28965   3.584  15.120   3.297 -0.0759 -0.1860  0.1363
15552W        W28966  11.667   5.903   3.939  0.0694 -0.0723  0.0886
15553W        W28967   3.497   5.220  12.989  0.1249  0.1026 -0.0379
15554W        W28968   5.409   7.999  14.472  0.1193  0.0816  0.1254
15555W        W28969   6.954   7.885  12.277  0.2592  0.0078 -0.0910
15556W        W28970   7.775  14.846   4.670 -0.1028  0.0129  0.2394
15557W        W28971   1.093  13.064   4.953 -0.2022 -0.0203 -0.4230
15558W        W28972  10.902  11.732   0.588 -0.0731  0.0552  0.0694
15559W        W28973   1.401   3.968   3.482 -0.0848 -0.0028  0.2568
15560W        W28974   2.171  14.141  15.977 -0.0431 -0.3354  0.1685
15561W        W28975   8.227  11.365   0.436  0.4644  0.2954  0.3272
15562W        W28976  17.554  16.576   1.504 -0.0344  0.3182  0.3593
15563W        W28977  17.728   6.440  15.826 -0.4599 -0.0145 -0.0050
15564W        W28978  12.697   3.513  10.887  0.2359 -0.0749  0.1558
15565W        W28979   0.689   2.270  16.297  0.1113 -0.0545 -0.0502
15566W        W28980  13.828  16.721  12.400  0.0751 -0.1646  0.2313
15567W        W28981   0.873   8.889   0.278  0.0762  0.2008 -0.2318
15568W        W28982   6.472   8.347  14.896 -0.0768  0.2751 -0.3320
15569W        W28983   9.886   3.372  12.586  0.0607  0.1283 -0.0783
15570W        W28984   8.951   2.010   0.198 -0.1186 -0.3218  0.1657
15571W        W28985  13.982   8.638  12.480  0.1589 -0.0210  0.2749
15572W        W28986   5.074  18.166  13.471  0.0227 -0.1644  0.2252
15573W        W28987  16.995   0.938  11.503 -0.1809 -0.2550 -0.1517
15574W        W28988   2.366   3.820  11.233  0.0485 -0.0944  0.1572
15575W        W28989   5.109  16.302   2.339  0.2092  0.2755  0.0500
15576W        W28990   2.605  17.517  12.561  0.2004  0.0025 -0.0065
15577W        W28991  13.944   8.667  13.710 -0.4043 -0.2034  0.1403
15578W        W28992   3.781  11.303  15.599  0.1586  0.2582  0.0646
15579W        W28993  11.274  12.817   2.709  0.0219 -0.0023  0.1714
15580W        W28994  11.540  17.135  15.292 -0.1798 -0.1721  0.1400
15581W        W28995   4.346  13.098   1.115  0.1585 -0.2310 -0.1866
15582W        W28996   7.289  12.745   3.503  0.1183 -0.1991  0.2501
15583W        W28997   1.749  12.565  13.691  0.0108 -0.1377  0.0693
15584W        W28998  15.462   0.769  14.010  0.0457  0.0558  0.0141
15585W        W28999   5.726  18.144   4.425 -0.2026 -0.3274 -0.0043
15586W        W29000  12.568   5.503  10.838 -0.1103  0.2812  0.2055
15587W        W29001   2.467  13.068   1.633 -0.1746 -0.1765 -0.0986
15588W        W29002   3.595   8.677  11.487  0.1961 -0.2630 -0.1256
15589W        W29003   3.131   0.947  11.251 -0.1490 -0.0336 -0.1716
15590W        W29004   6.958  16.234  11.685  0.0643  0.1653  0.2067
15591W        W29005   0.435   2.055  11.839 -0.3162 -0.0621  0.0707
15592W        W29006   2.926   2.253  12.193  0.4089 -0.1356 -0.0039
15593W        W29007  11.334  16.608  13.558  0.1142 -0.1965  0.1854
15594W        W29008  17.580   0.315   4.621 -0.0688 -0.0158 -0.0381
15595W        W29009   0.644  15.349  14.158  0.2232  0.3842 -0.1936
15596W        W29010  14.450   4.948  11.528  0.2254  0.0959 -0.0950
15597W        W29011  17.676   7.903   5.550 -0.0264 -0.2611  0.2316
15598W        W29012  15.435   1.546  12.687 -0.0162  0.0532 -0.2040
15599W        W29013  10.075   3.498   5.016  0.3711 -0.1065 -0.0965
15600W        W29014  10.779  15.588  12.625 -0.2252 -0.4654  0.2859
15601W        W29015  18.195   4.253  14.883  0.2229 -0.2393  0.0243
15602W        W29016   2.119  12.886   4.716 -0.0086  0.0372  0.3264
15603W        W29017  17.192   5.208   0.245  0.1196 -0.0545 -0.1354
15604W        W29018  13.086  16.376   1.984  0.1290  0.4179 -0.1187
15605W        W29019  13.281  16.008   5.289  0.2648  0.1217 -0.0024
15606W        W29020   8.837   5.941   0.872 -0.0649  0.2841  0.1242
15607W        W29021  16.861  10.899   0.059  0.2660  0.2601 -0.0201
15608W        W29022   5.602  14.736   3.489 -0.2958  0.1623 -0.1223
15609W        W29023   5.745  11.225   6.006  0.0196 -0.2260  0.1181
15610W        W29024   1.497  10.091  13.000 -0.0843  0.0920 -0.3499
15611W        W29025   4.803   8.366  13.004 -0.1789 -0.1353  0.0615
15612W        W29026   4.671  14.921   3.877  0.2712 -0.0107  0.2488
15613W        W29027  10.267   2.754   5.494  0.0698  0.0502  0.0013
15614W        W29028  11.600   8.490  13.143 -0.3108 -0.0540  0.0380
15615W        W29029  11.607   1.418  15.802  0.0943  0.1624 -0.0830
15616W        W29030  11.661  13.975   0.065 -0.2047  0.4483 -0.0179
15617W        W29031   1.465   5.724   3.322 -0.0947  0.0508 -0.1641
15618W        W29032   9.781  15.958   9.690  0.1129  0.1445  0.1618
15619W        W29033   2.969  17.758  11.415 -0.2237  0.2726  0.2480
15620W        W29034  10.841   5.165  12.572  0.1564  0.1955  0.0729
15621W        W29035   8.252  16.041  13.245  0.0131  0.2717  0.0934
15622W        W29036   0.910  17.853   2.687  0.0286 -0.1214 -0.4333
15623W        W29037   6.084   4.679  10.473 -0.0755 -0.0405  0.2969
15624W        W29038   0.871   9.600   3.076 -0.1797 -0.0190 -0.2051
15625W        W29039  10.169   5.289   5.355 -0.1480 -0.2322  0.0354
15626W        W29040   1.645   2.323   3.952 -0.1736 -0.0757  0.0080
15627W        W29041  14.988  17.344  14.433  0.3020 -0.0298 -0.1087
15628W        W29042  14.937  12.359   2.266  0.1144  0.0992  0.3738
15629W        W29043  16.798  16.539  11.429  0.0252 -0.0060 -0.2428
15630W        W29044   1.336   8.462   0.578  0.1756  0.0408  0.0326
15631W        W29045   5.264   7.094   2.298 -0.0751  0.2656 -0.0765
15632W        W29046   9.054   1.657   2.805  0.1083 -0.1129  0.0501
15633W        W29047   6.319   3.350  15.194  0.0938 -0.0747  0.1703
15634W        W29048  15.082  14.418  15.541  0.0028  0.2371  0.0372
15635W        W29049   9.272  10.984  13.428  0.2010  0.1003  0.1751
15636W        W29050  17.649   4.673  14.162 -0.2425 -0.0729  0.0338
15637W        W29051   8.129   3.912  15.073 -0.0031  0.2547 -0.1040
15638W        W29052  14.608  12.649   0.204 -0.1031  0.1536 -0.1727
15639W        W29053  12.239   1.389  11.729  0.2537  0.2607 -0.2112
15640W        W29054   8.495   8.815  12.751 -0.2721 -0.1610 -0.1110
15641W        W29055  13.549   7.321   4.709 -0.0373 -0.2703 -0.0772
15642W        W29056  13.823   0.708   3.389  0.1255 -0.0881 -0.0875
15643W        W29057   5.115  17.101  11.048  0.0479  0.2013 -0.2404
15644W        W29058   1.390  13.324  12.056  0.3092  0.0873  0.1135
15645W        W29059   4.558   0.036   4.439 -0.0572 -0.0346 -0.1596
15646W        W29060   4.825   9.683  14.834  0.0665 -0.0624 -0.0406
15647W        W29061   1.147   4.236  11.214 -0.1197  0.2073  0.1534
15648W        W29062  13.991   6.619  13.542 -0.1320  0.1899  0.1596
15649W        W29063   0.527   2.029  10.490 -0.2046 -0.2206  0.3037
15650W        W29064  10.512   7.584   4.712  0.0089 -0.1312  0.0352
15651W        W29065   9.694  16.038  10.308 -0.1789  0.2133  0.0129
15652W        W29066   0.079   2.110  15.672 -0.0913 -0.1378  0.0282
15653W        W29067   0.115   7.767   4.561  0.0089 -0.1395  0.0139
15654W        W29068  12.841  13.999  12.236  0.1392 -0.0032  0.1159
15655W        W29069   5.432   9.791  16.023 -0.2983 -0.1435  0.0062
15656W        W29070  17.454   8.466   3.395  0.1727  0.0933 -0.2386
15657W        W29071   2.712   9.826  12.597  0.3686  0.0027  0.0702
15658W        W29072   7.867   8.738  15.497 -0.0278 -0.3723  0.1259
15659W        W29073  10.772  12.416   4.596 -0.0520  0.1263  0.0412
15660W        W29074   9.764   2.038  12.804 -0.0041  0.0069  0.1157
15661W        W29075   4.005  12.647   2.935 -0.2816 -0.3669 -0.0442
15662W        W29076  10.208  14.285  11.812  0.5119 -0.1131 -0.2689
15663W        W29077   6.238  15.366  11.055  0.0623 -0.0249  0.2071
15664W        W29078  18.118   0.118   1.748  0.2293  0.0175  0.0087
15665W        W29079  11.249   3.141  16.395 -0.0115 -0.2955 -0.1410
15666W        W29080   7.162  10.358  15.824 -0.1220  0.0904  0.1636
15667W        W29081  14.974   5.053  11.265  0.3665 -0.2709  0.0778
15668W        W29082  13.339   1.057   5.592 -0.1003  0.0379 -0.0443
15669W        W29083   2.779   1.573   2.122 -0.2776  0.1164  0.0713
15670W        W29084  16.941   5.408  12.837  0.1183  0.3320 -0.2098
15671W        W29085  11.939  15.057  14.281  0.1865 -0.1960  0.1363
15672W        W29086  14.218   7.965   0.137 -0.0001  0.2237 -0.2656
15673W        W29087  15.881  14.434  14.972  0.0046  0.1079  0.2173
15674W        W29088   9.430   4.507   0.705 -0.3471  0.5324 -0.0847
15675W        W29089  10.351   4.801  11.938 -0.0505 -0.2158 -0.6131
15676W        W29090  16.596   6.595   0.938  0.0164 -0.2022 -0.1812
15677W        W29091   8.702   2.685  10.939  0.3246 -0.0785  0.1950
15678W        W29092   2.513   8.419   1.118 -0.0260 -0.2673 -0.3786
15679W        W29093  15.047   8.132  15.608  0.0839 -0.3114  0.0443
15680W        W29094  12.403   9.658   3.369  0.1684  0.1606  0.0195
15681W        W29095   8.658   9.979  12.409  0.2720 -0.3603 -0.1756
15682W        W29096  13.313  13.175  10.933 -0.2960 -0.0754 -0.2521
15683W        W29097   5.641   5.359   2.861  0.1087  0.2105 -0.1107
15684W        W29098  15.844  14.324   1.352  0.1863  0.0498 -0.0561
15685W        W29099   0.903  12.023  11.671  0.0552 -0.0180  0.2273
15686W        W29100   2.950   4.201   3.871 -0.3510 -0.1443 -0.0055
15687W        W29101  17.788   8.823   1.059 -0.0491  0.0748 -0.0585
15688W        W29102   2.820   6.582  13.424 -0.1250 -0.2428 -0.0480
15689W        W29103  16.861  12.808  13.565  0.1283 -0.1692 -0.3463
15690W        W29104  12.066   0.829   4.975 -0.0871  0.2436  0.0345
15691W        W29105   6.216   6.201  15.338  0.0539 -0.0488  0.0869
15692W        W29106   4.529  10.979  13.738  0.0654  0.0703 -0.3203
15693W        W29107   1.558   5.891   4.877 -0.1947  0.1448  0.0942
15694W        W29108   8.319   0.169   4.645 -0.4882 -0.1917  0.5636
15695W        W29109  14.833   5.006  12.398  0.2047 -0.0705 -0.1995
15696W        W29110  11.902  17.534  15.393 -0.2508 -0.0934  0.2343
15697W        W29111   6.455   1.880  13.967  0.1532 -0.3391 -0.0469
15698W        W29112   4.096   2.169   5.734 -0.2352  0.0061 -0.0276
15699W        W29113   8.299   6.731   2.673 -0.0294  0.0390 -0.0616
15700W        W29114  15.370   5.037   2.766 -0.2356  0.0251  0.0353
15701W        W29115  14.191  16.511   2.877 -0.0111  0.0772 -0.1673
15702W        W29116   6.345   2.225  15.956  0.0056  0.1413 -0.0560
15703W        W29117   0.790   9.175   2.344  0.0649 -0.1042  0.0903
15704W        W29118   2.312   0.272   4.726  0.2053 -0.0592  0.3727
15705W        W29119  16.413  10.993  16.232  0.1699  0.1465 -0.3217
15706W        W29120  15.747   2.937  12.235 -0.3139  0.1935 -0.1383
15707W        W29121   8.112  16.425   3.253 -0.2263  0.1636  0.2105
15708W        W29122   7.032   8.336  11.988  0.5455  0.0716  0.2079
15709W        W29123   2.410  17.597   2.008 -0.0937 -0.0987 -0.2180
15710W        W29124  10.585  16.926  10.713 -0.3756 -0.0359  0.1254
15711W        W29125  13.026   6.120  11.741  0.1173 -0.1461 -0.1325
15712W        W29126  15.156   6.896   1.679  0.0487 -0.1536 -0.2696
15713W        W29127   9.402   9.432  14.928  0.0646 -0.0829 -0.0298
15714W        W29128   2.505  15.609   1.951  0.1515 -0.0558 -0.1491
15715W        W29129   3.277  17.773  13.873 -0.1492 -0.1764 -0.0336
15716W        W29130  15.769  14.393  13.741  0.0343  0.0868 -0.3442
15717W        W29131  13.832   8.286  16.492  0.1735  0.1988 -0.0236
15718W        W29132   8.991  11.314   0.908 -0.2812 -0.1189  0.1037
15719W        W29133  12.085  14.939  16.399  0.1466 -0.3283  0.2602
15720W        W29134  17.743   6.386   4.606 -0.3433 -0.0182  0.1122
15721W        W29135   7.513   8.721   0.348  0.0183 -0.2094 -0.1190
15722W        W29136  17.855   6.163  11.300 -0.1159  0.0597 -0.1984
15723W        W29137  16.495   3.227  16.345  0.3392  0.0905  0.1650
15724W        W29138  11.295   0.981  12.733  0.0766  0.0912 -0.1106
15725W        W29139   5.885  12.490  13.831  0.0161 -0.0552 -0.0318
15726W        W29140  16.239  13.390  10.875  0.1522 -0.1530 -0.0463
15727W        W29141   5.188  15.760  14.531  0.0316  0.1259  0.0376
15728W        W29142   7.233   1.042  12.605  0.2930  0.1984  0.2762
15729W        W29143  11.875   7.154   3.474 -0.2962 -0.0793  0.1442
15730W        W29144   5.109   2.147  14.151 -0.1563  0.1841 -0.0012
15731W        W29145  10.948  16.853  12.474 -0.2385  0.2208 -0.0127
15732W        W29146   5.268   7.373  11.429 -0.2453  0.0569 -0.1057
15733W        W29147   4.013   1.511   4.990 -0.0341 -0.0458 -0.1596
15734W        W29148  14.084   7.057  13.180 -0.1189  0.2041 -0.3720
15735W        W29149   3.156   9.337  13.246  0.0648 -0.0092 -0.1806
15736W        W29150  15.133  12.179  10.321  0.3310  0.0974 -0.1905
15737W        W29151  12.284   9.765  15.764 -0.0260 -0.1893 -0.0529
15738W        W29152   4.104   9.901  11.916 -0.2329 -0.1242  0.3966
15739W        W29153   2.040  14.788   1.729 -0.0050  0.1003  0.1286
15740W        W29154   9.303  16.599  15.573  0.4044 -0.0651 -0.1923
15741W        W29155  13.876  14.013  12.346  0.1960  0.0971  0.2030
15742W        W29156   4.811  10.963   0.154  0.0356  0.1237  0.0931
15743W        W29157   7.376  12.844   4.755 -0.2273 -0.2187 -0.0094
15744W        W29158  13.020   9.899  16.215 -0.1760 -0.1904 -0.0453
15745W        W29159  16.197   1.573   0.150  0.0447  0.2294 -0.0467
15746W        W29160   1.130   2.648  13.739  0.0631 -0.0790 -0.6493
15747W        W29161  15.611  14.005   2.339  0.0324  0.1545  0.0339
15748W        W29162   7.378   0.113   1.027 -0.0594  0.0370  0.2916
15749W        W29163   8.225   5.201   4.040  0.1411 -0.2724 -0.0946
15750W        W29164   7.971   4.037  15.733  0.0774  0.1917 -0.0490
15751W        W29165  12.736   5.083   3.248 -0.4416 -0.0256  0.0391
15752W        W29166   9.994   2.029  10.048 -0.1995 -0.2032 -0.1247
15753W        W29167   7.979   2.926   0.639  0.2971 -0.2134 -0.3474
15754W        W29168   9.094   2.256  14.566  0.2390  0.2776 -0.2018
15755W        W29169  18.042  16.776   0.213 -0.0527  0.0869 -0.2806
15756W        W29170   4.110  10.664  11.678  0.1362  0.1073 -0.3545
15757W        W29171   3.153   8.814  11.651 -0.2609  0.0502  0.0145
15758W        W29172   4.623   6.087  13.078 -0.0025  0.0065  0.2195
15759W        W29173  12.086   5.972   5.928 -0.2825  0.0973  0.1578
15760W        W29174  10.868   9.961   1.532 -0.2079 -0.1283  0.2721
15761W        W29175  14.016  15.278  11.910 -0.1181 -0.0890  0.1791
15762W        W29176  14.334   4.477  12.393  0.2057 -0.2795 -0.3283
15763W        W29177   9.950   5.953   1.739  0.1201  0.2365 -0.2013
15764W        W29178   2.605  13.187   5.745  0.2504  0.0758  0.1462
15765W        W29179   0.452   2.202  10.936  0.4432 -0.1385  0.1550
15766W        W29180   7.375   8.597   1.028 -0.1708  0.1040 -0.1596
15767W        W29181   1.496  16.220  12.135  0.0593  0.4530  0.0324
15768W        W29182  16.670   4.431  16.390  0.2673  0.0512  0.2317
15769W        W29183   2.012  10.923   3.617 -0.1689 -0.1987 -0.1872
15770W        W29184   4.490   6.208   2.712 -0.0713 -0.0739  0.2524
15771W        W29185  14.482  16.890  11.114  0.0836  0.0086 -0.0492
15772W        W29186   2.376  17.457   2.982 -0.0525  0.0841 -0.1884
15773W        W29187   1.052   0.164   5.752  0.0202  0.1443 -0.0465
15774W        W29188   5.323  10.528  13.646  0.0165  0.0976 -0.2038
15775W        W29189   0.516  18.009  16.130  0.0478  0.2926  0.2395
15776W        W29190   4.017  16.712   3.473 -0.1642  0.0715 -0.1641
15777W        W29191   2.811   1.658   3.213 -0.0427 -0.1952  0.0915
15778W        W29192  15.944  17.924   0.779 -0.0057  0.4186  0.1731
15779W        W29193   1.330  13.137  10.581 -0.0307 -0.2849 -0.4443
15780W        W29194  14.776  12.933   3.637 -0.1889 -0.2079  0.0457
15781W        W29195   2.734   9.217  16.080  0.3098  0.0866  0.3220
15782W        W29196  15.397  17.180  11.310  0.1096  0.0328  0.1411
15783W        W29197   5.941  14.212   0.144  0.0756 -0.0475 -0.2031
15784W        W29198   9.596   0.546  15.365 -0.0017  0.0542  0.2844
15785W        W29199   5.549   1.907  14.300  0.3965 -0.0054 -0.1483
15786W        W29200   2.083   0.828   1.912 -0.0675  0.0521 -0.1304
15787W        W29201  15.632  17.041  16.383 -0.0069 -0.0845  0.0813
15788W        W29202  12.979   1.448   5.474  0.1647  0.0550  0.0601
15789W        W29203   6.833   2.670   0.096 -0.0593 -0.1185 -0.1575
15790W        W29204   0.792   7.382   5.056 -0.2478 -0.1483 -0.0768
15791W        W29205   4.753  10.532   5.292 -0.0831  0.0591 -0.0587
15792W        W29206   7.313  17.305  13.954 -0.1887  0.0538  0.1146
15793W        W29207  12.090   4.600   4.916 -0.0888 -0.2382 -0.0915
15794W        W29208   2.669   5.955  15.860  0.2478  0.0302 -0.5523
15795W        W29209   0.507   7.108   6.079  0.3582 -0.3115 -0.1642
15796W        W29210   4.857   9.947   2.680 -0.2314 -0.0358 -0.0383
15797W        W29211   9.289   8.142   3.583  0.2247  0.0904 -0.2213
15798W        W29212   1.215   4.252   0.637 -0.0987 -0.2332  0.2884
15799W        W29213   3.220   1.293   3.145 -0.0691  0.1278 -0.1436
15800W        W29214   7.116  12.014  10.446  0.0253  0.3182  0.2394
15801W        W29215  12.684  11.054  14.458 -0.0366  0.0806 -0.1031
15802W        W29216  11.910   6.625   5.132 -0.2190  0.1562  0.0120
15803W        W29217   5.666   6.455   1.633  0.1037 -0.2287  0.0958
15804W        W29218   3.988  13.989   3.046  0.6924  0.1378  0.0597
15805W        W29219   9.886   2.303   0.359 -0.0226  0.0429 -0.4497
15806W        W29220   0.732  17.593  10.851  0.1935  0.1308 -0.0903
15807W        W29221  10.170  17.502   3.168  0.0877  0.1074  0.3459
15808W        W29222  15.616  16.945  10.597 -0.0210  0.2923 -0.1196
15809W        W29223   3.875   4.273   4.930  0.2729  0.1378  0.2539
15810W        W29224  13.478   6.497  11.598 -0.1571  0.2878  0.4235
15811W        W29225  17.596  11.420   6.235  0.2069  0.1744  0.1306
15812W        W29226   9.391  10.534  12.466  0.1520  0.2702  0.2878
15813W        W29227   2.623   2.527  12.571 -0.1312 -0.2116  0.2926
15814W        W29228  17.577   1.063  15.035 -0.0407 -0.0662  0.0072
15815W        W29229  14.879   9.397  15.756  0.2204 -0.1725  0.2397
15816W        W29230  13.314   1.737  11.937 -0.1089 -0.0391 -0.0092
15817W        W29231  12.211   5.858  10.866 -0.1987  0.2533  0.0821
15818W        W29232  11.141  16.591  15.770  0.0146  0.1318  0.0564
15819W        W29233  11.375   0.116  12.966  0.1374 -0.0717  0.0560
15820W        W29234   9.842   9.171   4.197  0.1958  0.1237  0.0425
15821W        W29235  12.751   0.763   4.969  0.1122  0.2698 -0.1177
15822W        W29236  16.295   4.637   4.807  0.0275 -0.0862  0.4552
15823W        W29237   0.784   5.386  16.033  0.1507  0.0327 -0.2568
15824W        W29238   0.531  11.465   5.929 -0.0425 -0.2031  0.2639
15825W        W29239  12.053  17.917   3.301 -0.2999  0.0843  0.0232
15826W        W29240  13.136   7.319  12.549 -0.0803 -0.1504 -0.2036
15827W        W29241   8.144   5.118   4.597  0.1855 -0.1908 -0.0226
15828W        W29242   5.313   9.794   4.226  0.0840  0.2859  0.0842
15829W        W29243   7.270   8.931  11.195  0.0707 -0.2476 -0.0903
15830W        W29244   5.111  13.430   1.217  0.0804 -0.0082  0.0061
15831W        W29245   4.573   5.441   0.232  0.0477  0.1825 -0.0169
15832W        W29246   4.883  15.508   3.707  0.3856  0.1319 -0.0294
15833W        W29247   7.756  17.221  11.646  0.2308 -0.0821 -0.0015
15834W        W29248  16.040   8.939  13.429  0.1549  0.0712 -0.0626
15835W        W29249  11.998  14.561  14.259 -0.0349  0.0818  0.0510
15836W        W29250   9.933   9.095  14.852  0.0976 -0.3705 -0.0843
15837W        W29251   0.120   3.887  10.367 -0.1802 -0.4590  0.1861
15838W        W29252  17.280   9.009  15.540 -0.1990 -0.1753  0.0128
15839W        W29253   0.385  11.638  15.467  0.0020 -0.3171  0.3521
15840W        W29254  15.069   1.589   0.697 -0.3236  0.2571 -0.0538
15841W        W29255  14.563  15.518  13.381  0.0436  0.1015 -0.1991
15842W        W29256  13.220  17.088   0.864 -0.4012 -0.3051  0.0796
15843W        W29257   2.853   7.760  16.308 -0.3480  0.1455 -0.0599
15844W        W29258   1.286  11.342   2.247 -0.0239 -0.2633 -0.5910
15845W        W29259   0.046   3.827  16.380 -0.0724  0.3192  0.0479
15846W        W29260  16.205  17.507  13.749 -0.1127 -0.2809 -0.1298
15847W        W29261   4.904   3.506  13.031 -0.0541 -0.1504  0.1360
15848W        W29262   3.447  17.535   0.632  0.1972 -0.1945 -0.0380
15849W        W29263   6.168  14.842   5.526  0.1142  0.1889  0.1868
15850W        W29264  12.968  11.954   4.536  0.0396 -0.0338 -0.4908
15851W        W29265  16.772   5.336  15.853 -0.0309 -0.0028  0.1279
15852W        W29266   8.415  12.814  13.761  0.1230 -0.2150 -0.2047
15853W        W29267  10.647  14.112  15.456 -0.3006 -0.0197  0.0474
15854W        W29268   9.301   2.542  13.204  0.0279  0.1009 -0.2097
15855W        W29269  10.029   2.862   0.301 -0.2018  0.0734 -0.2127
15856W        W29270   4.052   0.404  11.962 -0.0067 -0.0766  0.1087
15857W        W29271   6.885  14.067   4.477  0.4703  0.0506 -0.2953
15858W        W29272  13.948   9.917  13.324 -0.0689 -0.0941 -0.4977
15859W        W29273   6.803  10.224   0.677  0.1903  0.1222  0.0732
15860W        W29274  17.016  10.767  11.647  0.0002  0.2911 -0.1910
15861W        W29275   0.107   7.167   5.135 -0.1153  0.4199  0.0940
15862W        W29276   4.375  14.790   5.596 -0.0307  0.1609  0.1415
15863W        W29277   5.179   0.271   1.080  0.1691  0.4476 -0.0327
15864W        W29278   1.036  10.197   0.529  0.1289  0.1215  0.2074
15865W        W29279   6.547  17.341  12.753 -0.0871  0.1757 -0.1606
15866W        W29280   2.061  12.795  13.291 -0.0817 -0.0492  0.2862
15867W        W29281   4.946   9.181  13.366  0.2582  0.0471 -0.2310
15868W        W29282  10.195   3.460   3.646 -0.0537  0.1955  0.2435
15869W        W29283  11.973  16.481   4.877 -0.0410  0.4911 -0.1995
15870W        W29284  12.611   4.217   2.124  0.1497 -0.2680 -0.1002
15871W        W29285   4.117   1.491  11.853  0.0934 -0.0143  0.2152
15872W        W29286   7.890   8.435   1.868  0.2023  0.2032  0.2485
15873W        W29287  15.963   0.915  11.398 -0.0510  0.0078  0.3749
15874W        W29288  15.536  14.095   5.159  0.1372  0.1506  0.3177
15875W        W29289   1.276  15.546  14.890 -0.1647 -0.2433  0.3980
15876W        W29290   2.189  13.428   5.838  0.1100 -0.0477  0.4084
15877W        W29291  11.841   3.623  13.152  0.1588  0.0793 -0.1642
15878W        W29292  16.949  14.403   1.692  0.1799  0.1634 -0.4330
15879W        W29293   3.359  10.276   0.200  0.0534  0.1430  0.0662
15880W        W29294   4.205   1.950   0.945  0.0824  0.1712  0.0367
15881W        W29295   4.454   8.361  10.871  0.1986 -0.0799 -0.0260
15882W        W29296  16.364   8.010  12.137  0.0380 -0.2029 -0.0019
15883W        W29297   4.554  10.634  14.917  0.1998 -0.0623  0.2104
15884W        W29298   7.428   4.447  15.123 -0.1822  0.0102 -0.2831
15885W        W29299  17.720  15.176   2.157  0.1492 -0.0708  0.0137
15886W        W29300   4.265   2.709  12.738  0.1414  0.0849 -0.1669
15887W        W29301   3.794   2.284   0.868  0.0170  0.1114  0.1868
15888W        W29302  17.671   7.110  15.140 -0.1483  0.2275  0.0810
15889W        W29303   9.284   7.643   5.637  0.0053 -0.0571  0.4253
15890W        W29304   6.126  13.909  13.879  0.1236  0.0214  0.1084
15891W        W29305  17.608   8.877  15.158 -0.2590  0.0064  0.0131
15892W        W29306  17.312   1.122  13.386  0.0637 -0.1599  0.2730
15893W        W29307  14.321   9.463   3.240 -0.2317 -0.1842 -0.0333
15894W        W29308  14.152   5.840  13.688 -0.2468  0.4779 -0.0215
15895W        W29309  15.338  13.857   0.888  0.1381 -0.1151  0.2973
15896W        W29310  13.570   5.882  12.548  0.1709 -0.1989 -0.2051
15897W        W29311   1.015   3.022  11.082 -0.1281  0.0489 -0.1381
15898W        W29312   2.456   1.961  15.790 -0.1027 -0.0131  0.1478
15899W        W29313   0.252   9.124  16.188 -0.3970  0.0721 -0.0816
15900W        W29314   5.004  13.153  13.443  0.0058  0.0115  0.1975
15901W        W29315  11.925   9.353   2.120 -0.2144 -0.0793 -0.0239
15902W        W29316  14.449  12.605   0.776  0.2117 -0.0376  0.0862
15903W        W29317   9.052  14.850   1.112 -0.0762 -0.0504 -0.3692
15904W        W29318   0.846  12.527  11.368 -0.5548 -0.3764 -0.1541
15905W        W29319  14.309   4.767   2.768  0.0949 -0.2131  0.1502
15906W        W29320   8.429   6.700  11.321 -0.0651  0.2852  0.0229
15907W        W29321   5.249   4.677  10.556  0.2171 -0.4631  0.2401
15908W        W29322   5.425   2.885  16.278  0.1329  0.0724 -0.1745
15909W        W29323   9.786   4.708   5.909 -0.0314 -0.0769 -0.1664
15910W        W29324   3.549   8.226   2.686 -0.3820 -0.0899 -0.0003
15911W        W29325  16.578  14.154   6.054 -0.0934  0.1900 -0.3408
15912W        W29326   9.918   5.829   0.348  0.0241 -0.0675  0.3177
15913W        W29327   2.890   1.740   3.732 -0.2434  0.0924 -0.0295
15914W        W29328  12.172  13.816   0.668 -0.1042  0.2603 -0.2709
15915W        W29329   1.098   5.520   3.659  0.1340 -0.1334 -0.1571
15916W        W29330  17.807   1.327   5.063 -0.2985  0.1288  0.0922
15917W        W29331   3.133   2.739  11.171 -0.1769 -0.2887 -0.3722
15918W        W29332  15.904  11.456  12.051  0.2981  0.0908 -0.0864
15919W        W29333  11.597   2.839   4.852 -0.1097 -0.3319  0.1317
15920W        W29334   7.884  16.325  14.751  0.2086 -0.1734 -0.1740
15921W        W29335   7.894   7.446  10.518 -0.2956 -0.1463 -0.0596
15922W        W29336   2.349  14.763  10.793 -0.2187  0.1018 -0.0229
15923W        W29337   3.119  11.570  11.719 -0.0546  0.1259 -0.0164
15924W        W29338  12.172  14.676   1.763 -0.0910 -0.0601 -0.3821
15925W        W29339   2.124   4.612   0.722 -0.0872  0.1908  0.0799
15926W        W29340   1.234  15.818  10.782 -0.0084  0.0901  0.2782
15927W        W29341   4.512  14.508   1.654  0.1705  0.0390 -0.0072
15928W        W29342   8.974   6.502  12.957 -0.2321 -0.2614 -0.2905
15929W        W29343   1.599   0.783   2.125 -0.1173 -0.1235 -0.2049
15930W        W29344   4.505   7.736   1.108 -0.0699 -0.0734  0.1182
15931W        W29345   5.597  17.988  13.167 -0.0815 -0.1505 -0.0218
15932W        W29346   9.284   0.474  11.666 -0.3085 -0.3366 -0.2035
15933W        W29347  11.992  16.090  13.840 -0.0403 -0.0271  0.0219
15934W        W29348   7.807  16.355   0.477  0.0405  0.3278  0.1016
15935W        W29349   0.100  11.836   4.268  0.0684  0.1882 -0.0648
15936W        W29350  14.222   0.705  12.988 -0.0031 -0.0699 -0.1974
15937W        W29351   5.975   8.471   0.440  0.2917  0.0118  0.1655
15938W        W29352   5.468   4.698  13.579 -0.0159  0.1650  0.0410
15939W        W29353   8.760   2.403   2.091  0.2138  0.0248  0.1090
15940W        W29354   3.573   5.250  13.573 -0.1040 -0.0790 -0.0574
15941W        W29355   0.924   4.821   4.025 -0.0174  0.0964 -0.1079
15942W        W29356  11.759   3.424  10.980  0.2386 -0.1060  0.3293
15943W        W29357   4.836   7.798  13.115  0.5292 -0.0893 -0.1502
15944W        W29358  13.729  17.052   4.841  0.2060 -0.0233  0.1811
15945W        W29359  16.039  17.311   2.926  0.0991  0.0287 -0.2367
15946W        W29360  16.724   8.215  10.666 -0.3475  0.0502 -0.0237
15947W        W29361   4.358  10.000  12.301  0.0868  0.1612 -0.0274
15948W        W29362   6.581  17.029  11.344  0.0770  0.1943  0.1788
15949W        W29363  10.521  14.107  13.626  0.2966 -0.1495  0.0005
15950W        W29364  10.522   3.212   1.054  0.1855 -0.0249  0.1829
15951W        W29365  15.594   9.418  15.927  0.1400  0.0610 -0.0460
15952W        W29366  14.836   6.162  15.413  0.0652 -0.3032 -0.1757
15953W        W29367  11.678   5.575  13.855  0.0297 -0.3164  0.2273
15954W        W29368   9.395  16.225   3.938  0.0713 -0.1282 -0.1014
15955W        W29369  15.569   5.137  10.685  0.0731  0.1515  0.0842
15956W        W29370   1.081   6.057   0.034  0.2923  0.0910 -0.4573
15957W        W29371   4.065  10.197  11.524  0.0679 -0.0339 -0.0911
15958W        W29372   8.262  16.395  11.076  0.0825 -0.2552 -0.3972
15959W        W29373  11.259  11.277   0.376  0.1013 -0.5568  0.2498
15960W        W29374  16.079   7.729  10.396  0.0088  0.1538 -0.0504
15961W        W29375   5.860   9.402  13.451 -0.0270 -0.0959 -0.0274
15962W        W29376   4.577  16.392  16.249 -0.0125  0.2501  0.3139
15963W        W29377  10.859  15.160  10.953  0.0036 -0.0662  0.0792
15964W        W29378   0.488  17.566   3.909  0.0846 -0.2683  0.1167
15965W        W29379   5.788   8.885  15.420 -0.1842 -0.1997 -0.2045
15966W        W29380  13.941  13.648  15.112 -0.1931  0.0979 -0.3577
15967W        W29381  16.437  16.152   3.604 -0.0284  0.0860  0.2475
15968W        W29382   5.667   1.209   3.068  0.1109  0.1635  0.2443
15969W        W29383  11.402  13.552   0.245  0.2712 -0.0839  0.1098
15970W        W29384  12.846  17.903   3.885  0.2075  0.1883 -0.0352
15971W        W29385   7.830   6.157   4.290  0.2145 -0.0464  0.0608
15972W        W29386  11.738   6.978  14.504 -0.3362 -0.1068  0.1225
15973W        W29387   1.058  16.594   5.316  0.2957  0.1311  0.1196
15974W        W29388  11.698   4.375  16.313 -0.0124 -0.2952 -0.0258
15975W        W29389  15.937   0.770  16.422  0.1468 -0.1927  0.3427
15976W        W29390  10.785  16.583  15.072 -0.1124 -0.0141 -0.1758
15977W        W29391   7.004  11.441  14.553 -0.0772 -0.1562  0.0140
15978W        W29392   0.454  16.380   5.803  0.1085 -0.1159  0.1386
15979W        W29393   2.783   0.268   5.583 -0.2791  0.2104 -0.1736
15980W        W29394   0.383   4.207   5.930 -0.0464 -0.0868 -0.5174
15981W        W29395   6.273   7.240  13.513 -0.1168  0.1257 -0.1444
15982W        W29396  11.881  10.121  12.673 -0.0193  0.0316  0.0978
15983W        W29397   9.195  15.153  11.954  0.0167  0.0086  0.2529
15984W        W29398  17.424   6.919  13.829  0.0080  0.3024  0.0875
15985W        W29399   8.446   0.642   4.555  0.2678 -0.1689  0.0065
15986W        W29400   5.058   9.735   3.212 -0.0197  0.0704 -0.1496
15987W        W29401   7.757  15.703   2.555  0.2227  0.4234 -0.4151
15988W        W29402   8.294   4.970   3.469  0.1645  0.0236  0.0410
15989W        W29403   1.055   9.203  11.171 -0.0073 -0.1227 -0.0034
15990W        W29404  11.899   6.831   1.405  0.0297  0.1339  0.3067
15991W        W29405   5.289   9.943  10.649  0.0692  0.0089 -0.1574
15992W        W29406   9.293   4.419  11.259  0.0309  0.1392 -0.0939
15993W        W29407   6.257   2.106   0.515  0.2775  0.0629 -0.0877
15994W        W29408   2.240  17.712   1.535  0.2379 -0.0297 -0.0139
15995W        W29409   7.051   9.496   4.441  0.1953 -0.1887 -0.2572
15996W        W29410  10.307  12.119  16.294  0.1855 -0.3896  0.0334
15997W        W29411   6.396   6.729  15.891 -0.1677  0.1270  0.1631
15998W        W29412   9.258   6.651  15.255  0.0239 -0.1348 -0.0409
15999W        W29413   2.450  16.662   2.299 -0.0563  0.0146 -0.2334
16000W        W29414   8.546  12.034  14.899  0.2008  0.0128  0.0431
16001W        W29415   1.396   3.053  15.043  0.3154  0.0774  0.0760
16002W        W29416   8.955  13.537   1.564  0.3410  0.3113  0.0756
16003W        W29417  16.777  17.832   5.688  0.0380 -0.1590 -0.1334
16004W        W29418   9.814  12.899  14.639 -0.2213 -0.0772 -0.0628
16005W        W29419  15.926   3.730   1.959 -0.0574  0.0277 -0.0745
16006W        W29420   0.143  13.298  11.248  0.0617 -0.0267  0.2516
16007W        W29421   3.050   0.788   3.126  0.1509 -0.3096  0.0253
16008W        W29422   6.194   3.860  11.678  0.2974  0.2123 -0.2469
16009W        W29423   6.271  12.409   4.160  0.0160  0.1545 -0.1344
16010W        W29424  10.426   0.180   1.682  0.0621  0.0013 -0.0015
16011W        W29425  11.670   6.089   0.037 -0.1621  0.0095  0.0687
16012W        W29426  15.966   1.902   3.478 -0.0689  0.0816  0.1261
16013W        W29427   4.650  14.390  15.405 -0.0330  0.3715  0.0670
16014W        W29428  14.260   6.799  12.194 -0.0838  0.2125  0.1650
16015W        W29429  16.177  17.692  12.936 -0.0637 -0.2751  0.1778
16016W        W29430  16.213   3.894  13.782 -0.1344  0.1247 -0.1616
16017W        W29431  12.325   0.699  14.018 -0.2051 -0.0029 -0.1428
16018W        W29432  12.035  16.032  11.921  0.2203 -0.0951 -0.3515
16019W        W29433  14.842  12.412   1.759  0.1802  0.1635  0.2010
16020W        W29434  16.187  16.908  16.278  0.0594 -0.2476 -0.2628
16021W        W29435  16.421   9.103  13.734 -0.2675 -0.0231  0.3376
16022W        W29436   8.284   0.445  13.188  0.0844  0.1660  0.2948
16023W        W29437  18.108   4.999  16.300  0.1972  0.0915  0.0718
16024W        W29438  11.413   7.235   3.103  0.0553 -0.4507  0.0703
16025W        W29439  14.722   1.643  11.512  0.2394  0.0481  0.2920
16026W        W29440  14.844  18.014   0.479  0.0698 -0.0497  0.4649
16027W        W29441  14.165   3.162  16.032  0.0937 -0.2485  0.0189
16028W        W29442  14.676  15.159   2.411  0.2556 -0.3529  0.0612
16029W        W29443   0.012  10.503  11.949 -0.1061  0.1446 -0.0372
16030W        W29444  11.102   6.001   3.263  0.1683  0.1387 -0.0745
16031W        W29445   9.727   6.826   6.468  0.1886 -0.0685 -0.1630
16032W        W29446  11.347   5.488   4.486  0.2028  0.2131 -0.0594
16033W        W29447   9.688  18.009   3.920  0.0428  0.0626  0.1340
16034W        W29448   5.533  13.800  11.210  0.0256 -0.1608  0.1737
16035W        W29449   2.038  14.392   4.074  0.1041 -0.0958 -0.1093
16036W        W29450  11.171  17.297  12.567 -0.0972  0.0023 -0.0600
16037W        W29451   9.416  13.546   4.690  0.0175 -0.1836 -0.4405
16038W        W29452  11.441  13.268  13.930 -0.1697 -0.2891 -0.2124
16039W        W29453   5.126  13.375  11.321 -0.2365 -0.0584  0.0345
16040W        W29454  16.719  11.366  14.409 -0.2209 -0.1785  0.1150
16041W        W29455  16.559   1.731   0.537  0.3326 -0.1146  0.0521
16042W        W29456   4.246   1.097  15.468  0.0609  0.1030 -0.1553
16043W        W29457   8.176  10.523  11.740  0.3325  0.2004  0.0260
16044W        W29458  15.374  16.534  14.597  0.0249 -0.1984  0.1364
16045W        W29459   7.268  17.290   3.966 -0.0538  0.1197  0.3768
16046W        W29460   5.423  11.991   5.265 -0.1854  0.0644 -0.1125
16047W        W29461   9.391  13.376   3.630  0.0893 -0.0157  0.1854
16048W        W29462  17.236  16.284   6.701 -0.1504 -0.1054 -0.2680
16049W        W29463  12.105   3.848   0.354  0.0801  0.2448  0.0483
16050W        W29464   2.611   7.275   3.897  0.1006  0.1076  0.2870
16051W        W29465   0.082   1.058   3.013 -0.0551  0.0190 -0.0011
16052W        W29466   3.785  16.852   4.756 -0.1659  0.0916  0.3112
16053W        W29467  11.709   4.868  14.696 -0.0755 -0.0245  0.0329
16054W        W29468  16.786  18.196   2.205 -0.0027  0.1781  0.1267
16055W        W29469   5.993   6.172   3.091 -0.0792 -0.0822  0.2013
16056W        W29470  16.349  12.786   5.798 -0.1076 -0.1764 -0.1634
16057W        W29471  16.738  15.087   2.275  0.0810 -0.0190 -0.0503
16058W        W29472  16.596  16.990  14.927  0.1746 -0.0784 -0.0341
16059W        W29473   2.900  13.089   2.575  0.0959  0.0550  0.0440
16060W        W29474  16.861  12.161   3.635 -0.0805  0.0879  0.2461
16061W        W29475  14.664  13.054  12.643 -0.2104 -0.2301 -0.3982
16062W        W29476  10.916  17.615  13.053 -0.2472  0.1074 -0.2964
16063W        W29477  16.748   6.398   4.691 -0.1385  0.0596 -0.0170
16064W        W29478   3.117  12.152   2.441 -0.0038  0.1342  0.2722
16065W        W29479   2.851  13.321  14.445 -0.2176 -0.3241 -0.1216
16066W        W29480  12.620   1.818   5.105 -0.1376  0.2848 -0.1293
16067W        W29481  14.825   1.684   3.693 -0.1467  0.1588  0.0917
16068W        W29482  15.999   0.608   0.947  0.1037  0.0099  0.0815
16069W        W29483  14.783  12.038  14.088  0.0933 -0.0179  0.2366
16070W        W29484   4.320  14.430  12.927  0.1338  0.3414  0.0363
16071W        W29485   7.746  17.027   1.820 -0.2371  0.2783 -0.0510
16072W        W29486  10.031   3.472  11.757 -0.1382  0.1423  0.2151
16073W        W29487  17.721  11.829   3.625  0.3346  0.0153 -0.0690
16074W        W29488   4.908  17.863  13.095  0.3740 -0.0848 -0.3528
16075W        W29489   9.686   8.154   0.241  0.0215 -0.1444  0.1719
16076W        W29490   5.647  10.448  13.176 -0.1574  0.0213  0.1095
16077W        W29491   8.833  12.956  10.640 -0.1396 -0.0085  0.1029
16078W        W29492   4.988   3.528   5.280 -0.0531 -0.1151 -0.3099
16079W        W29493   0.470  11.103  10.856 -0.2103 -0.3026  0.3066
16080W        W29494   0.652   7.217  12.961  0.0623  0.0186 -0.0111
16081W        W29495  16.322  17.828  11.611  0.1077 -0.3650 -0.1780
16082W        W29496   4.487  11.004   0.516  0.0545 -0.1527 -0.2643
16083W        W29497  16.538   0.578  10.078 -0.0227  0.0682  0.1070
16084W        W29498  10.045   5.626   2.842 -0.2338  0.1313  0.0548
16085W        W29499   6.882   7.646  14.577  0.1158 -0.0748 -0.1348
16086W        W29500  13.694   2.558  11.752  0.1301  0.0878  0.2057
16087W        W29501   5.059   6.659   3.162 -0.1099  0.0037 -0.0018
16088W        W29502   4.082  12.195  16.052  0.3575 -0.0429 -0.0724
16089W        W29503  16.390   4.081  11.752 -0.3203 -0.2350  0.1832
16090W        W29504   6.050   9.704  15.244  0.0695 -0.1837 -0.1659
16091W        W29505   8.637   8.509  11.215  0.4841 -0.0978 -0.0324
16092W        W29506   5.392  17.247  12.085 -0.1820 -0.0872  0.3066
16093W        W29507   2.084   0.987   5.247 -0.0866  0.4798  0.1695
16094W        W29508  17.076   3.975  15.250  0.0266 -0.2021 -0.1109
16095W        W29509   3.787  10.530   2.132  0.1337 -0.0269 -0.1151
16096W        W29510   8.336  14.593  12.951  0.0753 -0.1385  0.2677
16097W        W29511  12.887  16.594   1.442  0.0707  0.0078  0.2160
16098W        W29512   5.015  16.964  14.854 -0.0470 -0.0160  0.1073
16099W        W29513  17.602   5.228  13.289 -0.0138 -0.0721  0.0982
16100W        W29514   6.193  16.993  15.287 -0.0792 -0.1694  0.0825
16101W        W29515   0.864   6.612  13.713 -0.1575 -0.1770  0.0025
16102W        W29516  10.229   2.108  12.071 -0.2391  0.4352  0.0102
16103W        W29517   8.200   3.055   1.113 -0.0862 -0.0423 -0.1886
16104W        W29518  17.412   5.786   1.423 -0.1727  0.0811  0.1515
16105W        W29519  17.645  14.690  15.648 -0.2658  0.0205 -0.0376
16106W        W29520   3.375   8.492  15.951 -0.2330  0.3637 -0.1977
16107W        W29521   8.028  14.637  10.768 -0.0256 -0.1331  0.1868
16108W        W29522  12.454  14.150  13.084  0.0456  0.1072  0.1313
16109W        W29523   7.611  14.962   1.875  0.0865  0.1818 -0.1602
16110W        W29524   2.032  14.519  12.170  0.2630 -0.2208 -0.2269
16111W        W29525  17.196  13.185   2.112 -0.0342 -0.0050  0.2173
16112W        W29526   8.015   2.520  13.327 -0.3087 -0.0836 -0.0786
16113W        W29527   8.163  11.895   4.222 -0.0020  0.1359  0.1494
16114W        W29528  12.062   7.368  14.291 -0.1118  0.1609  0.0320
16115W        W29529  12.338  12.640   4.814  0.0854 -0.4292 -0.1561
16116W        W29530  15.209   5.391  11.605 -0.1845 -0.0824 -0.0666
16117W        W29531  11.333   5.315  16.435  0.1199  0.2438  0.0623
16118W        W29532  18.113   9.854  14.080 -0.0672 -0.0675 -0.3810
16119W        W29533   3.490   2.120  12.333  0.2716 -0.0610 -0.2463
16120W        W29534  16.476  10.843  14.486 -0.0568 -0.2347 -0.1503
16121W        W29535   9.307   1.530   0.160 -0.0196 -0.1283 -0.2107
16122W        W29536   3.822  11.488   5.851 -0.1372  0.2938  0.0536
16123W        W29537  15.779   5.496  14.869  0.0897  0.0189 -0.2337
16124W        W29538   0.093   7.014   5.787 -0.2818 -0.0613 -0.0128
16125W        W29539  11.735   5.787  11.214  0.0989  0.2221 -0.0830
16126W        W29540   4.793  15.688   0.299  0.1997  0.3425  0.0726
16127W        W29541   8.907   0.459  16.368  0.2577 -0.2094  0.2300
16128W        W29542  16.835   1.934  14.213  0.0522  0.1170  0.0361
16129W        W29543  15.897  12.027  13.943  0.0304  0.1697 -0.3778
16130W        W29544   0.609  15.877   6.680  0.0858 -0.0300 -0.1852
16131W        W29545   0.516  15.127   5.915 -0.1944 -0.1602  0.2845
16132W        W29546   8.663   2.260   6.173  0.1059  0.0822 -0.0668
16133W        W29547  11.434  11.732   3.830 -0.0168 -0.1608 -0.0900
16134W        W29548   5.661   1.410   4.752  0.2160 -0.0317  0.0439
16135W        W29549  11.507  13.107  13.436 -0.0276  0.1167 -0.0184
16136W        W29550   9.005   8.441   5.225 -0.0508  0.0097  0.0605
16137W        W29551   2.327  15.002   3.041  0.1014  0.0332 -0.1294
16138W        W29552   4.597   6.977  16.020  0.1650  0.2477  0.1188
16139W        W29553  18.167  17.258  13.430 -0.1438 -0.0703  0.0978
16140W        W29554  16.256   8.292  13.920 -0.0455 -0.2792 -0.0355
16141W        W29555  11.937  16.213  14.375 -0.0818  0.1477  0.3741
16142W        W29556   2.166   0.127   6.218  0.0457  0.0345 -0.0669
16143W        W29557  12.000  12.890  15.011 -0.1911 -0.0371  0.5520
16144W        W29558  14.888  13.906   2.159 -0.2272  0.0510 -0.1525
16145W        W29559   9.845  16.035   4.178 -0.4238 -0.1261 -0.1722
16146W        W29560   5.039  13.963   5.462 -0.1838  0.0117 -0.1764
16147W        W29561   2.280  10.424  13.299 -0.2742 -0.0598  0.3892
16148W        W29562   5.853   3.264   3.264  0.1852  0.1057 -0.4306
16149W        W29563   2.273   1.023  15.936  0.0048  0.0003  0.2352
16150W        W29564   8.597   2.526  11.544 -0.0091 -0.0471 -0.1725
16151W        W29565  10.534   8.724   1.287 -0.1441  0.2476  0.0415
16152W        W29566   8.889   1.997   3.717  0.0291  0.3225  0.3697
16153W        W29567   4.347  14.364   5.253 -0.1907 -0.1840  0.0695
16154W        W29568   5.698  12.739   4.932  0.0005 -0.1981  0.1286
16155W        W29569  10.291   2.189  10.501 -0.0499  0.0343 -0.3105
16156W        W29570   5.227   9.051  11.833  0.3609  0.0151  0.0726
16157W        W29571  10.847  10.597  14.085 -0.1567  0.0113 -0.0820
16158W        W29572  13.493  15.936  15.267  0.0541  0.3929 -0.4420
16159W        W29573  15.289   4.690  12.471 -0.1049  0.0948 -0.1720
16160W        W29574   1.161  17.018   5.539 -0.1112 -0.2324 -0.0238
16161W        W29575   8.711  14.744  15.106  0.0786 -0.2679 -0.1852
16162W        W29576  18.024   3.514   2.949  0.2629 -0.0504  0.0536
16163W        W29577  12.485  13.831  14.019 -0.2383 -0.2114  0.0683
16164W        W29578   6.072  10.145   5.422  0.0814 -0.4855 -0.2309
16165W        W29579   7.260  14.173   4.239  0.2528  0.0054 -0.1330
16166W        W29580   9.563   4.464  15.408 -0.0450 -0.1755 -0.2035
16167W        W29581   6.677   7.443   3.981 -0.0759  0.0808  0.3456
16168W        W29582  10.093  10.934   3.346  0.0415  0.0551  0.3245
16169W        W29583   9.039  13.826   2.803  0.2778  0.0006 -0.0976
16170W        W29584   8.631  16.274  12.854  0.2085  0.1581 -0.3946
16171W        W29585  14.537   5.650   0.707  0.0099 -0.3499 -0.1985
16172W        W29586  13.336   8.045   1.272 -0.1275 -0.0519  0.1666
16173W        W29587  15.254  12.087  11.226 -0.1300 -0.0166  0.2067
16174W        W29588  14.772  13.513   5.255 -0.0001 -0.2265  0.1305
16175W        W29589  12.250  17.328  15.096  0.2226 -0.0980  0.2388
16176W        W29590   4.019   0.696   1.170  0.0270  0.0882 -0.0633
16177W        W29591   9.700  12.639   0.183  0.2167 -0.1498  0.3127
16178W        W29592   5.827  12.317  12.990 -0.1056  0.0034  0.1850
16179W        W29593   7.632   3.140  14.868  0.0937  0.1028  0.0813
16180W        W29594  14.990   3.618  14.778  0.1038  0.1675  0.2543
16181W        W29595   5.959   0.910  10.837  0.0875 -0.4289 -0.2713
16182W        W29596  16.339   4.897  11.185  0.2056 -0.2420  0.0461
16183W        W29597   5.969  17.727   4.256 -0.1975  0.0602 -0.0171
16184W        W29598   3.827   3.166  10.600 -0.0291  0.0336  0.1379
16185W        W29599  14.456  15.555   2.653 -0.1487 -0.3931  0.0045
16186W        W29600  10.010   8.515  15.512 -0.2490  0.0477 -0.1141
16187W        W29601   8.762  12.344  15.760 -0.1774  0.0450 -0.0797
16188W        W29602   0.326  12.383   2.771 -0.3633  0.0369  0.0641
16189W        W29603   8.741  11.932  14.102  0.0750  0.2650 -0.1375
16190W        W29604  12.092  10.860   0.217  0.0398 -0.3071  0.2143
16191W        W29605  11.823  11.414   0.456  0.1742 -0.0022  0.0299
16192W        W29606  11.789  16.510   3.490 -0.0772  0.0085 -0.3339
16193W        W29607   6.211   6.689  15.381 -0.0222 -0.0184  0.3129
16194W        W29608   3.231  11.727   3.636  0.1257  0.0958 -0.1304
16195W        W29609  11.272   7.317  15.103 -0.1321 -0.0848 -0.0344
16196W        W29610   3.766  16.196   6.609 -0.0735  0.1743 -0.0372
16197W        W29611   9.861  16.630  11.066  0.1296 -0.1728  0.2665
16198W        W29612  17.998   6.594   1.832 -0.0718 -0.1227 -0.1208
16199W        W29613   8.540  16.265   6.291  0.3444  0.3313 -0.0946
16200W        W29614   5.952  17.185  14.515  0.1877 -0.1750 -0.1137
16201W        W29615   5.633  13.390   2.505 -0.2156 -0.1703  0.0642
16202W        W29616  10.458   8.397   1.980  0.3505 -0.0491  0.1186
16203W        W29617   4.100  10.020   0.122 -0.0200  0.3801  0.4588
16204W        W29618   4.634  11.405  14.984  0.2933 -0.0252  0.0361
16205W        W29619   6.652   0.987   4.361  0.0758 -0.1477  0.2190
16206W        W29620  17.095   5.921  11.222 -0.0280  0.0528 -0.2493
16207W        W29621  11.415  15.168  11.051  0.2215  0.1056 -0.0293
16208W        W29622  16.026  15.938   2.079  0.1292  0.0623 -0.1926
16209W        W29623   1.687  12.996  16.249 -0.0140  0.1846 -0.2845
16210W        W29624   5.639   5.427  13.625 -0.1585  0.0431  0.2595
16211W        W29625  10.626   0.436   2.181 -0.1066 -0.0942 -0.1119
16212W        W29626  11.319   9.650  16.178  0.3380 -0.3287  0.0690
16213W        W29627  14.496  17.263   4.379 -0.1578  0.4398  0.0148
16214W        W29628  13.824   2.339   1.880 -0.3647  0.3237  0.1963
16215W        W29629   7.582   8.175   4.983  0.0497  0.0442 -0.0216
16216W        W29630   3.218   2.365   2.799 -0.0297 -0.0117 -0.0757
16217W        W29631  15.941  15.063  14.408 -0.4045  0.2284  0.0081
16218W        W29632  13.412   4.976  14.851  0.3644 -0.1108 -0.1049
16219W        W29633   9.337   6.577   3.343 -0.2176  0.1031  0.1398
16220W        W29634  15.334   4.527  10.077 -0.0455  0.3944  0.0391
16221W        W29635  15.709  13.078   2.376  0.2986  0.0891 -0.1384
16222W        W29636   0.993  12.108   1.871  0.2066 -0.1203  0.2062
16223W        W29637  13.853   9.824  11.775  0.3474 -0.0092 -0.2068
16224W        W29638   4.404  12.776  11.360 -0.0424 -0.1069 -0.2432
16225W        W29639   2.366   7.947  16.330  0.0548 -0.1773 -0.1748
16226W        W29640  16.874   9.553  14.717  0.2957  0.0922  0.0629
16227W        W29641   6.520   9.600   4.903 -0.0940  0.1960 -0.0283
16228W        W29642   9.562   7.395   0.703  0.1194 -0.0726 -0.0786
16229W        W29643  10.564   5.978  12.021 -0.3096 -0.0962 -0.3810
16230W        W29644   3.717  14.967   4.084  0.0530  0.0291  0.0540
16231W        W29645  13.697   7.835   1.615  0.1352  0.3943  0.0474
16232W        W29646  10.660   1.328  16.125  0.0874  0.0109  0.0806
16233W        W29647  12.690   8.581  10.265 -0.1123 -0.0955  0.1940
16234W        W29648   5.209   8.153  12.202 -0.0477 -0.1181 -0.2927
16235W        W29649  15.952   7.374  15.810  0.0781  0.1732  0.0988
16236W        W29650   9.260   9.943  13.626  0.1929  0.3376  0.2494
16237W        W29651   5.240   3.333   2.599  0.1041  0.3869  0.1604
16238W        W29652   5.802   1.772  11.114 -0.0895  0.1690  0.0292
16239W        W29653   9.237   3.221   3.363  0.0716  0.2517  0.0703
16240W        W29654  15.711  11.162  14.330 -0.1271  0.1373 -0.2067
16241W        W29655   8.387   9.027  16.121 -0.0273 -0.0127 -0.2190
16242W        W29656   6.975  10.088  13.942 -0.2804 -0.0538  0.0077
16243W        W29657  13.958  17.844   2.099 -0.1152  0.0326  0.3228
16244W        W29658   3.430   0.173  11.914 -0.1728  0.0676 -0.0828
16245W        W29659   3.363   2.765   3.742  0.1724 -0.0256 -0.1252
16246W        W29660  10.479  13.416  11.331  0.2105 -0.0364 -0.0187
16247W        W29661   8.154  12.898   1.420 -0.1888 -0.1429  0.1554
16248W        W29662  12.603  14.514   0.978  0.0086  0.0465  0.1853
16249W        W29663   2.432  13.340  14.091  0.0668  0.0862 -0.0302
16250W        W29664   3.778   0.124  13.809 -0.6743 -0.0103  0.2831
16251W        W29665   7.779  11.449  11.550  0.0720  0.3642  0.1428
16252W        W29666   5.231   0.600  15.350 -0.2463 -0.2226 -0.2594
16253W        W29667   5.422   0.372  12.078 -0.0936  0.1028 -0.2027
16254W        W29668   1.296   8.724   4.502 -0.2489  0.1531  0.0700
16255W        W29669  16.961  12.976  14.527  0.2788 -0.0185  0.0404
16256W        W29670   5.817  16.509   5.193 -0.0486  0.2614 -0.1842
16257W        W29671  15.506  15.123   0.074  0.0703 -0.1259  0.1929
16258W        W29672  17.960  16.983   4.311 -0.1243  0.1023  0.3029
16259W        W29673   7.971  12.526  13.552 -0.2529 -0.1199  0.1206
16260W        W29674   9.099  17.772  13.647  0.1556 -0.0319  0.1651
16261W        W29675   3.429   0.655   3.441  0.1846  0.1274 -0.0421
16262W        W29676  14.136   7.591   4.627 -0.2249  0.0536 -0.1950
16263W        W29677   7.603   7.773  15.370  0.1250  0.2242  0.0854
16264W        W29678   4.156  10.657   5.953  0.1240  0.2940  0.1098
16265W        W29679   5.702  13.356  12.224 -0.1600  0.3102  0.0109
16266W        W29680   5.626  12.763  15.063 -0.2229  0.0797  0.0622
16267W        W29681   0.084  11.023   3.287 -0.0239  0.0394 -0.2102
16268W        W29682   8.696   2.214   4.417 -0.0399  0.0140 -0.4544
16269W        W29683   9.867  10.863   0.657  0.1364  0.2808  0.3253
16270W        W29684   2.993  11.147   0.938  0.0199 -0.0705 -0.0290
16271W        W29685   9.370   8.091   5.435 -0.0762 -0.0194  0.2630
16272W        W29686   1.157  13.544  14.728 -0.2938 -0.1984 -0.0329
16273W        W29687   9.157   9.936  15.755  0.0240  0.1511 -0.1868
16274W        W29688   9.413  17.702  14.089 -0.1090 -0.0907  0.0294
16275W        W29689   0.226  16.976   4.465 -0.0456 -0.0914 -0.2206
16276W        W29690   1.790   1.553  15.371  0.0792  0.0336  0.0061
16277W        W29691   8.479   4.569  12.057 -0.2663 -0.0609  0.0233
16278W        W29692  11.204   7.213   0.861 -0.1608  0.1053 -0.1808
16279W        W29693   4.407   4.367   5.033  0.0075  0.0113  0.1396
16280W        W29694   2.372   2.682  10.867 -0.0316 -0.2042 -0.0075
16281W        W29695   2.886   1.370  12.905  0.2118  0.1996 -0.1876
16282W        W29696  16.101   3.756   2.979 -0.0110 -0.1154  0.1525
16283W        W29697   0.647   9.284  15.882 -0.0165  0.2481  0.1382
16284W        W29698   8.803   1.204   2.932 -0.2074  0.2776 -0.2205
16285W        W29699   7.413   5.864  16.171  0.0420  0.0278 -0.2374
16286W        W29700  10.107   3.448  16.089 -0.1460 -0.1816 -0.3023
16287W        W29701   4.848  16.506  14.010 -0.2667 -0.1118  0.4121
16288W        W29702   7.846  12.241  16.226  0.1958  0.0364  0.2939
16289W        W29703  18.189  12.888   2.289 -0.0666  0.1693  0.0276
16290W        W29704   5.704  12.360   3.608  0.1356  0.1660  0.0992
16291W        W29705  17.956  12.647  11.120  0.1369  0.0552  0.1202
16292W        W29706   9.348  17.165   2.185  0.2608 -0.2320 -0.0067
16293W        W29707  16.902  11.160  14.845  0.0801 -0.1650 -0.1358
16294W        W29708   6.220  12.801   5.067  0.1238 -0.1345  0.1774
16295W        W29709  15.656  14.171   2.870 -0.0383  0.0318 -0.1399
16296W        W29710  15.728  10.495   5.545  0.0485 -0.1233 -0.2675
16297W        W29711  12.740   1.934   0.073 -0.1742 -0.3487  0.1153
16298W        W29712   5.667   4.728   6.514  0.0275  0.0270  0.3085
16299W        W29713   1.112   4.381   5.380  0.1900  0.0660 -0.0729
16300W        W29714   9.641   8.093   3.187 -0.3099 -0.0592 -0.0788
16301W        W29715  14.057   7.482   3.759 -0.1017 -0.0709 -0.1827
16302W        W29716   1.254   6.351   1.103  0.1783  0.0335 -0.0642
16303W        W29717  17.290   4.694  11.857  0.1566  0.0961  0.0038
16304W        W29718  10.867  12.376  10.679  0.0174 -0.0963 -0.0227
16305W        W29719   3.795  11.801  15.756  0.1274 -0.0846  0.3328
16306W        W29720   6.168   1.985  11.869  0.2194  0.1190 -0.2321
16307W        W29721   1.751  15.759  15.404 -0.2130 -0.1160 -0.1490
16308W        W29722   5.692   5.214   6.332 -0.3336  0.0349  0.0186
16309W        W29723   9.581   1.823  14.432  0.1209 -0.0895 -0.2056
16310W        W29724   2.968   6.416  10.813 -0.0128  0.0756 -0.0904
16311W        W29725  16.360   1.526   5.087 -0.0214  0.3710  0.2139
16312W        W29726  11.518   9.404  12.812  0.4755  0.1262 -0.1082
16313W        W29727   0.207   6.610  15.440 -0.0737  0.3261  0.1479
16314W        W29728   0.002   3.423   0.804  0.1303 -0.0858  0.1885
16315W        W29729  10.837   6.092   5.132  0.1597  0.3099 -0.0335
16316W        W29730   3.623   0.325  10.012  0.0117 -0.1786 -0.0822
16317W        W29731  16.449   3.704  12.460  0.1456  0.0416  0.0511
16318W        W29732   9.861   5.148  13.417  0.1022 -0.1226 -0.1859
16319W        W29733  15.487  15.208  15.111  0.0856 -0.3554  0.0474
16320W        W29734  12.559   5.272  13.526  0.0355  0.2081  0.2725
16321W        W29735  12.822   7.555  15.684  0.0165  0.1023 -0.0948
16322W        W29736   0.408   7.831   3.662 -0.1907 -0.1536  0.1426
16323W        W29737   4.709  15.349   4.234 -0.0231 -0.0856 -0.1941
16324W        W29738   6.609  11.275   5.348 -0.2002 -0.0593  0.1258
16325W        W29739  17.135  16.934  15.244  0.0471  0.0502 -0.1575
16326W        W29740  17.641  14.942  15.177 -0.2052 -0.1048  0.4358
16327W        W29741  14.996   1.038  16.298 -0.0938  0.0645  0.2771
16328W        W29742  14.714   2.557   3.406 -0.1216 -0.2302 -0.0882
16329W        W29743  17.992   3.833  15.587 -0.0544 -0.1782 -0.1799
16330W        W29744   3.338   3.578   1.942  0.2458  0.0826  0.2241
16331W        W29745   3.000  11.158  10.754 -0.1848  0.2448  0.1464
16332W        W29746   6.214   0.438  13.296 -0.2382 -0.1216 -0.0222
16333W        W29747  16.382  10.470   2.046 -0.0931  0.0982  0.2157
16334W        W29748  14.130   3.209   2.231 -0.0888  0.0382 -0.1183
16335W        W29749  11.740  10.005  14.637 -0.1155 -0.1114  0.3477
16336W        W29750   5.779   0.923   4.929 -0.1108 -0.1736 -0.0507
16337W        W29751  12.111   6.374   0.087  0.1260  0.4276  0.0758
16338W        W29752  11.175   6.357  15.039 -0.0966 -0.0628 -0.0144
16339W        W29753   2.215  11.920  13.165 -0.1874 -0.6329  0.2233
16340W        W29754  10.168  14.027  13.994 -0.4783 -0.0804 -0.0395
16341W        W29755  12.592   4.046   0.215  0.0451 -0.0252 -0.1005
16342W        W29756  10.200   1.638   9.836  0.0521 -0.0761 -0.0046
16343W        W29757  14.244   0.476   4.302  0.0409  0.1322 -0.0717
16344W        W29758  15.544  13.788   3.827 -0.1340  0.1647 -0.1357
16345W        W29759  16.766   6.158  12.701  0.0148 -0.2118 -0.0751
16346W        W29760  15.196   0.994   5.391  0.1200 -0.0083 -0.0999
16347W        W29761   5.333  11.870  12.124  0.0489 -0.0922  0.0296
16348W        W29762  17.333  16.904   3.500 -0.2422  0.2375 -0.0650
16349W        W29763  16.737  16.518   4.316  0.1163  0.1538 -0.0887
16350W        W29764  11.124   8.936  14.971 -0.0743  0.1044 -0.0530
16351W        W29765  14.021  17.058   1.275 -0.0410 -0.0705  0.0356
16352W        W29766   2.755  15.267   5.857  0.0999 -0.1112 -0.0781
16353W        W29767   7.280   5.638   1.857 -0.0846  0.3447  0.2534
16354W        W29768   3.466  12.500   4.996  0.3227 -0.0823 -0.0179
16355W        W29769  15.754  16.950   0.595  0.0116 -0.0910 -0.1076
16356W        W29770  16.083  14.278   2.604 -0.0911  0.3495  0.1259
16357W        W29771   7.236   3.318   5.554  0.1166  0.0121  0.3478
16358W        W29772   9.497  16.054  12.331 -0.1032  0.1830  0.1696
16359W        W29773  12.349  17.096   4.844  0.0781 -0.1002 -0.2436
16360W        W29774  15.081  13.924   3.573 -0.0433 -0.0074  0.1744
16361W        W29775  11.431   9.874  14.274  0.1340  0.1488 -0.1080
16362W        W29776   8.451   8.830   1.670 -0.0996 -0.1814  0.0318
16363W        W29777  15.295   9.266  16.410 -0.1508  0.1854 -0.1513
16364W        W29778  14.529  17.678   0.750  0.2364  0.3242  0.0331
16365W        W29779  12.393  14.688  10.633  0.1752  0.0686 -0.0069
16366W        W29780  10.642  14.613  13.644 -0.0854  0.3340  0.1614
16367W        W29781  14.916   1.610  15.757  0.0406 -0.0032  0.2423
16368W        W29782  13.666  14.456   3.905 -0.1594 -0.2603 -0.2539
16369W        W29783  13.537  12.975   2.540  0.0052  0.0666  0.1164
16370W        W29784  10.446  15.649  10.370 -0.1007 -0.1092  0.1493
16371W        W29785  15.940   1.060   0.787 -0.0780  0.1228 -0.1635
16372W        W29786  14.015   6.732  11.011  0.0179  0.0375 -0.1511
16373W        W29787   6.571  13.127   4.954  0.1159 -0.0615  0.1981
16374W        W29788   5.093  13.227   3.552 -0.2372  0.1284  0.0810
16375W        W29789   9.662   4.366  13.644  0.1081 -0.0119 -0.1445
16376W        W29790   6.434   3.243   3.556 -0.0899 -0.1484  0.2796
16377W        W29791   2.872  15.979   3.761  0.0171 -0.1468 -0.0900
16378W        W29792   2.597  17.702  13.039 -0.0702  0.5569  0.2931
16379W        W29793   7.948   1.289   3.349  0.0570 -0.1737  0.3322
16380W        W29794  16.013   5.086  16.165  0.1560  0.1388  0.0172
16381W        W29795  13.015   3.413   4.943  0.2379 -0.4223 -0.2321
16382W        W29796  15.903   4.253   2.948 -0.0595  0.0730  0.0404
16383W        W29797   7.520   9.895   0.791  0.2338 -0.1766 -0.1536
16384W        W29798  17.759  10.063   1.982 -0.1616 -0.0880 -0.2137
16385W        W29799   6.847   0.115  15.674 -0.2369  0.0462 -0.2246
16386W        W29800   6.207  11.251   5.796 -0.0137 -0.2582  0.1456
16387W        W29801  15.497  11.775   1.086 -0.1479 -0.0829 -0.1859
16388W        W29802   5.446   7.402  15.417 -0.2203 -0.1145  0.1901
16389W        W29803  13.330  14.426   0.336 -0.2157 -0.3425 -0.1299
16390W        W29804   3.128   7.907  12.602  0.0995 -0.1284  0.1624
16391W        W29805  15.494   1.231  16.142  0.1854  0.1043 -0.0937
16392W        W29806   6.919  18.015  14.874 -0.0015  0.1543  0.1903
16393W        W29807   7.441   7.923   4.170  0.0450  0.1225  0.2461
16394W        W29808  18.129   6.165  15.655 -0.0270  0.1093  0.0215
16395W        W29809   7.601   4.137  14.005 -0.1152 -0.1919  0.0800
16396W        W29810  15.206  13.078  11.376 -0.0824  0.2368  0.3902
16397W        W29811   9.539   7.009   1.150  0.0461  0.0206  0.2539
16398W        W29812   0.556  13.073  11.306 -0.0837  0.0136  0.2299
16399W        W29813   5.774   2.982  15.937 -0.3287  0.0308 -0.3128
16400W        W29814   0.762  12.020  15.554  0.0849 -0.2747  0.2113
16401W        W29815   0.321  16.784   3.559  0.0728 -0.0418  0.0347
16402W        W29816   2.228  10.083  12.489  0.1090  0.0624  0.4044
16403W        W29817   1.217   1.539  13.821 -0.3842  0.1291 -0.1226
16404W        W29818   0.585  16.240   3.267  0.2056  0.2386 -0.2593
16405W        W29819   8.081   0.734  11.340 -0.3317  0.1652 -0.0765
16406W        W29820  15.022  11.272   9.802 -0.0596 -0.1926 -0.1093
16407W        W29821   1.557  16.633   1.372 -0.1253 -0.2150 -0.0063
16408W        W29822   7.505  10.449   5.664 -0.0834 -0.3334 -0.1967
16409W        W29823   5.050  14.710   0.881 -0.0371 -0.0763  0.3361
16410W        W29824  12.994   9.027   5.358 -0.2408  0.1059 -0.1924
16411W        W29825   1.844   0.111   4.709  0.1637  0.1391  0.0692
16412W        W29826   4.147  17.182   3.519  0.0029 -0.1561  0.2138
16413W        W29827  18.185   6.119  15.177 -0.0165  0.0976 -0.2001
16414W        W29828   0.734  14.425   5.293 -0.1587 -0.2645  0.0307
16415W        W29829   6.965   1.167   5.182 -0.1889  0.1295 -0.1359
16416W        W29830   9.928   3.043   3.972  0.0365  0.0937  0.2654
16417W        W29831   5.437   3.683  13.615 -0.0824 -0.0703  0.0820
16418W        W29832  12.582   0.097   3.933 -0.0178 -0.1229 -0.1982
16419W        W29833  16.292   9.660   5.969  0.0444  0.1849  0.0719
16420W        W29834   7.931   0.958   5.102  0.0500 -0.0466 -0.0339
16421W        W29835   9.493   3.095  12.470 -0.1944  0.0193  0.0365
16422W        W29836  17.776   6.289  12.730  0.1284 -0.3408  0.1775
16423W        W29837  14.783  16.386  13.269  0.1043 -0.0080  0.1619
16424W        W29838   1.627   2.295  13.327  0.0275  0.1133  0.0318
16425W        W29839   9.934   7.005   3.125 -0.1648 -0.1068  0.1118
16426W        W29840   4.516   2.347   1.509  0.1715 -0.0355  0.1637
16427W        W29841  14.363  13.363  14.214 -0.0612  0.0036 -0.4195
16428W        W29842   7.573  11.365  11.056  0.1814 -0.0742  0.0646
16429W        W29843   2.070   4.217   0.431  0.2217  0.2421 -0.1193
16430W        W29844  17.813   2.232  11.440  0.2258 -0.1563 -0.0340
16431W        W29845   9.055   2.996   0.216  0.0934 -0.2367 -0.0524
16432W        W29846  13.181  16.397   4.297 -0.1169 -0.0369 -0.2976
16433W        W29847   7.045  13.247   3.457 -0.0336 -0.3480 -0.0497
16434W        W29848  11.089   6.176  16.416  0.0304 -0.0987  0.2018
16435W        W29849  10.923  12.729   5.013 -0.1900  0.2192  0.1622
16436W        W29850  15.810  11.141   0.299 -0.1001 -0.1844  0.1015
16437W        W29851  16.961   1.550  14.535  0.0780 -0.0665 -0.2310
16438W        W29852  15.449  16.307  15.091 -0.0523 -0.0473  0.2563
16439W        W29853  13.643   2.694   1.586 -0.3649 -0.1928 -0.3392
16440W        W29854  10.377   3.512  13.149 -0.0640  0.1409  0.3175
16441W        W29855  17.999   5.545  13.510 -0.1968 -0.2850  0.1755
16442W        W29856   1.127   6.945  11.187  0.0836  0.1208  0.0031
16443W        W29857  15.349  13.501   3.460 -0.1706  0.1104  0.0008
16444W        W29858   8.909  17.552   4.375  0.1026  0.0371 -0.2685
16445W        W29859   7.807   4.986   2.567  0.0643 -0.0440  0.0345
16446W        W29860   2.918   2.043   4.199  0.2758 -0.2935  0.0747
16447W        W29861   6.156   1.999   4.199  0.2197 -0.0010  0.0943
16448W        W29862  13.035   1.038   3.189  0.0956  0.1003 -0.1055
16449W        W29863   2.240   0.209  12.707 -0.0549  0.1101 -0.2292
16450W        W29864   5.870   2.434   4.662 -0.0829 -0.0662  0.0875
16451W        W29865   4.501   7.741  16.139 -0.1492  0.3374 -0.2373
16452W        W29866  17.210  14.891   3.581  0.2203 -0.1879 -0.0088
16453W        W29867  13.391  14.802  15.673 -0.1329 -0.3080  0.2574
16454W        W29868  10.347   3.884   2.008 -0.1426 -0.3728  0.0347
16455W        W29869  14.567  15.725  12.161 -0.0010 -0.1651  0.1842
16456W        W29870   8.722  15.724  12.438  0.4106  0.1943  0.0361
16457W        W29871   2.302   2.375   0.833 -0.1244 -0.0152  0.0735
16458W        W29872   8.051   6.981  12.893 -0.1080 -0.2709  0.0270
16459W        W29873   0.026  15.975  13.162  0.1519 -0.4362 -0.1337
16460W        W29874  11.658  15.785  11.695 -0.1713 -0.1201  0.1712
16461W        W29875   7.654  11.996  13.557 -0.1441  0.0333 -0.0240
16462W        W29876  12.219   3.520  13.495  0.0675  0.3183 -0.1861
16463W        W29877  14.957  11.742  15.931  0.1893 -0.0762  0.1807
16464W        W29878   9.739   9.354   4.691 -0.0631 -0.1689 -0.1543
16465W        W29879   9.556  12.061   3.017 -0.2089  0.0618  0.2517
16466W        W29880   0.320   5.438   1.947 -0.1493 -0.3994  0.1499
16467W        W29881  16.871   8.267  11.644  0.3361  0.0347  0.1871
16468W        W29882   2.817   4.665  14.334  0.0161  0.3674 -0.0125
16469W        W29883  17.520   7.594   1.007  0.2014  0.0089  0.0388
16470W        W29884   8.044   2.913  13.625 -0.0655 -0.1066 -0.0701
16471W        W29885  13.178   7.319  10.916  0.2008 -0.1041  0.0461
16472W        W29886  14.310  11.087  11.475 -0.1723 -0.1071 -0.1141
16473W        W29887   5.083   4.382   5.977 -0.1527  0.2711 -0.0435
16474W        W29888  13.858  11.230  14.061 -0.1956 -0.0707  0.0517
16475W        W29889   4.844   6.019  16.260 -0.0237 -0.1653 -0.0241
16476W        W29890  10.734   7.121   4.915 -0.0427  0.0992 -0.1534
16477W        W29891   2.130  17.869   2.783  0.0213 -0.0123  0.3086
16478W        W29892  15.945   9.038  12.443  0.1191 -0.1356 -0.1558
16479W        W29893  14.776  10.463   4.378  0.0425  0.1906  0.2342
16480W        W29894   1.864  10.441   1.674  0.3164 -0.0736 -0.1860
16481W        W29895   8.411   9.796   3.350  0.1160  0.0739  0.3425
16482W        W29896   8.306  15.830   5.369  0.2416 -0.2000  0.2257
16483W        W29897   0.276  15.857  10.465 -0.1757  0.0797 -0.1270
16484W        W29898  10.581   8.666  14.124 -0.3525  0.0823 -0.2621
16485W        W29899   6.943  11.084  16.349  0.3787 -0.3695  0.0252
16486W        W29900   2.788  15.062   2.873 -0.3312  0.1167 -0.4149
16487W        W29901   2.864   0.062   3.749  0.1482  0.2617  0.0401
16488W        W29902  18.194   2.867   2.359 -0.0068 -0.0544 -0.3259
16489W        W29903  13.848   8.928  13.030 -0.0319 -0.1754 -0.0213
16490W        W29904  13.308  17.258  13.420 -0.1065  0.2603  0.2079
16491W        W29905   0.801   7.131   4.604  0.0319  0.0997  0.1094
16492W        W29906  13.650   0.666   5.519  0.0657 -0.3758  0.1317
16493W        W29907  14.514  12.394  15.416  0.2815  0.2923  0.3585
16494W        W29908   7.101   0.460   2.046  0.4188  0.0888 -0.2102
16495W        W29909   7.351   8.692  11.969  0.2626  0.2435 -0.0309
16496W        W29910  14.728   8.740  12.808  0.2248 -0.2489  0.1337
16497W        W29911   4.999   9.032   2.734  0.0726 -0.1659  0.3002
16498W        W29912  10.497   0.613   4.481  0.1395  0.2216  0.0642
16499W        W29913  10.800   8.803   0.861 -0.0926  0.0662 -0.0886
16500W        W29914  12.251   8.629   4.082  0.0151 -0.2599  0.0464
16501W        W29915   5.966  13.055   4.657 -0.1501 -0.0328  0.0307
16502W        W29916   5.719  16.153   3.176 -0.0657 -0.3656 -0.0905
16503W        W29917   9.911  14.106   5.033 -0.1870  0.0500 -0.0162
16504W        W29918   1.881  15.097   0.412 -0.2169  0.2171  0.2838
16505W        W29919   0.981  18.208   1.928  0.2622 -0.0659 -0.0009
16506W        W29920  15.156  15.764   4.242 -0.0081 -0.0330  0.1508
16507W        W29921   6.564   4.990  10.442  0.3703 -0.0102  0.2690
16508W        W29922   1.225  17.054   1.244 -0.2332  0.1425  0.1788
16509W        W29923   5.568  13.472  11.649  0.1476  0.3615  0.1679
16510W        W29924   6.051   0.781   1.697  0.0547 -0.1667 -0.0251
16511W        W29925   3.680   4.558   3.503 -0.2112  0.5573  0.2868
16512W        W29926  17.492  11.791  12.368  0.2165 -0.1489 -0.2113
16513W        W29927   1.307   9.208   2.215 -0.2664 -0.1371 -0.0338
16514W        W29928   9.993   0.125   0.393  0.1891 -0.0820  0.0143
16515W        W29929   8.122  17.184  14.177 -0.2099  0.0783  0.0997
16516W        W29930  17.691   0.330  13.167 -0.0078 -0.2844  0.1392
16517W        W29931  11.983  10.520  13.851 -0.2359 -0.0847 -0.1254
16518W        W29932  15.096  12.099   0.985 -0.0828 -0.0032  0.2975
16519W        W29933  17.586   5.620   0.898  0.1654 -0.2507  0.0426
16520W        W29934  16.554  11.139   3.059 -0.1052  0.0333 -0.1746
16521W        W29935  10.331   5.101  13.439 -0.0782  0.0476  0.0351
16522W        W29936  17.926  11.556  12.623  0.1244  0.0768  0.0841
16523W        W29937   0.620  17.805  14.277  0.0911  0.0073 -0.1730
16524W        W29938  15.263  17.046   0.825  0.2828 -0.2888  0.0076
16525W        W29939  12.098  12.751   2.151 -0.0380 -0.1402 -0.0834
16526W        W29940   2.166  18.087   1.871  0.0118  0.0971  0.2144
16527W        W29941  15.618  11.569  15.316  0.3587  0.0312 -0.3601
16528W        W29942   6.950  15.418  14.985 -0.0290 -0.1090 -0.0617
16529W        W29943   6.877  16.633  13.647  0.0151 -0.2184  0.0402
16530W        W29944  11.787  15.155   5.539 -0.0880  0.1259 -0.0797
16531W        W29945   0.963  16.908   4.045 -0.3770 -0.0570 -0.3205
16532W        W29946   3.833  10.676   6.943  0.0798  0.1725 -0.0625
16533W        W29947  17.336  16.936  13.073  0.0588 -0.1249 -0.0092
16534W        W29948   0.986   2.555   0.636  0.1402 -0.3274 -0.0164
16535W        W29949   8.473  14.708  11.077 -0.3048 -0.2867 -0.2293
16536W        W29950   7.157  10.741  13.416  0.1335  0.2649  0.3081
16537W        W29951   7.187   0.404   2.950 -0.0179  0.0435  0.3186
16538W        W29952  14.656   5.452  11.559  0.0931  0.0536  0.0286
16539W        W29953   8.585  11.005  13.722 -0.1610  0.3318  0.0160
16540W        W29954   3.262  13.511  16.475 -0.0741  0.1433  0.0510
16541W        W29955  14.792  12.366   2.779  0.1217  0.0414  0.1242
16542W        W29956  17.339  12.075   4.943  0.0084 -0.1258  0.4206
16543W        W29957   0.188   6.519  12.018  0.0930  0.0344 -0.1299
16544W        W29958  10.376   6.599   5.671 -0.1289 -0.2616 -0.1156
16545W        W29959  17.197   5.350   0.762  0.1261  0.2737 -0.0623
16546W        W29960   4.489  12.253  10.518  0.4026  0.2783 -0.2088
16547W        W29961   0.439  12.589   5.004 -0.3162 -0.0664  0.1185
16548W        W29962  14.570   0.530  15.374 -0.4338 -0.0125 -0.1096
16549W        W29963  11.597   6.330  15.333  0.1259 -0.0813 -0.1315
16550W        W29964   8.561   7.233   2.965  0.1315 -0.1021 -0.1150
16551W        W29965  10.796   8.901  16.355 -0.1799 -0.0257  0.1492
16552W        W29966  17.979  10.653   1.227 -0.0020  0.1358  0.0855
16553W        W29967   8.048  13.332   1.267 -0.3787  0.0174  0.2209
16554W        W29968   9.981  12.542  16.275  0.0090 -0.2264 -0.1874
16555W        W29969   6.457   9.215  14.476  0.1383  0.1168  0.2009
16556W        W29970   5.672  11.759  13.805 -0.0649 -0.2623 -0.3039
16557W        W29971   4.402   2.654   1.863  0.0044 -0.0081 -0.2716
16558W        W29972   7.298  15.323   1.801 -0.2888  0.0282 -0.0623
16559W        W29973   6.772   2.018  15.698  0.1196  0.1213 -0.0040
16560W        W29974  15.985  13.700  14.465  0.0616  0.1884 -0.0014
16561W        W29975   7.061  11.861   3.450 -0.0624 -0.0268  0.0231
16562W        W29976   3.127   4.484   2.881 -0.0244  0.2047  0.0138
16563W        W29977  11.437   0.588   1.888  0.0230 -0.0479 -0.1116
16564W        W29978   7.190   1.844   9.823 -0.0542 -0.0754 -0.0082
16565W        W29979   2.119  16.639  12.732 -0.0975  0.0825  0.1560
16566W        W29980   3.740  13.925   5.784  0.0950  0.0022 -0.1703
16567W        W29981  14.865   6.349   3.488  0.1699 -0.0367 -0.2204
16568W        W29982   5.876   5.006  13.539 -0.1949 -0.0843  0.1146
16569W        W29983  15.856  17.130  10.175  0.0411 -0.0672 -0.1801
16570W        W29984   3.565   8.724  10.957  0.0735  0.0683  0.0402
16571W        W29985   6.777  16.924  14.589 -0.1257 -0.1768 -0.1156
16572W        W29986  17.804  13.635  11.028 -0.1788 -0.1179  0.0124
16573W        W29987  14.578   3.828  11.654  0.2427 -0.3275  0.4903
16574W        W29988   4.389   4.395  11.962 -0.0364  0.0732 -0.0272
16575W        W29989   4.265  15.185  15.524 -0.1483 -0.1069  0.5548
16576W        W29990  15.506   1.080   4.748 -0.1710  0.1900 -0.3446
16577W        W29991   9.463  17.468   2.706  0.2203  0.0504 -0.0885
16578W        W29992   8.562   7.774   1.619  0.1187  0.3874 -0.1275
16579W        W29993   2.241  13.165   4.277  0.0288 -0.2198 -0.0863
16580W        W29994   9.835   2.888  14.543 -0.2122  0.2114  0.1841
16581W        W29995  17.899  13.015   1.828  0.0263 -0.0577 -0.3483
16582W        W29996   4.286  16.237  12.232 -0.1766  0.1515 -0.1072
16583W        W29997  12.559  14.804   5.451 -0.0491  0.0694  0.2178
16584W        W29998   9.341  12.635  14.402 -0.1038  0.3750  0.4688
16585W        W29999  10.672   9.534  15.434 -0.0134 -0.0811  0.0104
16586W        W30000   5.804  11.841   3.412  0.2031  0.0514  0.0934
16587W        W30001  10.735   6.043  14.920 -0.3037 -0.0012 -0.3855
16588W        W30002   7.407  15.113  14.332 -0.1929 -0.2042 -0.0750
16589W        W30003  10.191  12.694  11.945 -0.0641  0.3099  0.1481
16590W        W30004   2.271  10.084   5.244 -0.1219 -0.0609  0.2827
16591W        W30005   2.760  13.072  10.519  0.0419 -0.1353 -0.1119
16592W        W30006  12.550   2.965  14.784 -0.0357  0.2764  0.0253
16593W        W30007   8.026   4.357  12.756 -0.1460 -0.0588  0.1131
16594W        W30008   8.367   2.943  13.236  0.0023  0.3235  0.1695
16595W        W30009  17.814   8.143   3.581 -0.0831  0.4752  0.5030
16596W        W30010  13.399   0.916   3.481  0.0330  0.0924 -0.0555
16597W        W30011  11.243   8.004  11.836 -0.0361 -0.0957  0.1176
16598W        W30012   9.291   2.199  10.492  0.0580 -0.2522  0.0159
16599W        W30013   7.972   3.962  13.051 -0.0321 -0.1626 -0.2270
16600W        W30014   4.030   7.569  14.798 -0.2367  0.0083 -0.3902
16601W        W30015  17.405   3.424  15.264  0.0438  0.0709  0.0856
16602W        W30016  14.842   8.258  13.641 -0.1463  0.2089  0.0204
16603W        W30017   9.223   7.023  11.648  0.0498 -0.3228 -0.1198
16604W        W30018  13.984   4.685   5.120  0.0867  0.4400 -0.1079
16605W        W30019  12.250   1.481  12.478 -0.0474  0.1257  0.1994
16606W        W30020   5.816  10.061  10.555 -0.1061 -0.0605  0.3311
16607W        W30021  10.690   0.103   0.051 -0.0674  0.4480  0.0332
16608W        W30022   4.149  13.464   6.353  0.1463 -0.0108 -0.0284
16609W        W30023   4.254  16.049   1.476  0.0558  0.1745  0.0211
16610W        W30024  17.564  18.069   6.213 -0.0385  0.1619  0.3716
16611W        W30025  16.795  14.928   0.350  0.1307 -0.0180  0.0418
16612W        W30026   0.964  11.702   4.108  0.0703  0.0974 -0.2819
16613W        W30027   2.474  11.647  13.826  0.1172 -0.0378  0.0004
16614W        W30028   0.164   4.542   1.516 -0.1682 -0.0782 -0.1626
16615W        W30029   2.786  12.380   0.710 -0.0289 -0.2668 -0.1160
16616W        W30030   3.754   9.308  11.530  0.1122  0.0896  0.0660
16617W        W30031  13.294  11.893  14.335 -0.0872 -0.2630  0.1244
16618W        W30032  11.640   1.472   5.729  0.1788 -0.2014 -0.2024
16619W        W30033  16.677   7.857   0.872  0.0237  0.0188  0.3773
16620W        W30034  15.120   4.623   2.375 -0.0122 -0.1196 -0.2985
16621W        W30035   2.757  10.303   1.028 -0.0833  0.1408 -0.0697
16622W        W30036   2.100   2.628   3.852  0.0214 -0.0311  0.3200
16623W        W30037   5.414  15.580   2.534 -0.2661 -0.0552 -0.1464
16624W        W30038  14.463   6.694  15.578 -0.1312 -0.0208  0.0410
16625W        W30039   5.104   6.813   0.114 -0.2370 -0.0104  0.0323
16626W        W30040   0.161   2.200  13.872  0.0928 -0.0276 -0.1701
16627W        W30041  11.219   4.206  16.428  0.1989  0.0991 -0.0061
16628W        W30042   3.167   9.216   1.941  0.0318 -0.3153  0.1738
16629W        W30043   7.823  10.087   0.404 -0.0294  0.0276 -0.2183
16630W        W30044   2.883  10.766   3.611 -0.0711  0.1403 -0.3280
16631W        W30045   3.546  16.840  11.078  0.0114  0.0623  0.1472
16632W        W30046   0.290   2.538  11.817  0.1683  0.1655 -0.0594
16633W        W30047   3.790  17.727  16.205 -0.3362 -0.1441 -0.2737
16634W        W30048   7.072   1.892  12.781  0.0884 -0.1632  0.1334
16635W        W30049   7.690  15.324  15.827 -0.2542 -0.1045 -0.2559
16636W        W30050   5.893  17.666  13.413  0.0362 -0.0033  0.1946
16637W        W30051  13.717  10.711   2.945 -0.1786  0.1736  0.2411
16638W        W30052  11.171   5.835  15.051 -0.2271  0.2701 -0.0785
16639W        W30053   4.934   4.308  13.968 -0.1541  0.2673 -0.2892
16640W        W30054  13.495   8.406  15.046 -0.0672 -0.0899  0.0501
16641W        W30055   1.923  11.811   1.862  0.5151  0.2767 -0.0850
16642W        W30056   2.066  14.117   0.651  0.2078  0.0081  0.0037
16643W        W30057  16.722   7.682  12.270 -0.0043 -0.1692 -0.0903
16644W        W30058   2.510   6.117   1.435 -0.0515  0.0001  0.1152
16645W        W30059  14.171   4.612   2.010 -0.2285 -0.0989  0.0809
16646W        W30060   8.786   2.484  15.337  0.0066  0.1933  0.0799
16647W        W30061   1.096  16.310   5.803 -0.1784 -0.0122  0.0917
16648W        W30062  10.778   9.713  14.564  0.3156 -0.1316 -0.0726
16649W        W30063  12.526   0.962  11.773 -0.0531  0.2753 -0.0369
16650W        W30064  13.896   1.882   1.675  0.0120  0.1923  0.2080
16651W        W30065   8.167  17.869  13.500 -0.0270 -0.0423  0.1682
16652W        W30066  15.623   0.652  12.186 -0.0045  0.1934  0.2027
16653W        W30067  10.291  17.277   0.506 -0.0340 -0.1959  0.0793
16654W        W30068  14.850   6.544  14.591 -0.1650 -0.0803 -0.0970
16655W        W30069  11.971  15.504   2.865  0.0298 -0.1130 -0.2267
16656W        W30070   3.756   6.385   3.959  0.1136 -0.1061  0.1162
16657W        W30071  18.168  17.838   2.933  0.0641  0.1953 -0.0532
16658W        W30072  12.427   9.309  11.686 -0.0401 -0.2071  0.1932
16659W        W30073   7.795   0.501  15.002  0.0234  0.0505  0.0634
16660W        W30074  12.832  17.110   5.863 -0.0592  0.0584 -0.2034
16661W        W30075   6.115   6.350  14.562 -0.1267 -0.1270  0.2780
16662W        W30076   1.929  10.561   6.024 -0.2443  0.0264  0.0666
16663W        W30077   8.483   8.395  13.003 -0.1966 -0.0905 -0.2853
16664W        W30078   5.467   3.393  10.489  0.0692  0.1019  0.0289
16665W        W30079  11.524   9.776   3.007 -0.0138 -0.0600  0.0344
16666W        W30080  15.425  10.206  12.668  0.0575 -0.2004 -0.0284
16667W        W30081   8.852  13.378  11.654 -0.1389  0.0348  0.1617
16668W        W30082   0.617   9.513   4.740  0.2812 -0.1171 -0.1704
16669W        W30083   2.963  14.221   0.972  0.1581 -0.0615 -0.1058
16670W        W30084  13.196  14.077   5.079  0.3891 -0.2663 -0.1363
16671W        W30085   6.480   4.753   3.480 -0.1391  0.2805  0.2568
16672W        W30086   9.256  16.076   2.688 -0.3383  0.1225 -0.4937
16673W        W30087   7.576  16.000  12.677  0.0535  0.2987 -0.2614
16674W        W30088   7.568  14.835  11.352  0.0105 -0.0412  0.0946
16675W        W30089   3.730   2.555   5.594 -0.2679 -0.4565 -0.0308
16676W        W30090  10.091   6.873  14.445  0.0604 -0.1649 -0.1711
16677W        W30091   3.551   5.944  13.477 -0.1615 -0.2486 -0.2049
16678W        W30092  12.970  17.766   6.407 -0.0472 -0.1339  0.3144
16679W        W30093   2.161   6.197  13.811 -0.0479 -0.0786 -0.0371
16680W        W30094   3.149   3.403   0.623  0.2239 -0.1644 -0.2390
16681W        W30095   1.362   5.974  14.129  0.0663 -0.0937 -0.1792
16682W        W30096  16.793  17.949   2.690 -0.2144  0.1412 -0.0227
16683W        W30097   0.833   6.097   4.885  0.0424  0.3355  0.0280
16684W        W30098  10.672   6.474  15.272 -0.2598  0.0266  0.2124
16685W        W30099   3.284  10.885  11.046  0.0009  0.0900 -0.1240
16686W        W30100  17.247   6.798   2.694  0.0418  0.1188 -0.0261
16687W        W30101   0.407  17.305  15.780 -0.2796 -0.0831 -0.5701
16688W        W30102   3.503   9.176   3.732 -0.0634  0.0981  0.3036
16689W        W30103  11.908   3.469   4.116 -0.0299  0.1009  0.1627
16690W        W30104   5.323   9.990   3.560  0.2161  0.1121  0.0444
16691W        W30105  17.327  17.024  12.270 -0.3654  0.0192  0.2339
16692W        W30106   1.951   5.275   2.730  0.0089 -0.0269 -0.0168
16693W        W30107   3.624   9.616   6.214 -0.0321  0.1815 -0.0826
16694W        W30108  15.733  15.647   5.465 -0.2884  0.2695  0.2072
16695W        W30109  10.340   8.999   0.738  0.0332  0.1256 -0.1347
16696W        W30110   3.540   7.494   5.286 -0.2410 -0.1935  0.0345
16697W        W30111  12.927  10.332   1.530  0.1134  0.0677  0.4226
16698W        W30112  11.136  10.042   5.210  0.1038 -0.0182  0.0014
16699W        W30113   6.307   5.138  14.144  0.0881  0.0505 -0.0749
16700W        W30114  16.091   2.630  12.003  0.2131  0.0614  0.0772
16701W        W30115   0.376  15.075   4.401 -0.1505  0.1680 -0.0163
16702W        W30116  10.376   4.757  13.005 -0.3499 -0.3759  0.1113
16703W        W30117  13.637  12.766   1.270 -0.1202  0.2802 -0.4634
16704W        W30118  17.560  17.202   5.586  0.1795  0.1471  0.4698
16705W        W30119  10.583  17.591  11.816  0.0553 -0.0748 -0.1873
16706W        W30120   8.653  11.134   0.433  0.1059  0.1554  0.1129
16707W        W30121   1.350  13.735   0.897 -0.1803 -0.0691  0.4414
16708W        W30122  15.581   6.246  12.392 -0.2045 -0.1144 -0.1242
16709W        W30123  14.002  15.228   4.378  0.1796 -0.1273  0.2645
16710W        W30124  10.159   9.808  12.132 -0.0687 -0.1646  0.1401
16711W        W30125  10.904   3.108   2.835 -0.1195  0.3302  0.0449
16712W        W30126   7.307   3.802   3.919  0.1845 -0.0325  0.2039
16713W        W30127  18.204   5.501  11.011  0.0365 -0.2220 -0.0806
16714W        W30128  11.752  10.340   4.473  0.3016 -0.2549 -0.0907
16715W        W30129  10.285   1.504  15.270 -0.1384  0.2315  0.0900
16716W        W30130   8.188   7.633  13.668  0.4093  0.5516 -0.0331
16717W        W30131  11.229   1.554   2.343 -0.1059 -0.0054 -0.2757
16718W        W30132   0.854  16.298  10.598 -0.2174  0.0349 -0.2039
16719W        W30133   4.978  17.652  15.514  0.2306 -0.1714 -0.0542
16720W        W30134  17.382   5.937   2.340  0.1188  0.2269 -0.2017
16721W        W30135   2.083  15.543   0.501 -0.0823 -0.1805  0.0034
16722W        W30136  17.042  15.593  16.207 -0.0747  0.0929 -0.1888
16723W        W30137  10.021  12.743  15.810  0.4822 -0.0739 -0.0846
16724W        W30138   8.782  16.292   1.140 -0.4246 -0.1798 -0.4665
16725W        W30139  17.363  15.536  14.575  0.0015 -0.1646 -0.2151
16726W        W30140   2.844   7.549   2.942  0.4094 -0.0102  0.2769
16727W        W30141  16.260   4.367  14.029 -0.1263 -0.1264  0.0550
16728W        W30142  16.413   5.943   2.019  0.0927 -0.0666  0.1121
16729W        W30143  13.442  16.315   3.494 -0.0389  0.3367 -0.4022
16730W        W30144  10.595   4.934  13.860  0.1042 -0.1718  0.0696
16731W        W30145  10.224   5.013  10.187 -0.0302  0.2726  0.0003
16732W        W30146   9.958   9.136  16.054  0.1608 -0.3883 -0.3574
16733W        W30147  12.430  13.319   0.949  0.3942 -0.0482 -0.1098
16734W        W30148  13.726   9.615  14.287  0.0185  0.2342 -0.2330
16735W        W30149   1.185   0.991  11.929 -0.4592  0.0674 -0.0432
16736W        W30150  13.416   0.600  11.009 -0.1302  0.1480  0.0917
16737W        W30151   5.641   7.217   1.548  0.1195  0.0746  0.2534
16738W        W30152   3.674   3.148  15.236 -0.0598  0.0652 -0.1475
16739W        W30153  10.241   2.245  13.191 -0.0124 -0.0382 -0.2409
16740W        W30154   4.371   6.498   4.924  0.0425 -0.0904 -0.3375
16741W        W30155  14.869  10.934   5.639 -0.2219  0.1541  0.0748
16742W        W30156   9.812   7.535  14.945 -0.0429 -0.0829  0.0107
16743W        W30157  13.075  14.686  15.995 -0.1886  0.1718 -0.4236
16744W        W30158   5.702  17.732   0.342 -0.1554 -0.2737  0.2758
16745W        W30159  12.505  16.700  10.706  0.1939 -0.4049  0.2681
16746W        W30160   2.820  13.745   0.099 -0.2247 -0.0466 -0.2031
16747W        W30161   9.325   0.548  14.123  0.0298 -0.0527  0.0302
16748W        W30162   6.676   1.235   2.627  0.0552  0.1002 -0.1780
16749W        W30163  14.936  13.741  11.417  0.1282  0.0897  0.0459
16750W        W30164  16.660   8.077   1.351 -0.1602 -0.4665 -0.0012
16751W        W30165  16.320   0.100  11.812 -0.1008 -0.2280  0.0420
16752W        W30166  14.783   7.212  11.791  0.0894 -0.2038  0.1276
16753W        W30167  18.181  18.007  13.686  0.1060 -0.1545  0.0386
16754W        W30168   2.201  13.748   2.628 -0.0537 -0.1223 -0.2890
16755W        W30169   8.658   0.456  14.832 -0.0859  0.2386  0.0188
16756W        W30170   8.474  13.035  14.801  0.0218 -0.2745 -0.1107
16757W        W30171   2.002   8.054   4.467 -0.1490 -0.0227  0.0816
16758W        W30172   9.156  14.453   4.702  0.1080 -0.3410 -0.2007
16759W        W30173  12.626  15.666   4.010 -0.0803  0.1316  0.1641
16760W        W30174  17.929   6.522  12.011 -0.0636 -0.1017 -0.2765
16761W        W30175   5.140  12.010   0.476 -0.1501 -0.0876  0.1273
16762W        W30176  15.846  16.080   5.232 -0.0125 -0.0954  0.1254
16763W        W30177   5.417   6.330   0.116 -0.0025 -0.0373  0.0521
16764W        W30178  14.976   8.045  12.796  0.2072  0.1806 -0.2556
16765W        W30179   0.677  15.651  12.798 -0.2676 -0.0029  0.0848
16766W        W30180   4.220  16.491   0.143 -0.2933 -0.0781 -0.1487
16767W        W30181   2.173   1.593   4.342 -0.1003 -0.0823 -0.2130
16768W        W30182  17.911   9.581  14.452 -0.0061  0.4448  0.1251
16769W        W30183   8.918  16.084  11.963  0.0700  0.0551 -0.1299
16770W        W30184  11.047  14.337  15.117 -0.1022  0.1806 -0.1031
16771W        W30185  17.686   5.445  16.032 -0.2082  0.1414 -0.0721
16772W        W30186  14.827  13.634   5.740  0.3994 -0.0039 -0.0864
16773W        W30187   6.511  17.934   1.673 -0.0854 -0.1609  0.0072
16774W        W30188   0.210   3.943  14.307  0.0469  0.0068 -0.0812
16775W        W30189   9.066   4.787   5.022 -0.0874  0.2599  0.4002
16776W        W30190   6.420   6.706   6.035 -0.0986  0.1425 -0.3568
16777W        W30191  13.138  13.686   0.559 -0.1868  0.0869  0.1049
16778W        W30192  11.778   5.882  15.695  0.0101  0.1613  0.1653
16779W        W30193  10.439  15.354   0.574  0.1231  0.1777 -0.0313
16780W        W30194  13.377   7.886  10.346  0.0467 -0.1442 -0.2130
16781W        W30195   4.983   5.260   3.316 -0.0621 -0.0295 -0.2996
16782W        W30196  15.676   0.715   4.036 -0.3558 -0.0630 -0.3814
16783W        W30197   2.281   4.685  15.626 -0.0081 -0.1170  0.2724
16784W        W30198   6.529  12.808   2.759 -0.3547  0.1221  0.1910
16785W        W30199  12.485  18.105   2.305  0.1950  0.1153 -0.0353
16786W        W30200  11.245   3.881   2.293 -0.0830  0.0843  0.0386
16787W        W30201   7.490   4.093  16.460 -0.0070 -0.2864  0.2029
16788W        W30202   2.662   5.816   0.052 -0.0413  0.1503  0.1544
16789W        W30203  13.245  11.372  15.732  0.1403 -0.1530 -0.0393
16790W        W30204  16.295  15.572   3.737 -0.2308  0.2160 -0.1408
16791W        W30205  10.846  16.192  14.786 -0.0046  0.2744 -0.2296
16792W        W30206   4.761   7.680  13.812 -0.1089  0.1415 -0.1059
16793W        W30207   9.070  14.072  13.894  0.0307  0.0944 -0.0623
16794W        W30208   2.706  16.452  11.453 -0.0930 -0.1978  0.0224
16795W        W30209   9.121   4.779  15.379  0.0848 -0.0029  0.2873
16796W        W30210  13.827   0.442  11.423  0.1654  0.1089  0.1635
16797W        W30211  14.370  16.769   1.510  0.1594  0.0534  0.2104
16798W        W30212   4.616  13.340   6.236 -0.1356 -0.0330  0.0175
16799W        W30213  15.722  16.766  13.863 -0.1100  0.3460 -0.0403
16800W        W30214   4.661  10.931  12.369 -0.1465 -0.1956 -0.1632
16801W        W30215  12.126   6.595  11.450  0.0026 -0.2796 -0.3025
16802W        W30216  12.237   6.074  14.103  0.1217 -0.1161 -0.0376
16803W        W30217   8.413  14.811   2.667 -0.1744  0.0777  0.2979
16804W        W30218   9.979  15.736   3.041 -0.1433 -0.0786  0.2862
16805W        W30219   7.857  13.341  14.051  0.0596 -0.0701  0.0234
16806W        W30220   5.041  12.669  13.312 -0.1608  0.1903 -0.2084
16807W        W30221   4.606   7.171   1.445  0.1055 -0.4083 -0.2317
16808W        W30222  13.665   8.372  15.572  0.0870 -0.1515  0.2129
16809W        W30223   8.613   1.291   2.458 -0.0089  0.3612 -0.2999
16810W        W30224   7.216   7.502   0.174  0.0903 -0.1575  0.3227
16811W        W30225   8.322   8.973   2.946  0.2477  0.0001  0.1715
16812W        W30226   1.560   4.321  11.523 -0.0142 -0.0125  0.2104
16813W        W30227  10.989  11.539   4.011  0.2035 -0.2772 -0.0462
16814W        W30228  16.469   6.365   6.530  0.1240  0.3129  0.1369
16815W        W30229  17.922   9.975  10.904 -0.1517 -0.1233  0.1915
16816W        W30230  10.703   7.543   3.642  0.1081 -0.3202  0.0973
16817W        W30231   1.876   0.152  11.276 -0.1677  0.1180 -0.1998
16818W        W30232  10.710   0.614  14.625  0.0161 -0.3223 -0.1378
16819W        W30233  14.529  10.389   2.022  0.0112 -0.2505 -0.0554
16820W        W30234  10.100  15.991  13.216  0.1268  0.2382  0.0199
16821W        W30235   7.212   2.668  15.832  0.0333 -0.2365  0.1465
16822W        W30236  10.256  16.296  11.113  0.1566 -0.3561  0.0734
16823W        W30237   7.983  17.063   3.069 -0.0523  0.2555 -0.1597
16824W        W30238   2.215  11.424   1.806  0.1844 -0.4659  0.1273
16825W        W30239   9.283   9.153   5.703 -0.2805  0.2057  0.0470
16826W        W30240  10.162   6.594   2.252 -0.1681 -0.1282  0.0140
16827W        W30241   1.814  15.751  13.204 -0.0434 -0.0701  0.2642
16828W        W30242   3.593   8.184  14.389  0.1326  0.1509 -0.1326
16829W        W30243   5.068  11.108  11.190 -0.2571 -0.0281 -0.1250
16830W        W30244   8.378  12.517  14.817 -0.1230  0.1468  0.0628
16831W        W30245  18.213   7.436  14.051 -0.1388  0.1470 -0.1121
16832W        W30246  15.235   9.927  10.085 -0.1304  0.0913  0.0713
16833W        W30247  14.782   0.100  15.588  0.2830 -0.3946 -0.0772
16834W        W30248  10.487  11.424   0.016  0.0519 -0.3494 -0.1235
16835W        W30249   0.206  14.546  14.817  0.2578  0.2190 -0.0665
16836W        W30250   1.472   7.713  14.617 -0.3653  0.2335  0.2936
16837W        W30251   9.347   3.479   0.015  0.2147 -0.2413  0.0652
16838W        W30252   0.451   7.193  15.491  0.1166  0.0273 -0.1534
16839W        W30253   0.159  17.977  15.199  0.0379 -0.0564  0.2495
16840W        W30254   3.624   5.868  12.490  0.0699 -0.1150 -0.0043
16841W        W30255   2.966   4.160   2.455  0.1477 -0.0797  0.2014
16842W        W30256   0.490   4.328  15.892 -0.0079 -0.4859 -0.0885
16843W        W30257   1.391  17.997  14.160  0.3345 -0.0688 -0.0051
16844W        W30258   7.690   8.514   5.459 -0.0549  0.1004 -0.1667
16845W        W30259   4.437   3.747   0.397  0.3086  0.2335 -0.1008
16846W        W30260   8.626   3.000  10.484  0.0640 -0.1686  0.1806
16847W        W30261  11.340   8.809  10.418  0.1793 -0.1654 -0.0678
16848W        W30262   5.279  14.200  11.503 -0.2014  0.0482 -0.1755
16849W        W30263   2.315  12.944  15.254  0.1432  0.2357  0.2477
16850W        W30264  17.293  17.412   3.635 -0.0119  0.2385 -0.4483
16851W        W30265   0.591   7.596  14.748 -0.0999  0.0756 -0.3260
16852W        W30266   5.343  13.010   0.448  0.0433 -0.2800  0.2092
16853W        W30267   1.399   3.069   4.403  0.3301  0.0652  0.0115
16854W        W30268   6.758   6.431   1.842 -0.0178 -0.2340  0.0666
16855W        W30269   1.238  14.892  10.429 -0.1830  0.0664  0.1183
16856W        W30270   6.142   2.423   6.277  0.2374 -0.0943  0.1537
16857W        W30271   9.910   4.733   3.365 -0.2928  0.2144 -0.3056
16858W        W30272   5.486  14.021  16.386 -0.1585 -0.4941 -0.1800
16859W        W30273  16.071   6.687   1.317  0.2199  0.1498  0.0786
16860W        W30274   5.667   8.421   5.939  0.0488 -0.1987 -0.1386
16861W        W30275  17.174   2.415   4.445  0.0568  0.0308 -0.2868
16862W        W30276   3.716   9.215   4.798 -0.2488  0.0911 -0.4065
16863W        W30277   4.041   0.759   0.482 -0.0770 -0.1106 -0.0763
16864W        W30278   8.453   0.751  13.593  0.0738 -0.1640  0.0050
16865W        W30279  13.081   1.318  12.451 -0.2118  0.0233  0.0196
16866W        W30280   8.013   0.364   1.501 -0.0840 -0.0247  0.0081
16867W        W30281  14.956   0.836   1.230 -0.0603 -0.1382 -0.2538
16868W        W30282   1.582  12.133   2.705 -0.0028  0.1000 -0.3159
16869W        W30283   3.809   7.113  16.421 -0.1102  0.1162 -0.0311
16870W        W30284   3.747  14.128  15.395 -0.1736 -0.2535  0.0054
16871W        W30285   0.454  11.790   2.069 -0.1444  0.2564  0.1848
16872W        W30286   3.749   0.692  10.442 -0.1371 -0.1421  0.1206
16873W        W30287  13.413  16.556  12.734  0.1054  0.2786 -0.1375
16874W        W30288   8.265   8.142   1.884  0.1323  0.0130 -0.3487
16875W        W30289   5.070   1.734  15.399 -0.0185 -0.2334  0.0867
16876W        W30290  11.834  14.604   3.318 -0.0730  0.0961 -0.1410
16877W        W30291   3.419  17.475   0.069 -0.1041  0.0736 -0.1921
16878W        W30292  14.024  11.843   3.476  0.3504 -0.0010 -0.3808
16879W        W30293  13.453  18.182   0.677 -0.0307 -0.0368  0.0839
16880W        W30294  16.361  17.203   2.400 -0.2486  0.0678 -0.2381
16881W        W30295   6.548  14.039  14.813 -0.1769  0.1045  0.3329
16882W        W30296   0.667   4.926   3.038  0.4513 -0.0165  0.1818
16883W        W30297  13.898   5.921  10.805  0.1389 -0.0843  0.2541
16884W        W30298   3.770  13.190   2.371 -0.0799 -0.0568  0.1455
16885W        W30299  11.654  13.727   2.455 -0.0055  0.0668  0.0286
16886W        W30300  15.036   3.892   6.069 -0.1131 -0.2188  0.1548
16887W        W30301  12.657   9.932   1.760  0.2346 -0.0077  0.0232
16888W        W30302  10.709  17.791   5.968 -0.1218 -0.1243  0.1563
16889W        W30303   1.831   1.368   2.602  0.1815 -0.0966 -0.2844
16890W        W30304   1.725  10.131  11.195  0.1053  0.0270  0.2282
16891W        W30305  11.312   5.724  14.576  0.2154 -0.2316  0.0323
16892W        W30306  11.960  11.598   3.753  0.0729  0.2771 -0.1457
16893W        W30307  11.055   4.734  11.257 -0.2005 -0.3447  0.0637
16894W        W30308   9.513  14.739   1.497 -0.3892 -0.0710  0.1823
16895W        W30309   4.631   2.324   3.958 -0.1598 -0.1007 -0.1362
16896W        W30310   4.076  16.336   3.110 -0.1883  0.2208 -0.0116
16897W        W30311  14.839  11.869  11.978  0.1055  0.2855 -0.2244
16898W        W30312   4.147   7.862   3.823  0.4376  0.0981 -0.0357
16899W        W30313   9.149   4.269  15.130 -0.1233  0.2502  0.0878
16900W        W30314  14.286   1.164  15.079 -0.1813  0.1656 -0.0818
16901W        W30315  10.449  11.309  12.421 -0.0975 -0.3956  0.1176
16902W        W30316  16.272  13.605  16.183  0.0664 -0.2059 -0.0099
16903W        W30317   4.591   2.212  11.883 -0.0214 -0.1260 -0.1699
16904W        W30318  13.106   7.930  15.862  0.0411 -0.0280  0.1918
16905W        W30319  18.178   8.881   6.350 -0.1793  0.0927 -0.1095
16906W        W30320   5.148   5.504  11.259  0.1341  0.0206  0.3215
16907W        W30321   8.171   0.174  12.280 -0.0779  0.1967  0.1632
16908W        W30322  15.361   3.936  10.168 -0.1029 -0.1664  0.2428
16909W        W30323  15.976  16.235  15.855  0.0946  0.4151  0.1398
16910W        W30324  12.111   0.985  15.169  0.1610  0.1620 -0.2274
16911W        W30325   6.116   3.597   1.506  0.3152  0.0389  0.3091
16912W        W30326   4.810  14.572  13.785 -0.1964  0.2353 -0.0028
16913W        W30327  10.861   3.297  11.633 -0.0375 -0.0927  0.0458
16914W        W30328   1.346   4.244  14.739  0.5880  0.0429  0.2950
16915W        W30329  17.355  13.681   0.408 -0.1523  0.2979  0.0195
16916W        W30330  10.720   6.173  13.216 -0.0933  0.0145  0.6201
16917W        W30331   0.919  10.896  15.171 -0.0806  0.1279 -0.0204
16918W        W30332  10.812  10.703  12.512 -0.0191  0.0724 -0.1625
16919W        W30333  12.837   6.222  16.188  0.0184 -0.1016  0.0693
16920W        W30334   0.344   6.835   4.537 -0.1258  0.1292 -0.1438
16921W        W30335  17.626  16.967  10.487 -0.1859 -0.0593  0.2021
16922W        W30336   1.556  16.831  14.068 -0.0577  0.0978  0.3286
16923W        W30337   4.531  10.330  14.057  0.2450  0.2503  0.1793
16924W        W30338  10.053   1.634  11.785  0.2374 -0.1535 -0.2155
16925W        W30339   0.117   6.368   2.290 -0.0841  0.0664  0.1058
16926W        W30340  13.233  15.337  14.146 -0.3337 -0.2421 -0.4223
16927W        W30341   8.288   7.025  15.097  0.0912  0.3811  0.0871
16928W        W30342  15.241  13.929   4.421 -0.2662  0.3239  0.0895
16929W        W30343   6.162   3.931  14.351  0.1528 -0.0242  0.1165
16930W        W30344  15.782  14.444   6.312  0.1652  0.1057 -0.2742
16931W        W30345   8.874   0.687   4.248  0.1264  0.1852  0.1763
16932W        W30346   0.353   0.038   0.393 -0.0444 -0.1688  0.0957
16933W        W30347  15.171  16.921   5.318  0.2820 -0.3080  0.0412
16934W        W30348   0.538  17.106   3.246  0.0568 -0.0305 -0.1281
16935W        W30349   2.983  14.616   3.006 -0.0932  0.0896  0.3658
16936W        W30350   8.344   4.725   1.661 -0.0527 -0.0643  0.1859
16937W        W30351   7.441  13.686  15.818  0.0931 -0.1453 -0.3283
16938W        W30352   3.386  14.632  11.480 -0.2322 -0.2143 -0.1568
16939W        W30353  11.458   2.168  12.099 -0.3319  0.1433 -0.1298
16940W        W30354  14.162   9.176  14.875 -0.3329 -0.1742  0.0579
16941W        W30355  14.959   7.663  11.677  0.1151  0.1976  0.0724
16942W        W30356   5.985  14.643   4.096  0.2091 -0.0547  0.0496
16943W        W30357   0.181  17.370   2.302  0.0015 -0.1932 -0.1733
16944W        W30358  13.397   6.381  12.753 -0.0574 -0.1050  0.2104
16945W        W30359  11.251  13.335  10.884 -0.0832  0.0136 -0.0069
16946W        W30360   1.007   9.188  14.401 -0.1959  0.0052  0.0119
16947W        W30361  16.748   8.181   5.497 -0.4186 -0.1854 -0.0062
16948W        W30362   7.936   8.553  13.557  0.1142 -0.0441  0.0460
16949W        W30363  15.192  15.154  12.613 -0.0866  0.0148  0.1473
16950W        W30364   0.741   5.398   5.014 -0.2699  0.3177 -0.0731
16951W        W30365   5.211  11.722  12.984  0.1454  0.1013 -0.4877
16952W        W30366   6.884   9.233  14.307 -0.0853  0.0238  0.0947
16953W        W30367   2.748   0.082  12.522  0.0286 -0.0137  0.1216
16954W        W30368   3.858   9.869  12.361  0.0379 -0.0641  0.2566
16955W        W30369  13.209  13.199   0.626  0.0824 -0.0641  0.0304
16956W        W30370   5.550  16.105   4.970  0.0064  0.2386 -0.3226
16957W        W30371  11.394  15.678  15.487 -0.3082  0.0432 -0.0044
16958W        W30372  12.916  14.126   3.300  0.4000 -0.3761  0.0233
16959W        W30373  15.428   9.919  11.688  0.0194 -0.0702  0.2513
16960W        W30374  11.476   5.419   0.637  0.1892 -0.1412 -0.0991
16961W        W30375  16.101   3.788  12.091  0.0969  0.0015  0.3136
16962W        W30376  10.340  10.798  14.308  0.1266  0.0899 -0.1984
16963W        W30377   1.654   1.914  16.317  0.0469 -0.1615 -0.2714
16964W        W30378   0.366   1.747  14.388 -0.0740 -0.1543  0.0108
16965W        W30379  10.693  16.406  12.631  0.0063 -0.3174 -0.2507
16966W        W30380  15.068  11.525   1.760 -0.1990  0.1387  0.0746
16967W        W30381   0.208   3.507  11.649  0.2510 -0.0790  0.1339
16968W        W30382   2.416   5.044  16.037  0.1542 -0.2442  0.1639
16969W        W30383   8.383   0.118  12.800  0.1438 -0.3224  0.3150
16970W        W30384   2.855  16.274   1.992 -0.1590 -0.1890 -0.0765
16971W        W30385   6.599  14.243   2.121 -0.0568 -0.1533 -0.0730
16972W        W30386   6.547   7.818  14.950 -0.3662  0.0117 -0.1604
16973W        W30387   4.908  12.049  13.237 -0.1943 -0.1174 -0.0064
16974W        W30388   5.356  10.149  16.397 -0.1934  0.1162  0.1657
16975W        W30389   9.041  14.093   1.045 -0.0349  0.0593 -0.0499
16976W        W30390  10.560  14.402   2.706 -0.1846  0.0607 -0.0613
16977W        W30391   4.477  14.089  12.393 -0.3504 -0.1249  0.0316
16978W        W30392  11.900   7.053   2.042  0.5046 -0.2192 -0.2967
16979W        W30393  16.600   9.088   4.055 -0.0186 -0.2457  0.2281
16980W        W30394   4.075   9.905   2.898  0.4235  0.2298  0.0657
16981W        W30395   8.332  13.860   2.530  0.0698  0.2946  0.0406
16982W        W30396   2.194  13.938  14.845 -0.1670 -0.1245 -0.2517
16983W        W30397   4.282  10.139  11.038 -0.2188  0.0521  0.0215
16984W        W30398   9.528   0.512   1.586 -0.2921  0.1858 -0.0215
16985W        W30399  17.035  17.886  16.337 -0.0590  0.1116  0.0221
16986W        W30400  10.698  12.385   5.211  0.1089  0.3583 -0.2983
16987W        W30401   1.830  11.173  15.134  0.0713  0.0008  0.0746
16988W        W30402   3.451   0.465   4.747  0.2721  0.2255  0.1629
16989W        W30403   2.513   8.679   4.453 -0.0833  0.0091 -0.0788
16990W        W30404   5.660   9.458   0.342 -0.3173 -0.3056  0.1529
16991W        W30405   0.443  13.724   1.889 -0.0583 -0.1688 -0.1694
16992W        W30406  14.814   6.276  10.931 -0.0436  0.0153 -0.2445
16993W        W30407  11.538   8.022   5.404 -0.1862  0.0326 -0.1116
16994W        W30408  11.285  11.179  16.330 -0.0042 -0.0499  0.2678
16995W        W30409   0.840  16.202  15.259 -0.0593 -0.1377  0.0549
16996W        W30410  12.623   1.638  15.377 -0.0395  0.1345  0.2585
16997W        W30411  15.812  11.403   2.230  0.2139 -0.0131 -0.1219
16998W        W30412   1.687   9.517   5.984 -0.3700  0.2996  0.2936
16999W        W30413   1.618   2.697   1.408  0.2562 -0.1421 -0.0319
17000W        W30414  11.665   3.363  15.278  0.0078  0.2061 -0.0765
17001W        W30415  11.096   8.974   5.909  0.4826  0.3303 -0.0224
17002W        W30416  16.660  17.295   4.835  0.0144 -0.1597 -0.0617
17003W        W30417  17.766   5.554   3.236  0.2129  0.2660 -0.0315
17004W        W30418  11.990  12.524   5.630 -0.0389 -0.2464  0.0066
17005W        W30419   3.151   4.175  16.149 -0.3651  0.2195  0.1456
17006W        W30420  18.123   7.671  11.287 -0.1028  0.4113 -0.2837
17007W        W30421   5.296   4.058   3.050  0.0729  0.1773 -0.1270
17008W        W30422  12.709   4.732   4.133 -0.0922 -0.1006 -0.1001
17009W        W30423   0.844   7.885   3.239 -0.0597 -0.1515 -0.3981
17010W        W30424   9.816   6.529  11.740 -0.0506  0.2095  0.3432
17011W        W30425   3.937   1.016   4.831  0.0250  0.0463 -0.0047
17012W        W30426  15.776   9.842  12.007 -0.0133  0.1679 -0.2581
17013W        W30427   0.420  13.955  11.987 -0.1480  0.2162  0.1815
17014W        W30428   1.357   5.037   3.663 -0.3119  0.0062  0.2733
17015W        W30429  17.233   9.272  14.953  0.0887  0.4529 -0.0666
17016W        W30430  10.435   6.088   3.154  0.1155  0.1833  0.0597
17017W        W30431   2.368   0.904  11.426 -0.2251  0.1464  0.1907
17018W        W30432   6.103   6.261  10.233 -0.0437 -0.0178  0.0545
17019W        W30433  12.832  12.382   0.212  0.1817 -0.0170 -0.1490
17020W        W30434   8.370   5.113   1.084  0.0666  0.1033  0.0977
17021W        W30435   0.017  12.008   6.527 -0.4169  0.1369  0.0856
17022W        W30436   1.897  14.973   4.068 -0.0273 -0.1214  0.0554
17023W        W30437   8.661   1.737  14.155 -0.2568 -0.0489  0.1924
17024W        W30438   4.427  10.470  12.469  0.1332  0.0186 -0.2212
17025W        W30439  18.000   3.881   4.301  0.2293 -0.0477  0.1474
17026W        W30440  16.999   1.727   2.271  0.1708 -0.2291  0.1558
17027W        W30441  14.991   1.169   0.348  0.0421 -0.1777 -0.5168
17028W        W30442  14.245  18.199   1.320 -0.2923 -0.0163 -0.2496
17029W        W30443   2.624   0.979   0.436 -0.0197 -0.2777 -0.1742
17030W        W30444   1.570   0.256   4.161 -0.0418  0.1804  0.0947
17031W        W30445  16.960  12.095   1.884 -0.2104 -0.1058  0.1742
17032W        W30446  17.029   3.010  10.532 -0.1070  0.0372  0.1009
17033W        W30447  13.302  12.374   3.263  0.0574 -0.0084  0.1760
17034W        W30448  14.323  14.277   0.063 -0.1538 -0.2160  0.1811
17035W        W30449  16.797  12.026   0.933  0.0787 -0.1239  0.2345
17036W        W30450   7.360  10.525   1.802  0.0524 -0.0602 -0.2576
17037W        W30451  15.123  14.087  12.509 -0.0776 -0.2950 -0.1243
17038W        W30452   5.637  17.438  12.506 -0.0748 -0.0415 -0.0211
17039W        W30453  13.107   6.600   0.032 -0.2445 -0.0083  0.3454
17040W        W30454   9.753   3.065   4.923  0.0418  0.3645 -0.3016
17041W        W30455  10.409   4.100  12.512 -0.0748  0.1077  0.0692
17042W        W30456   5.267  14.479  13.204  0.0452  0.3224 -0.0033
17043W        W30457  11.626  14.819  13.394  0.2345  0.1471  0.3397
17044W        W30458  11.309   9.501   1.409  0.0729  0.1755 -0.0810
17045W        W30459  18.122   4.582   2.359  0.4666 -0.3213 -0.1667
17046W        W30460   2.938   9.026   3.149 -0.0037  0.0852  0.2465
17047W        W30461   9.578  10.174  11.483  0.1058  0.0120  0.0114
17048W        W30462   9.456   3.481   3.696  0.0249 -0.1662 -0.0273
17049W        W30463   1.227   3.353   3.418  0.1983  0.1387 -0.3589
17050W        W30464   1.726  15.246   1.399  0.1591 -0.3888  0.1661
17051W        W30465   3.748   0.302  15.872  0.1343  0.1923 -0.1656
17052W        W30466   9.396   9.190   0.490  0.2060  0.0621  0.0248
17053W        W30467   3.768  15.069   1.474 -0.0440  0.2510 -0.1248
17054W        W30468  15.179  12.154  16.117 -0.1849 -0.0329 -0.2375
17055W        W30469  14.838  11.613  11.034 -0.0406  0.2135  0.0946
17056W        W30470  15.837  13.811   1.281 -0.2907  0.2224 -0.1122
17057W        W30471  14.641   0.499  11.399 -0.0067  0.0669  0.3663
17058W        W30472   1.164   3.426  10.833 -0.0449  0.2525 -0.0577
17059W        W30473   2.743  17.591   1.553 -0.0006  0.0347  0.0480
17060W        W30474   2.579  10.988   4.611 -0.0282 -0.2752  0.1406
17061W        W30475   7.322   2.149   3.278  0.0840 -0.4994 -0.0539
17062W        W30476  10.947  16.910   3.054 -0.0675  0.1713  0.1097
17063W        W30477  17.599  11.100   1.231  0.1745  0.1904  0.0517
17064W        W30478   7.633  12.376  15.772 -0.2056  0.0032  0.1406
17065W        W30479   5.465   5.782  10.891 -0.1069  0.2285 -0.2157
17066W        W30480   9.545   7.898   0.662  0.0251  0.2084 -0.2274
17067W        W30481  10.638   1.045  13.729 -0.0141  0.1336  0.0519
17068W        W30482   7.938   8.130   2.389 -0.1095  0.1650  0.2678
17069W        W30483  13.542  13.129  16.403 -0.2385  0.0710 -0.0236
17070W        W30484  14.277   7.167  11.859  0.0038  0.1944 -0.0356
17071W        W30485   3.426  15.801   6.437  0.3197  0.0255  0.0544
17072W        W30486   9.532   2.691  12.116 -0.0351 -0.1011  0.1229
17073W        W30487   5.216  17.670  12.302  0.1350 -0.2963  0.0560
17074W        W30488  13.441  17.642  11.750  0.2383 -0.0454 -0.1206
17075W        W30489   9.441   7.866   1.781 -0.2144 -0.0384 -0.2525
17076W        W30490  18.186   7.985  15.626 -0.0900  0.0862 -0.0195
17077W        W30491  17.856  13.442   0.618 -0.0114  0.0722 -0.2830
17078W        W30492  10.275  10.547  13.563 -0.2476  0.0466 -0.3765
17079W        W30493   2.661  14.049  16.172  0.4208  0.1026 -0.0501
17080W        W30494   7.003  18.208  12.363 -0.0038  0.2692  0.1996
17081W        W30495  10.930  12.383  13.773 -0.2058  0.1554  0.1265
17082W        W30496  11.223  10.268  13.363  0.0718 -0.1815  0.3036
17083W        W30497  14.545  12.420  10.808  0.0521  0.0967  0.1757
17084W        W30498  13.680   2.909  15.214 -0.2127 -0.2496  0.3427
17085W        W30499  10.795   4.536  13.302 -0.0057 -0.1720  0.1345
17086W        W30500  17.788  10.122   4.340 -0.3242 -0.1604 -0.2237
17087W        W30501   3.921   1.548   1.272 -0.0763  0.0666 -0.0595
17088W        W30502  11.019  13.868   2.646  0.0555 -0.0477  0.1424
17089W        W30503   9.770   5.240   2.701  0.2927 -0.1525  0.0116
17090W        W30504  15.006   0.058  12.381  0.1461 -0.1116  0.0332
17091W        W30505   2.835   5.878   1.098 -0.2560  0.1441  0.3230
17092W        W30506  11.786  17.424  14.904  0.1149 -0.0191 -0.1339
17093W        W30507   9.921   7.204   6.214  0.3109 -0.3240  0.0474
17094W        W30508  14.237   3.549  16.369  0.0241 -0.1219 -0.0135
17095W        W30509  13.525   1.506   5.387  0.2680  0.0940  0.0184
17096W        W30510   1.423   7.597  11.939 -0.1808  0.2133 -0.2226
17097W        W30511   2.678  12.108   5.553  0.3274  0.0281 -0.1431
17098W        W30512   0.242   0.039  11.066  0.1171  0.3490 -0.0410
17099W        W30513  16.737   4.505  14.052  0.0280 -0.3430  0.1525
17100W        W30514  15.336  11.655   0.221  0.2004 -0.0090  0.0555
17101W        W30515   4.778   8.780   4.810  0.2694 -0.3679  0.2479
17102W        W30516  17.405   0.315  14.685  0.2675 -0.3016  0.1595
17103W        W30517   0.835  12.648  12.476 -0.1801  0.1905 -0.0289
17104W        W30518   6.076  11.027  14.743 -0.0473  0.1675 -0.3416
17105W        W30519  13.800   6.800   0.600  0.1241 -0.1267  0.1669
17106W        W30520   1.626   6.928  14.612 -0.0831 -0.1525 -0.1936
17107W        W30521   2.621  13.917   1.969 -0.0402 -0.5438 -0.0038
17108W        W30522   3.472  11.097   0.776  0.3428 -0.1812 -0.3768
17109W        W30523   2.664   4.231  13.449  0.0759 -0.1846  0.0491
17110W        W30524  13.255   6.585   3.272  0.1365 -0.0539  0.1345
17111W        W30525   1.225  16.087   2.707  0.0529  0.0491 -0.0328
17112W        W30526   8.048   0.532   4.945  0.0410 -0.3196 -0.3107
17113W        W30527   7.917  17.782  15.921 -0.1506 -0.1119  0.0291
17114W        W30528   7.534  15.265  11.167 -0.1713 -0.1096 -0.1442
17115W        W30529  18.198  16.287   5.823  0.2091 -0.1249 -0.1526
17116W        W30530  10.975  17.892   2.664 -0.0636 -0.0244 -0.2897
17117W        W30531  10.064   0.518  15.580 -0.1789 -0.0749  0.1473
17118W        W30532  17.262  17.144   5.141  0.1793 -0.2887 -0.0739
17119W        W30533   0.587   0.056  15.167  0.3669 -0.0164 -0.2962
17120W        W30534   7.525  13.757   4.442  0.0262  0.4239  0.0636
17121W        W30535  15.439   3.208  15.405  0.0612 -0.0042 -0.0963
17122W        W30536   5.680  11.389  14.097  0.0623 -0.1637 -0.1514
17123W        W30537  18.090   0.338  13.977 -0.2116  0.1769  0.0733
17124W        W30538  12.865  14.378  11.531 -0.0571 -0.0330  0.0873
17125W        W30539  13.493   3.894  13.250  0.0054  0.0987  0.2283
17126W        W30540   6.051   0.344  14.586  0.3245  0.2722  0.0217
17127W        W30541  10.660  12.062  12.386 -0.0730 -0.2408  0.4161
17128W        W30542   2.952  14.414  11.349  0.3897 -0.0257 -0.2836
17129W        W30543   2.399   3.640   5.977  0.2347  0.1802  0.2649
17130W        W30544   4.149   3.257  10.244 -0.2985 -0.0895 -0.0143
17131W        W30545   3.422   4.472  12.516 -0.1900  0.1531 -0.0682
17132W        W30546   5.065   3.803  12.499  0.2092 -0.6374  0.1071
17133W        W30547  10.227   3.701   4.484  0.1342  0.1074 -0.2084
17134W        W30548  13.144   6.162  14.281  0.2996 -0.0346 -0.1276
17135W        W30549  15.141   4.481  16.390  0.0120 -0.0985 -0.0061
17136W        W30550   6.756   7.919  10.528  0.0123  0.2196 -0.0224
17137W        W30551  13.975   9.703  11.128 -0.1469  0.1685  0.1159
17138W        W30552  11.248  15.765  14.565  0.0232  0.0215 -0.2716
17139W        W30553   7.376  13.360   0.771 -0.0430 -0.1779 -0.2004
17140W        W30554   0.111   1.841  10.289  0.5439  0.2193 -0.0841
17141W        W30555  16.584   0.085  16.275  0.1081  0.0852  0.1419
17142W        W30556   6.007  17.938  10.106 -0.2002  0.0244  0.2565
17143W        W30557  10.459  12.570   0.033 -0.1273  0.0858  0.1148
17144W        W30558   5.700   9.068  11.613 -0.0001  0.3073  0.0681
17145W        W30559  13.574   6.482  15.625 -0.4652 -0.3400 -0.3520
17146W        W30560  14.871  16.773   1.849  0.4050 -0.1736  0.1704
17147W        W30561   6.648  17.924   4.960  0.1726  0.2799 -0.2016
17148W        W30562   9.979  10.545  16.019 -0.0507  0.1201  0.0735
17149W        W30563   8.995   4.906  12.330  0.1890 -0.1730 -0.2650
17150W        W30564  17.413  11.740   1.609  0.1792 -0.0736  0.0330
17151W        W30565   5.771  18.018   3.915  0.3039 -0.1058 -0.2871
17152W        W30566   8.982   5.642   6.102 -0.0275  0.2514 -0.0691
17153W        W30567  12.070   0.152  12.583 -0.0130 -0.0369  0.1031
17154W        W30568   6.697  14.279   5.114  0.0379 -0.2153  0.1811
17155W        W30569  13.398  16.887  10.684 -0.0966  0.0945  0.1942
17156W        W30570  11.706   2.346  12.591  0.1908 -0.2033  0.0911
17157W        W30571  11.751  17.092   5.420  0.3022 -0.1045 -0.1669
17158W        W30572  12.939  18.220  14.927  0.1005  0.2336 -0.0460
17159W        W30573  15.804   5.040  15.155 -0.1333 -0.3659 -0.1730
17160W        W30574   6.155   8.309  12.474 -0.2141 -0.1884  0.2163
17161W        W30575   9.048  18.231  11.041 -0.1001  0.3058 -0.0979
17162W        W30576   3.360  18.183   0.739  0.0981  0.0628 -0.0352
17163W        W30577  14.182  13.232   5.702  0.1575  0.1195 -0.0004
17164W        W30578   8.022  10.433   5.474  0.3073  0.2356  0.1629
17165W        W30579   2.497  16.491   5.774  0.2153  0.1402 -0.0944
17166W        W30580   1.714   7.798   5.474  0.2237 -0.3650 -0.1223
17167W        W30581   1.221  10.941   0.471  0.1472 -0.0734 -0.0441
17168W        W30582   6.942  17.267  16.432 -0.2262 -0.1281 -0.0501
17169W        W30583  14.882  17.909   6.794 -0.2769  0.1938  0.1156
17170W        W30584   0.463  10.693  15.322  0.0476  0.2614  0.0985
17171W        W30585   3.112  11.179  12.564 -0.2398 -0.2154  0.1721
17172W        W30586   9.861  12.859   0.679 -0.4326 -0.0164 -0.1875
17173W        W30587  10.972  11.970   2.892 -0.1375  0.0523 -0.0693
17174W        W30588   8.595   8.088  16.365  0.0623  0.0588 -0.0415
17175W        W30589  11.772  12.891   5.871 -0.0938 -0.1147 -0.2036
17176W        W30590   1.376  10.278   4.712 -0.2091  0.0320  0.0385
17177W        W30591   7.641   1.117  14.869  0.4268  0.0060 -0.0221
17178W        W30592  11.382   5.577   2.435  0.2056  0.0061  0.1662
17179W        W30593   9.950  15.042   3.136  0.0678 -0.0064 -0.0196
17180W        W30594  14.852   1.766   4.917  0.1200  0.3500  0.1923
17181W        W30595   0.383   8.410   1.036  0.2494 -0.2127 -0.0976
17182W        W30596   2.671  15.294   0.412  0.2229  0.1885  0.1490
17183W        W30597   8.954   3.084  10.955  0.1252  0.1333  0.1691
17184W        W30598   4.689   4.843   3.627  0.0623  0.0497  0.1150
17185W        W30599   5.314  17.661  11.792 -0.0542 -0.3768 -0.1113
17186W        W30600   0.815   0.082   4.954  0.0162 -0.0532  0.2368
17187W        W30601   6.244   4.244   2.206  0.0634 -0.2298 -0.0575
17188W        W30602  10.732   5.366   1.352  0.0902 -0.1017  0.2308
17189W        W30603   0.967  14.431   1.799 -0.3846 -0.1209  0.0161
17190W        W30604   9.954  13.775  12.110 -0.1524 -0.0978  0.0773
17191W        W30605   8.775   1.406   0.419 -0.1436  0.2908 -0.0128
17192W        W30606   3.852   5.948  14.025  0.0953 -0.0582  0.1768
17193W        W30607  16.651  11.509   1.782 -0.0138 -0.1856  0.0251
17194W        W30608   0.746   9.145   5.748  0.1787  0.1615 -0.0149
17195W        W30609  13.195   4.037  11.591  0.2357 -0.1938  0.1115
17196W        W30610   5.016   2.279   3.465  0.0924 -0.0243 -0.1234
17197W        W30611  15.432   0.021  14.743 -0.0873  0.3025 -0.0439
17198W        W30612  17.850   0.677  15.953  0.1076  0.4838 -0.0468
17199W        W30613  11.289   5.134  14.537  0.0561  0.0860 -0.1659
17200W        W30614  16.925   5.427  10.962  0.3293  0.1380 -0.0876
17201W        W30615  13.232  17.385   1.872  0.1882  0.0741  0.1173
17202W        W30616  17.139  13.881  15.941 -0.2126 -0.0404 -0.1103
17203W        W30617   8.264   5.040   5.537 -0.3206  0.1959  0.0720
17204W        W30618  16.117   2.065   0.307  0.0923  0.0193 -0.0150
17205W        W30619  15.417   0.167   6.005 -0.1105  0.1183  0.3010
17206W        W30620   9.984  17.245   3.601 -0.0288 -0.1877 -0.3371
17207W        W30621  15.158  10.499  12.321  0.2966 -0.0220 -0.3255
17208W        W30622  16.770   1.408  13.486 -0.2064 -0.0678  0.1263
17209W        W30623  13.083  11.373  12.912  0.0389  0.1020  0.2832
17210W        W30624  12.915   1.060   4.616 -0.1131 -0.0599  0.0425
17211W        W30625   5.907  10.212   5.976  0.2763  0.0398  0.0243
17212W        W30626   8.878  10.078  13.926  0.3410 -0.4681 -0.0711
17213W        W30627   6.702   2.811   0.603 -0.0087 -0.0755 -0.0916
17214W        W30628   0.467   5.656   3.705  0.0329 -0.1370 -0.0475
17215W        W30629   8.497   1.102   3.356  0.1156 -0.0031  0.1168
17216W        W30630  15.163  10.919  15.915 -0.1952 -0.0212 -0.3821
17217W        W30631  18.207  12.659   0.157 -0.0298 -0.0594  0.3460
17218W        W30632  15.281   3.869   0.039  0.0691  0.2811 -0.3735
17219W        W30633  17.779  15.742  12.332 -0.0396  0.2963 -0.0541
17220W        W30634   7.279   1.561   1.984  0.1454  0.1678 -0.1363
17221W        W30635   3.245   7.537  13.374 -0.0084  0.0323 -0.1539
17222W        W30636  12.985   0.063   0.599 -0.0467  0.0147  0.2106
17223W        W30637  16.729   9.535   5.790 -0.0125  0.2142  0.0797
17224W        W30638   5.418  18.155   3.135 -0.1746 -0.3459 -0.3097
17225W        W30639  12.267  13.138  12.981 -0.2515  0.3116  0.1257
17226W        W30640   0.455  10.919   3.696 -0.3900  0.2185  0.2711
17227W        W30641  15.197  12.988   3.290 -0.3752  0.2352  0.3842
17228W        W30642  12.927   9.350  14.244  0.1319  0.0894 -0.0074
17229W        W30643  17.064  17.013  15.812  0.2706 -0.0578 -0.1006
17230W        W30644  10.182  10.246  10.789 -0.2382 -0.2032 -0.0203
17231W        W30645   0.317  17.321   5.505  0.2911  0.2361  0.0294
17232W        W30646   9.442   9.312  16.153  0.0560  0.0634 -0.0366
17233W        W30647  11.953   4.863  10.794 -0.3202  0.2404  0.1676
17234W        W30648   9.134  11.850  14.449 -0.2214 -0.1758  0.1955
17235W        W30649  10.270  13.722   3.187 -0.0725  0.1982 -0.1614
17236W        W30650  10.373  14.828  13.094 -0.1015  0.0939 -0.1320
17237W        W30651  14.368   2.328   3.068  0.2977  0.1931 -0.1279
17238W        W30652  15.067   0.680   4.915  0.0257 -0.0459  0.1946
17239W        W30653   8.365   9.894   1.760  0.1900 -0.2411  0.0417
17240W        W30654   1.572   8.703  11.163 -0.2495 -0.0383  0.0355
17241W        W30655   6.445  12.423  16.017  0.0922 -0.3065 -0.0155
17242W        W30656  17.935   4.564   4.537  0.1296  0.1951  0.3411
17243W        W30657   1.794   2.951   0.304  0.0007 -0.1619  0.1176
17244W        W30658  10.104   3.425   1.803 -0.1156  0.0038 -0.3725
17245W        W30659   2.431   4.657   4.536  0.1740 -0.1208 -0.2082
17246W        W30660  14.965  13.688   0.022  0.1402 -0.2423 -0.4581
17247W        W30661  10.869   5.421   4.059 -0.0602  0.2501  0.0344
17248W        W30662   1.345  16.606   2.846 -0.1008 -0.1879  0.1742
17249W        W30663  14.427  13.830  13.984  0.1729 -0.1316 -0.1290
17250W        W30664   3.700  12.412   1.618  0.2763  0.2622 -0.2652
17251W        W30665   5.395   7.205   2.776 -0.1566 -0.1377  0.1262
17252W        W30666  11.646   3.358  13.904  0.4029 -0.0667 -0.1198
17253W        W30667   0.902  17.084   2.642  0.0701 -0.2914  0.1894
17254W        W30668  11.755  15.492   1.466 -0.0166 -0.0585 -0.3012
17255W        W30669  10.069   7.670  13.948 -0.4109  0.2821 -0.0454
17256W        W30670  12.224   5.368  12.045  0.0550  0.1373 -0.0771
17257W        W30671   3.309  11.633   2.724  0.1136 -0.1312  0.1335
17258W        W30672  11.758   0.649  10.942 -0.3303  0.2218 -0.1985
17259W        W30673  14.506   8.694   5.614  0.1535  0.2756 -0.1754
17260W        W30674   8.007  16.190   4.163  0.0440  0.0989 -0.1353
17261W        W30675   0.116  11.382   1.262 -0.2583  0.0802  0.1513
17262W        W30676  13.797  17.442   3.761 -0.2435 -0.3311 -0.0694
17263W        W30677   4.272  14.720   2.114 -0.0437  0.1318 -0.0199
17264W        W30678  14.565   0.415   4.811 -0.0064  0.0790 -0.0061
17265W        W30679   0.083  11.307  16.468  0.0939 -0.2240  0.2134
17266W        W30680  15.930   0.216   4.949 -0.1545  0.1740 -0.1579
17267W        W30681  12.428   3.084   1.188  0.1423 -0.2010  0.0627
17268W        W30682   3.703  14.290  16.261  0.3872  0.3913 -0.0380
17269W        W30683  17.265   1.153   5.530  0.0127  0.0427 -0.2802
17270W        W30684   1.314  11.728  14.443 -0.1176 -0.1976  0.1172
17271W        W30685   8.386   4.586   2.177 -0.0989 -0.2745  0.3936
17272W        W30686   9.622   4.987  15.556 -0.2162  0.1925 -0.0989
17273W        W30687   1.795  11.581  11.684 -0.3661 -0.0955  0.1208
17274W        W30688   7.690  10.576  11.889  0.1805 -0.1242 -0.2642
17275W        W30689  10.593  14.388  15.842  0.0159  0.2281  0.2644
17276W        W30690   9.563   3.393   5.243  0.0487  0.0115  0.0333
17277W        W30691  17.064   6.057  11.724  0.1879  0.3276  0.0503
17278W        W30692   9.869  15.574  14.810  0.2289  0.0610  0.2501
17279W        W30693  13.539   2.486   2.821  0.2669  0.0200  0.1636
17280W        W30694  14.825   5.037   4.506  0.1809 -0.1839 -0.1210
17281W        W30695   4.432   2.651  11.027  0.2188 -0.2735  0.1027
17282W        W30696   7.482   2.785   0.805  0.1114  0.1925 -0.0881
17283W        W30697  13.183   6.803  11.196  0.0599  0.0027 -0.2126
17284W        W30698  11.618   8.737   1.022 -0.0825 -0.2557  0.2055
17285W        W30699  15.932   1.154  14.394 -0.2812  0.0480 -0.2367
17286W        W30700  11.086   8.231  13.360  0.0843  0.0361 -0.0199
17287W        W30701   4.310  15.474   6.226  0.0972 -0.1063  0.0031
17288W        W30702   6.244  17.915   1.250 -0.0156 -0.1050  0.0094
17289W        W30703   1.366  14.447  12.813  0.1207 -0.0239  0.1043
17290W        W30704   6.862   2.457  16.105 -0.0345  0.2892 -0.1656
17291W        W30705   0.282  16.107  11.536 -0.0884 -0.2135  0.0487
17292W        W30706  13.053   1.591   1.860 -0.0077  0.1780  0.1020
17293W        W30707  11.374   5.994   4.850 -0.0829  0.2519  0.1380
17294W        W30708   3.487   4.216  14.916  0.2883 -0.0546  0.1188
17295W        W30709  10.179  12.271  12.313 -0.1961  0.0868  0.0646
17296W        W30710  13.779  12.241   3.168  0.1235  0.0304  0.1888
17297W        W30711  13.396   0.436   1.335 -0.2120 -0.0988 -0.1339
17298W        W30712   4.898  10.726  12.765 -0.0097 -0.2201  0.1541
17299W        W30713   6.689   1.153  14.389 -0.1673 -0.0511 -0.0792
17300W        W30714  12.692   3.531   0.147 -0.0505  0.3661  0.0667
17301W        W30715  15.303   5.713  14.530 -0.0562 -0.0218 -0.1365
17302W        W30716  17.421  10.247   5.575 -0.1712 -0.2609 -0.2451
17303W        W30717  12.517   5.495  15.607  0.1161 -0.0898 -0.0108
17304W        W30718   8.625  12.166   3.555  0.4225 -0.0328 -0.3094
17305W        W30719  15.596  14.981  13.046 -0.1549 -0.3477  0.0768
17306W        W30720  14.709  17.065   3.685 -0.1664 -0.1026 -0.1546
17307W        W30721   7.688   3.417  12.728  0.0461 -0.0878  0.0202
17308W        W30722  13.469  11.107   0.381 -0.0193 -0.0208  0.1746
17309W        W30723   2.266   4.860  12.333  0.0701 -0.1873 -0.2152
17310W        W30724  17.521  15.409   4.792 -0.0436  0.4061  0.0887
17311W        W30725   4.818  11.663  15.394 -0.1119  0.2984 -0.1976
17312W        W30726  16.532  17.766   6.285  0.0644  0.1592 -0.1188
17313W        W30727  16.550   4.853   4.016 -0.2659  0.2852  0.0242
17314W        W30728   1.916   4.266  15.452 -0.2093  0.0377  0.1182
17315W        W30729   6.788   5.073   0.926 -0.1886 -0.1076  0.2362
17316W        W30730  17.137  15.897   7.064 -0.1935  0.0287 -0.1288
17317W        W30731   2.417  16.116  11.065 -0.0107 -0.2356  0.1915
17318W        W30732   8.311  14.861   5.713 -0.2850 -0.1378 -0.0283
17319W        W30733  14.955   0.128  14.473 -0.0148 -0.0418  0.0135
17320W        W30734   9.185  15.759   3.937 -0.0662  0.0401  0.2455
17321W        W30735   6.618  16.760  14.136 -0.0256  0.1075 -0.0109
17322W        W30736  14.472   4.621   5.215 -0.0590  0.1152 -0.3857
17323W        W30737   5.942   7.152   5.810  0.0367 -0.1012  0.3443
17324W        W30738  11.735  15.120   3.877  0.0229 -0.1353 -0.2029
17325W        W30739   6.835   4.816  12.365 -0.1766 -0.1642  0.1352
17326W        W30740   5.109  13.458   2.277 -0.0125 -0.3419  0.1641
17327W        W30741  13.037   6.386   2.544 -0.2538 -0.0241  0.0524
17328W        W30742   0.443  13.481   4.275  0.3371 -0.0335  0.2365
17329W        W30743   0.337   8.379   4.600  0.2125 -0.2569 -0.0895
17330W        W30744  10.248   0.883  12.841  0.1078 -0.2105  0.0647
17331W        W30745   5.522   1.806  12.039 -0.0559  0.0404 -0.0324
17332W        W30746  17.952   8.795  13.968 -0.1002 -0.0850 -0.0153
17333W        W30747   7.913   5.439   5.560 -0.1009 -0.3487 -0.0296
17334W        W30748  14.258   1.586  12.848  0.0349  0.0527 -0.0323
17335W        W30749   6.457   4.315  15.456 -0.3311  0.0242  0.3792
17336W        W30750  16.286   1.954  12.895  0.2264 -0.0946  0.0850
17337W        W30751   5.787   6.101   9.893 -0.1516  0.1395 -0.2566
17338W        W30752   3.292  12.450  14.373  0.0328 -0.0586 -0.0042
17339W        W30753  12.178  18.074   4.148  0.3295 -0.1091 -0.2440
17340W        W30754   4.646   3.195  13.307 -0.1310 -0.0172  0.0153
17341W        W30755  10.417  16.592  10.269 -0.3455 -0.0073  0.0547
17342W        W30756  15.018  11.394   6.052 -0.1402 -0.0227 -0.2527
17343W        W30757  11.636  15.480  14.397  0.0186 -0.1184 -0.0812
17344W        W30758   8.162   5.147   0.603  0.1919 -0.0743  0.1018
17345W        W30759  10.701   4.181  14.261 -0.2153  0.0193 -0.0295
17346W        W30760  16.368  12.891   4.653  0.2313 -0.1312 -0.1986
17347W        W30761   9.915   9.868  10.544 -0.2367 -0.2065 -0.1038
17348W        W30762   0.013  17.492   5.147 -0.1663 -0.0519  0.0249
17349W        W30763   2.931   7.597   5.959  0.2627 -0.2547  0.0146
17350W        W30764  17.378   9.364   1.727  0.0774 -0.0335 -0.0971
17351W        W30765   5.393  17.327  10.731 -0.0243 -0.4137  0.3056
17352W        W30766   1.708  16.010   5.009  0.2635 -0.0870 -0.0688
17353W        W30767  13.752  12.147  16.330 -0.0061 -0.2711 -0.0620
17354W        W30768   5.295  17.699   3.014  0.0593 -0.0985  0.2972
17355W        W30769   9.402   1.257  13.569 -0.2747 -0.2355 -0.1719
17356W        W30770  18.073  10.901  13.382  0.1532 -0.0093 -0.2466
17357W        W30771  15.677   5.375   5.623  0.0135  0.0050  0.0473
17358W        W30772  16.395   2.742   1.576 -0.3166  0.2456  0.0372
17359W        W30773   5.234   3.709  15.128  0.0322 -0.0896  0.0304
17360W        W30774  11.655  11.844  13.702 -0.3906  0.2120  0.3032
17361W        W30775  16.503   2.648   2.914 -0.1058 -0.1395  0.0409
17362W        W30776   5.744   9.251   3.075 -0.1573 -0.0672 -0.1160
17363W        W30777   6.086  15.241  10.593  0.2250 -0.1106  0.0664
17364W        W30778  14.940   3.180  12.382 -0.1057  0.1572  0.2026
17365W        W30779  12.793  17.558  10.307  0.1131  0.0538  0.0292
17366W        W30780  17.983  14.154  14.090 -0.0306 -0.0250 -0.1148
17367W        W30781  10.357  12.846   3.756  0.0161 -0.0086 -0.1528
17368W        W30782   7.611  11.841   3.931 -0.0646 -0.0965  0.1652
17369W        W30783  11.280   4.563  15.468 -0.0583 -0.3055 -0.2619
17370W        W30784  12.240  14.261  15.072  0.1155 -0.0827 -0.0531
17371W        W30785   3.008   9.930  14.948  0.0293  0.1209  0.3145
17372W        W30786   1.171  12.086  14.108  0.1673  0.0689  0.0024
17373W        W30787  15.100   2.178   5.001 -0.0769 -0.0515 -0.0295
17374W        W30788  16.677   2.540   3.705  0.0678 -0.0685  0.0798
17375W        W30789   6.056  11.783   4.768 -0.1872 -0.0677  0.0978
17376W        W30790   8.223   6.495  10.348 -0.1036 -0.0663  0.0772
17377W        W30791   1.048   3.861  14.324 -0.0203 -0.0049  0.0765
17378W        W30792   4.935  10.942  14.728  0.0773 -0.0361 -0.0633
17379W        W30793   1.877  16.419   5.369  0.1744 -0.1488 -0.1583
17380W        W30794   6.179  12.357  11.435 -0.0184  0.0971  0.0207
17381W        W30795  18.217  10.112  11.376  0.2406 -0.1472 -0.1831
17382W        W30796   9.878  11.952   2.635  0.0365 -0.1822  0.1509
17383W        W30797   9.411   4.784   9.609  0.1264 -0.0759  0.1384
17384W        W30798  10.733  12.215   0.493  0.1874  0.0287  0.1130
17385W        W30799  17.676  16.287   6.028 -0.2962  0.2784 -0.0923
17386W        W30800   8.955   1.444  12.302  0.0823 -0.0109 -0.0314
17387W        W30801   6.604   1.758   5.677  0.3462 -0.3263  0.1494
17388W        W30802   3.788  16.798  15.735  0.1625  0.0888 -0.1710
17389W        W30803  16.121   8.934   3.945 -0.0882 -0.0444 -0.0451
17390W        W30804   2.573   8.780   2.359 -0.2072  0.1935 -0.2212
17391W        W30805   9.424  12.797   2.760  0.0306  0.0145  0.4312
17392W        W30806  16.456  11.560  12.199 -0.3773  0.4361 -0.1760
17393W        W30807   8.815  15.882  15.408 -0.1098 -0.0487  0.3278
17394W        W30808   0.357   0.586  12.746 -0.0682 -0.1811 -0.2219
17395W        W30809   1.300  11.660   2.651  0.3183 -0.1577 -0.0900
17396W        W30810  12.158   4.537  15.360  0.0016 -0.0582  0.1571
17397W        W30811   5.218  14.435   4.652  0.2987 -0.2041 -0.2022
17398W        W30812  17.513   5.603  12.933  0.1770  0.1478  0.0504
17399W        W30813  13.094  15.082  15.235  0.0303 -0.2172  0.0092
17400W        W30814   5.900  15.202  15.743  0.2880 -0.1230  0.0741
17401W        W30815  10.577  16.181   5.156  0.0483 -0.3524  0.0859
17402W        W30816  15.885   1.030  15.406  0.0453  0.2170  0.0438
17403W        W30817  15.273   1.403   1.687  0.0706  0.0064 -0.0856
17404W        W30818  17.998  13.027  15.192  0.0818  0.0549 -0.1551
17405W        W30819   4.396   7.663   2.761 -0.1235 -0.2011  0.1551
17406W        W30820  18.108  13.679   5.001 -0.2655  0.1315  0.3780
17407W        W30821   2.779  15.177   6.387 -0.0547 -0.2604 -0.0236
17408W        W30822   7.243  11.450   2.123  0.0608  0.0673 -0.0315
17409W        W30823  16.604  15.047  14.446  0.1016  0.2246  0.2465
17410W        W30824   0.715  10.739   0.243  0.0358  0.0393  0.1050
17411W        W30825   1.281  12.435  10.059 -0.0886 -0.1035 -0.0656
17412W        W30826   2.212  17.436  15.747 -0.2722  0.1801  0.1001
17413W        W30827  14.594   4.957   4.051 -0.0944  0.1671  0.0436
17414W        W30828  15.627  11.114  15.920 -0.2076 -0.0013 -0.3155
17415W        W30829  12.715   8.382  12.596 -0.0208 -0.2520 -0.2517
17416W        W30830  12.577  11.061  10.058  0.4001  0.0019  0.2182
17417W        W30831   1.639   8.809   2.304  0.1780  0.0870  0.0163
17418W        W30832  14.090  13.532   0.262 -0.1933  0.1543  0.1041
17419W        W30833   5.796   2.497   0.651 -0.0269 -0.2631  0.3957
17420W        W30834  17.435   6.641   0.247 -0.1720 -0.1629 -0.0237
17421W        W30835   2.248  10.906  13.395  0.2284 -0.1314  0.0638
17422W        W30836   4.730   4.683  16.082 -0.2419  0.0097  0.2116
17423W        W30837  11.625   5.638   4.974  0.1585 -0.2544 -0.0378
17424W        W30838  15.499  10.319  15.179  0.2990  0.0740 -0.0005
17425W        W30839   8.152   7.505   3.004  0.2602  0.0199  0.0253
17426W        W30840  14.327   6.858   5.581 -0.1393 -0.0547  0.2565
17427W        W30841   3.206  17.471   5.766 -0.0328 -0.0930  0.1154
17428W        W30842  14.724   0.096   1.298 -0.1205 -0.2790  0.0636
17429W        W30843   1.151  14.459  14.427 -0.1594  0.0497  0.0609
17430W        W30844   9.334  11.273   1.396  0.2110  0.1045  0.1668
17431W        W30845   4.077  16.272  16.239 -0.0264  0.0880 -0.0306
17432W        W30846  13.070  11.482   5.283 -0.0146  0.1394 -0.4796
17433W        W30847   0.945  15.001  12.143 -0.2704 -0.0304  0.0556
17434W        W30848  15.550   1.511  11.032 -0.0949 -0.5342 -0.2372
17435W        W30849   7.943  12.178  13.189 -0.0893 -0.0712 -0.2043
17436W        W30850   3.009   8.589   4.435 -0.0540  0.1913  0.0339
17437W        W30851   5.991   8.037   5.949 -0.0449  0.1087 -0.2685
17438W        W30852   3.942  17.857   5.046 -0.1362  0.0276  0.1453
17439W        W30853  16.745   0.190  12.132  0.1086  0.1093  0.2653
17440W        W30854   2.972   9.261   1.112  0.0232  0.0852 -0.0291
17441W        W30855   8.843  10.070  13.325 -0.0318 -0.2719  0.0162
17442W        W30856  14.329  15.087  11.464 -0.1197  0.0556 -0.2418
17443W        W30857   1.403   0.521  13.427  0.1892 -0.0207  0.0795
17444W        W30858   0.617  11.226   4.087  0.0188  0.0532 -0.2187
17445W        W30859  17.083  12.837   0.640  0.2375  0.0667 -0.0219
17446W        W30860  12.872  15.904   2.793 -0.1099 -0.0140 -0.0779
17447W        W30861  16.080  14.354   4.882 -0.0241 -0.2145 -0.0274
17448W        W30862   1.569  11.233   5.643  0.1174 -0.0140  0.0797
17449W        W30863  12.391  13.294  10.350 -0.1359  0.2242 -0.0581
17450W        W30864  13.012  17.123  11.063 -0.1600 -0.1055  0.0274
17451W        W30865   0.872  14.590  13.038  0.0942 -0.0548  0.2040
17452W        W30866   8.641  11.466   4.378  0.0864 -0.3105 -0.0344
17453W        W30867   5.472  13.004  11.464  0.1951  0.0500  0.1253
17454W        W30868   4.101  12.226  15.479 -0.2435  0.1286 -0.1511
17455W        W30869   1.256   7.106  12.741  0.1261  0.1205 -0.1541
17456W        W30870   7.023   1.993   4.077 -0.0971  0.0439  0.0709
17457W        W30871   5.606  15.098  10.574 -0.1017  0.2242 -0.0666
17458W        W30872   7.378   3.221  13.818  0.0280 -0.0229 -0.0027
17459W        W30873   6.768   5.314   4.953 -0.1240 -0.2682 -0.3869
17460W        W30874   3.840  12.989   0.965  0.0771 -0.1232 -0.0500
17461W        W30875   4.924   4.554   3.927 -0.1214  0.0367 -0.0193
17462W        W30876   5.174   0.151  12.471 -0.2874 -0.0877 -0.1914
17463W        W30877  13.640   4.523  13.484 -0.0945  0.3706  0.0212
17464W        W30878  17.239   2.735  12.585  0.0993 -0.1566  0.0822
17465W        W30879   3.228  13.372   5.122  0.1483 -0.2247 -0.0312
17466W        W30880   7.637   0.586  16.451 -0.1443  0.0841  0.1274
17467W        W30881   9.751   8.864   0.864 -0.2112 -0.1409 -0.3238
17468W        W30882  10.854   3.406  14.666 -0.1768 -0.1982 -0.2000
17469W        W30883  17.222  13.146   1.618  0.0635 -0.1303  0.3078
17470W        W30884  14.957   8.917  11.871  0.0945  0.0760  0.0847
17471W        W30885  16.396   3.163  15.845 -0.0960  0.1544 -0.0071
17472W        W30886  14.013   4.019  11.429  0.0404 -0.1296  0.1215
17473W        W30887   9.155  15.669   1.152  0.2622 -0.2543  0.0042
17474W        W30888   7.795  15.017   0.125 -0.0519 -0.1742 -0.1608
17475W        W30889  15.183   0.780  13.205 -0.1375  0.0540 -0.1145
17476W        W30890  16.051   3.128   3.584 -0.0830  0.3186  0.4563
17477W        W30891   4.991  13.874   0.478 -0.1849 -0.0906  0.2752
17478W        W30892  11.907   9.038   6.449  0.1243  0.1929 -0.1026
17479W        W30893   6.114   4.137  15.878  0.1146  0.2579  0.2696
17480W        W30894   6.991   0.858   4.758 -0.1461  0.2309  0.1619
17481W        W30895   7.881   7.699  11.815 -0.1746 -0.1703 -0.0040
17482W        W30896   3.094   5.941  12.972  0.1913 -0.1047  0.2450
17483W        W30897   9.812  13.337   5.456  0.0602 -0.0124 -0.0880
17484W        W30898   8.964  18.143   3.079 -0.1797 -0.1586 -0.2325
17485W        W30899   7.799   5.713   2.461  0.1425 -0.1413 -0.0647
17486W        W30900   1.886  16.991  10.896  0.1373 -0.0348  0.0388
17487W        W30901   4.580   8.814   2.087  0.0128  0.1407 -0.2561
17488W        W30902  12.129  13.169  10.817 -0.0208 -0.2187 -0.0074
17489W        W30903  10.670  16.819  14.645  0.2131  0.0151 -0.0861
17490W        W30904  16.153   9.948   3.108 -0.1740  0.1365  0.0808
17491W        W30905  14.839  17.530  12.213  0.2768  0.1404  0.0765
17492W        W30906   1.869  16.628   2.314 -0.3121  0.1394  0.1115
17493W        W30907   0.148   5.393   1.499  0.1465  0.0325  0.2341
17494W        W30908   5.052   7.271  12.484 -0.0265 -0.1060 -0.0584
17495W        W30909  13.450  10.949  14.276  0.1785 -0.0112  0.0653
17496W        W30910   3.263   8.443   4.014 -0.1076  0.1567  0.0688
17497W        W30911  12.305  14.623  10.122  0.3838  0.0061  0.0360
17498W        W30912   8.371  12.599   6.069  0.0053 -0.2888  0.1483
17499W        W30913   0.887   0.984  15.591 -0.0350 -0.0193  0.0228
17500W        W30914   2.051  12.875   0.135 -0.2001  0.0224  0.2251
17501W        W30915   1.686   0.348   2.483 -0.0463 -0.1836  0.4298
17502W        W30916   8.918   3.242   3.865  0.0119 -0.1879  0.2230
17503W        W30917  10.374  10.104  11.766 -0.0342  0.3343  0.1997
17504W        W30918  11.032   4.090  13.359  0.2306  0.0485 -0.1063
17505W        W30919   1.941  16.011  12.730  0.1565  0.0234  0.2445
17506W        W30920  12.944   2.774  13.983  0.0229  0.0756  0.1404
17507W        W30921   2.591  12.238  13.045 -0.4154  0.2589  0.0590
17508W        W30922  17.250   0.610  14.307 -0.1190  0.0102  0.0251
17509W        W30923   7.023  15.087   4.471 -0.0372 -0.0274 -0.0508
17510W        W30924   5.129   4.890  14.427 -0.0043 -0.0281 -0.3736
17511W        W30925  18.236   7.128   1.729  0.0612  0.0220  0.2505
17512W        W30926   1.472  12.820   3.250  0.3150 -0.1534  0.0687
17513W        W30927   7.016  10.951   3.573  0.0816 -0.1294  0.1721
17514W        W30928  14.316   5.339   3.911 -0.0881  0.2795 -0.2538
17515W        W30929  15.949   8.203  16.001  0.1212 -0.2602 -0.0952
17516W        W30930  15.822  15.273   0.452 -0.0484  0.2743 -0.0087
17517W        W30931   2.031  15.431  14.963  0.1243 -0.2086  0.4025
17518W        W30932  13.854   4.887  11.685  0.0113  0.2355  0.3857
17519W        W30933   5.075   3.204  14.056  0.0840  0.1372 -0.1017
17520W        W30934  13.730   0.798  12.850 -0.0449 -0.1634 -0.2073
17521W        W30935   8.986   9.714   0.478 -0.3146  0.2019  0.0429
17522W        W30936  13.941  10.268  13.664 -0.0737 -0.0346  0.2797
17523W        W30937   9.793  14.832   9.646  0.0595  0.0455 -0.1371
17524W        W30938  14.948   9.973  13.450 -0.0402 -0.1655 -0.1456
17525W        W30939  17.088   1.639   5.616  0.2952 -0.2310 -0.0474
17526W        W30940   6.623  15.282  11.428 -0.0823 -0.1506  0.0703
17527W        W30941   1.340   6.684  15.921  0.0513  0.1882 -0.3940
17528W        W30942   4.048   0.467  12.542  0.0603 -0.1174 -0.3109
17529W        W30943   3.173  11.855  13.065  0.1132 -0.0200 -0.0975
17530W        W30944  15.164  15.677  12.773 -0.3178 -0.2414 -0.1960
17531W        W30945  13.331  14.319  16.363 -0.0878 -0.1286  0.0542
17532W        W30946  10.515  17.340   0.991  0.0444  0.0025 -0.1583
17533W        W30947  14.870  11.432   2.987 -0.3297  0.3033  0.0650
17534W        W30948   0.263  12.070   4.682  0.0671 -0.0877 -0.0256
17535W        W30949   3.607   1.750  16.111  0.1965 -0.1772 -0.2168
17536W        W30950   3.682  15.832  13.232  0.2946  0.0468  0.1502
17537W        W30951  17.397   6.193  13.256 -0.0718  0.0503  0.0797
17538W        W30952   5.720   4.124  11.615 -0.1400  0.3860  0.0865
17539W        W30953   0.325  10.725   0.645  0.0454 -0.1468  0.0634
17540W        W30954  15.053  16.691  12.976 -0.0618  0.0563 -0.2247
17541W        W30955   1.617   9.016   3.718 -0.0258  0.0910  0.0939
17542W        W30956   0.786  17.607   1.841  0.0900  0.1251  0.2249
17543W        W30957  11.469   8.659  16.100 -0.0200  0.0059  0.2041
17544W        W30958  14.779   2.324  14.379  0.0872  0.2222  0.0999
17545W        W30959   6.274  16.002  13.058  0.1875 -0.1301 -0.2870
17546W        W30960   5.548   6.747   0.392  0.1308 -0.3910  0.1617
17547W        W30961   9.949   3.982   4.174 -0.2076 -0.3573  0.0231
17548W        W30962   8.547   8.197   2.305  0.1023 -0.1073  0.0499
17549W        W30963   4.920   8.239   5.431  0.2293  0.1596  0.1930
17550W        W30964  13.221   3.639  14.609 -0.0619  0.0034  0.0131
17551W        W30965   1.018   7.673   0.158 -0.3559  0.5505  0.0940
17552W        W30966  14.549   2.871   1.824 -0.2203  0.1360 -0.3315
17553W        W30967  17.107   8.757   2.294  0.0449  0.1019  0.0863
17554W        W30968   6.617  16.418  15.817 -0.2574 -0.0202 -0.0991
17555W        W30969  17.558   2.017  13.511  0.1156 -0.1890  0.0389
17556W        W30970  15.242  13.658  12.806  0.2797  0.2212  0.1006
17557W        W30971   2.088  17.097   2.328 -0.3349  0.0694 -0.1060
17558W        W30972   0.999  17.405   3.925  0.2098  0.0066 -0.2517
17559W        W30973  15.349  14.593   1.399  0.1635  0.1315  0.0465
17560W        W30974  12.228   8.827   3.601 -0.0217  0.1554 -0.1645
17561W        W30975   8.016   9.580   0.149 -0.1251  0.0405  0.0821
17562W        W30976  15.992   3.530  14.094 -0.1143  0.0548 -0.2831
17563W        W30977   2.038  16.283  10.747  0.0596  0.1745  0.0759
17564W        W30978  11.228   7.661  13.368  0.1284  0.1147 -0.1924
17565W        W30979   5.834  14.476   4.556 -0.0182  0.0292  0.3754
17566W        W30980   6.487   0.971   0.725 -0.0315  0.1204 -0.3553
17567W        W30981   5.306   4.508   4.511 -0.0259  0.0973 -0.3757
17568W        W30982  13.566  14.722   0.828  0.1830  0.2710 -0.1419
17569W        W30983  15.922  12.139   2.689  0.0889 -0.1637 -0.0536
17570W        W30984   8.485   9.711  13.988  0.0060 -0.0065  0.0582
17571W        W30985  16.077   1.622  14.070 -0.1731 -0.0458  0.2420
17572W        W30986   1.060  11.119   5.715  0.1901 -0.0480  0.1197
17573W        W30987   8.521   1.489   4.044  0.1424 -0.1377  0.1086
17574W        W30988  15.327   5.377   0.430  0.3322 -0.2144  0.2069
17575W        W30989   2.725   9.327   2.269  0.4295 -0.2682  0.1529
17576W        W30990  11.826  13.173   2.035  0.1802  0.2076 -0.0494
17577W        W30991  17.644  16.059   0.687 -0.2537 -0.0447 -0.0038
17578W        W30992  12.561  10.104  13.642 -0.2392  0.2460  0.0029
17579W        W30993  10.988   2.547   4.362 -0.0732  0.1127 -0.1245
17580W        W30994   4.156  16.717  11.437  0.1960 -0.2804  0.0858
17581W        W30995  18.002  15.766   6.240 -0.1053 -0.1526 -0.0245
17582W        W30996  12.503   2.824  10.046 -0.3962 -0.3776 -0.1256
17583W        W30997   0.438   3.634   2.386  0.1780 -0.1231  0.0984
17584W        W30998  15.485   2.619   1.204 -0.2666 -0.1429 -0.1901
17585W        W30999  14.216   9.444  13.557  0.0798 -0.3544  0.0817
17586W        W31000   7.128  14.714  12.620  0.0873 -0.0637  0.0884
17587W        W31001   7.714   0.782   3.445  0.1326  0.1637  0.1985
17588W        W31002   7.465   1.620  14.750  0.0088 -0.0447 -0.0366
17589W        W31003   2.662   2.899  13.660 -0.0921  0.0021 -0.1290
17590W        W31004  11.735   4.623  11.158  0.3031  0.2941  0.1995
17591W        W31005  15.875  13.402   0.011 -0.2550 -0.2323  0.1341
17592W        W31006  11.015  15.089   2.091 -0.0866 -0.2524 -0.1371
17593W        W31007   0.234   8.583   2.955 -0.6041  0.0848 -0.2365
17594W        W31008   9.065   8.838   0.327 -0.0792  0.2666  0.0896
17595W        W31009   1.040   9.531  16.132 -0.0712 -0.2457 -0.0438
17596W        W31010   5.015  15.856   2.645  0.0332  0.1737 -0.1992
17597W        W31011  11.672   5.970  13.542 -0.0711  0.1691  0.2675
17598W        W31012  17.026   9.800  11.942 -0.0719  0.1661  0.5377
17599W        W31013  11.883   8.333  10.591  0.0991  0.0743  0.3382
17600W        W31014   7.690   0.297   2.794  0.3147  0.0826 -0.2761
17601W        W31015   6.352  14.854  14.677 -0.1797  0.3006  0.1503
17602W        W31016  17.871   3.843  10.596  0.1195 -0.1442 -0.2396
17603W        W31017   8.341  10.573  12.616 -0.1817 -0.0018 -0.2180
17604W        W31018  14.641   7.307  11.189 -0.1043  0.2584 -0.0574
17605W        W31019  14.585   7.612   0.081  0.0031 -0.0641  0.0092
17606W        W31020  10.785   9.400  12.216 -0.0213 -0.0611  0.1589
17607W        W31021   8.113   5.420  12.508  0.0214  0.3497 -0.2024
17608W        W31022   7.296   0.749  11.789 -0.0807  0.0980  0.1972
17609W        W31023  16.882  11.995   5.615  0.0768 -0.2046 -0.0668
17610W        W31024   9.828   3.922  11.931 -0.0386 -0.0790  0.0399
17611W        W31025   9.700   6.250  13.360 -0.1083 -0.1552  0.2470
17612W        W31026   7.505   4.469   2.648 -0.3471 -0.0772 -0.1517
17613W        W31027  15.223   0.296  12.012  0.3772 -0.1493 -0.0651
17614W        W31028  13.420  10.548   1.318  0.1037 -0.2696 -0.1720
17615W        W31029  10.190   8.661  13.678  0.1970  0.2364 -0.0088
17616W        W31030   5.755   6.807   0.812  0.3767 -0.0983 -0.2974
17617W        W31031   5.302   3.698   4.270 -0.1214  0.1145  0.0637
17618W        W31032   6.619   0.455   2.716  0.1497  0.1866 -0.2983
17619W        W31033  12.365   5.029  11.049  0.1501 -0.0637 -0.2150
17620W        W31034   1.219  16.426   3.751  0.0628  0.0762  0.1251
17621W        W31035  14.437   5.401  13.551 -0.0069 -0.1443 -0.2576
17622W        W31036   8.600  14.377   5.432  0.1547  0.1634  0.0598
17623W        W31037   8.978   9.473  15.222 -0.2405  0.0625 -0.0566
17624W        W31038   5.630  13.178   4.234 -0.3886  0.2661  0.0467
17625W        W31039   3.088   3.551  13.060  0.2319  0.3626  0.0461
17626W        W31040   0.606  14.056  13.896 -0.2624  0.0822 -0.1739
17627W        W31041   4.025  12.479   5.936  0.0731 -0.1259 -0.4775
17628W        W31042  15.732   8.448  10.896 -0.0624 -0.1076  0.0659
17629W        W31043  16.023   1.410   5.417 -0.0283 -0.1423  0.4145
17630W        W31044  17.343  16.771   5.600 -0.0137  0.0450  0.2449
17631W        W31045  11.765  17.018  13.169 -0.1662 -0.1884  0.0728
17632W        W31046   5.592  10.928  13.141  0.1102 -0.0876  0.0549
17633W        W31047  12.487  15.059  13.009  0.2351 -0.0380 -0.0768
17634W        W31048   9.465  11.190  14.864 -0.1976  0.1025 -0.1478
17635W        W31049  11.877  16.943  10.153  0.0048 -0.1536  0.2197
17636W        W31050  13.729  14.001   6.025 -0.1075 -0.1755  0.1265
17637W        W31051   6.558   0.794  15.705  0.1238 -0.2662 -0.3937
17638W        W31052   9.239  13.261   2.825  0.0262 -0.1012 -0.2503
17639W        W31053  11.418   9.073   5.542 -0.3088 -0.2173 -0.0521
17640W        W31054  11.824   5.417  12.860  0.0206  0.1186  0.2167
17641W        W31055   0.727   9.308  16.438 -0.0130 -0.0900 -0.1403
17642W        W31056   0.991   0.211   1.539 -0.1492 -0.2282  0.0855
17643W        W31057  15.601  13.236  12.633 -0.3799  0.1548 -0.3140
17644W        W31058   3.302  14.540  15.319 -0.1042  0.1494 -0.1574
17645W        W31059   5.740   1.049  11.408  0.2081 -0.1910  0.0199
17646W        W31060  11.330   3.832   0.891  0.0943 -0.0518  0.0037
17647W        W31061   5.515   3.353   0.366 -0.0250  0.1293  0.1435
17648W        W31062  18.022   9.840   3.142  0.0282  0.0031 -0.1815
17649W        W31063   2.865   1.025  16.485 -0.1471 -0.0537 -0.0857
17650W        W31064  17.387   4.692  11.053  0.0847 -0.1839 -0.1871
17651W        W31065  15.928  13.160   0.527  0.0140 -0.1726 -0.1291
17652W        W31066   8.469   5.285   0.185 -0.0961  0.0216 -0.1893
17653W        W31067   9.274   8.224  12.546 -0.0878  0.0142 -0.0592
17654W        W31068   1.467  11.291  11.273  0.0830  0.0472 -0.1495
17655W        W31069  16.188  12.932   0.130  0.3248  0.2216  0.0049
17656W        W31070  13.073  11.728  15.330 -0.2788 -0.1705 -0.3632
17657W        W31071   8.176  13.578   5.052  0.0730 -0.0224  0.0621
17658W        W31072   6.743   3.198  14.895  0.5569  0.0252  0.1599
17659W        W31073  16.915   4.974   1.099  0.0533  0.0212 -0.3119
17660W        W31074   8.679   1.849   0.634 -0.2329 -0.1824  0.4158
17661W        W31075   2.845  15.640   6.758 -0.0414 -0.0971 -0.2187
17662W        W31076   3.271   5.444  14.749  0.1876  0.0937  0.5290
17663W        W31077  13.277   8.037  15.436 -0.1435  0.1626 -0.3940
17664W        W31078   8.412  15.800  12.024 -0.0101 -0.2809  0.0828
17665W        W31079  11.571   4.734   4.916  0.2229 -0.0599 -0.1583
17666W        W31080   3.574   0.226  10.615  0.0493  0.3074 -0.2812
17667W        W31081  13.385  11.843   3.111 -0.1161  0.1287  0.3595
17668W        W31082   8.477   6.144  12.790  0.4296 -0.3511  0.1801
17669W        W31083   8.144   6.171  11.952  0.2230 -0.1452  0.1833
17670W        W31084   9.202   8.208  11.997 -0.1016  0.1015  0.0031
17671W        W31085   7.219   4.045   3.486  0.2022  0.1549 -0.3354
17672W        W31086   4.117   0.165  13.007  0.2520 -0.0056 -0.1117
17673W        W31087  17.606   8.923  15.991 -0.3649 -0.0593  0.1588
17674W        W31088  15.065   8.643   4.088 -0.2724 -0.0754 -0.1050
17675W        W31089   8.778  14.307   3.650  0.2434  0.0296  0.0641
17676W        W31090   2.355  15.039  14.993 -0.1205 -0.2847  0.0207
17677W        W31091   9.332   3.656  15.795 -0.0831  0.3184 -0.1203
17678W        W31092  16.360   7.026  12.436 -0.1376  0.1752 -0.2687
17679W        W31093   7.506   8.753  15.072  0.2272 -0.2042 -0.0805
17680W        W31094  14.089   2.021   3.974 -0.0122 -0.0862  0.2109
17681W        W31095   2.545  11.359  10.797 -0.0371 -0.0501  0.0005
17682W        W31096   6.184   4.833  13.185 -0.0302  0.1870  0.1351
17683W        W31097  15.371   9.845   1.581  0.0812  0.0396  0.1809
17684W        W31098   5.855  14.530   1.312  0.2987 -0.0545  0.0319
17685W        W31099   2.016   2.520   9.921 -0.2301 -0.0138  0.0276
17686W        W31100  13.370  13.997  12.791  0.2644 -0.0003  0.1912
17687W        W31101   8.090   0.378  13.635  0.0157  0.1074  0.2527
17688W        W31102   5.565  15.994  10.308  0.0886  0.3842  0.0793
17689W        W31103   1.337  17.634  12.451  0.0175 -0.1697  0.1075
17690W        W31104   4.683   4.281  13.522  0.0709  0.0749  0.1639
17691W        W31105   3.841   5.620   2.751 -0.2320  0.2149 -0.2930
17692W        W31106  13.568  17.099   3.135  0.3084 -0.0374 -0.3868
17693W        W31107  14.126   8.152  12.443 -0.0414 -0.0657 -0.0625
17694W        W31108   3.539   5.420   4.002  0.0760  0.2083 -0.3320
17695W        W31109   2.761  12.831  15.100  0.3436 -0.1506  0.1255
17696W        W31110  14.080   0.718  15.369  0.4464 -0.2328 -0.2314
17697W        W31111   3.967   5.994  10.805 -0.0163 -0.2271  0.1553
17698W        W31112  17.593  15.021   1.672  0.1769 -0.2217 -0.1692
17699W        W31113  10.770   5.288   1.930 -0.1420  0.2479  0.0586
17700W        W31114  11.531  15.776   3.041 -0.2225  0.0299 -0.0401
17701W        W31115  17.568  10.199   0.184  0.0259  0.1548  0.0217
17702W        W31116  17.390  16.340   3.813  0.2121 -0.1375 -0.0866
17703W        W31117  10.487  16.998  11.908 -0.2868 -0.4691 -0.4678
17704W        W31118   8.999   6.803   1.175 -0.0040 -0.3715  0.0009
17705W        W31119  16.384   0.821  14.188 -0.1111 -0.1584 -0.1736
17706W        W31120  15.547   4.311  11.610  0.0908  0.1430 -0.3182
17707W        W31121   8.840   7.699   3.000  0.1662 -0.2614  0.2276
17708W        W31122   7.545   4.059  14.796 -0.0423 -0.0987  0.1609
17709W        W31123   0.778  16.362   4.952 -0.2534 -0.0686  0.2401
17710W        W31124  10.741   5.632  11.389  0.0789  0.2216 -0.0663
17711W        W31125  15.678   3.820  12.385  0.1631 -0.0553 -0.0754
17712W        W31126   3.713   2.195  11.473  0.1952  0.1291 -0.2087
17713W        W31127   1.069   4.686   0.107  0.3050  0.1384  0.0793
17714W        W31128   6.283  15.979  11.861  0.0568 -0.1396 -0.0108
17715W        W31129   9.538  14.708   3.203 -0.0927 -0.4487 -0.1171
17716W        W31130  11.628  10.391  11.255 -0.0739 -0.2314 -0.1697
17717W        W31131  12.405  15.825  13.803  0.0287 -0.0390  0.0114
17718W        W31132   0.283   3.747   1.157  0.2856 -0.2613  0.0724
17719W        W31133  12.976   5.057  13.224  0.0152  0.2517  0.0377
17720W        W31134   9.220   0.422  15.975  0.2397  0.1016  0.1178
17721W        W31135   4.928   0.924   2.946  0.0645 -0.2638  0.1584
17722W        W31136   4.062   5.108  12.907 -0.1683 -0.0517  0.0829
17723W        W31137   2.987  12.431   5.209 -0.3285  0.2795 -0.0148
17724W        W31138   1.096  17.283   3.442 -0.2899  0.2382 -0.3234
17725W        W31139  10.740   2.761   5.069 -0.1026  0.1234  0.2495
17726W        W31140  11.523   0.721  12.026 -0.0422  0.3049 -0.0671
17727W        W31141   3.875   1.100  10.206  0.0459  0.0940  0.0844
17728W        W31142   5.399  15.761  10.809 -0.2364 -0.0394  0.0853
17729W        W31143  16.281   6.311   3.742 -0.1557  0.2981 -0.0777
17730W        W31144   4.891  16.284  15.828  0.3823  0.0537 -0.2224
17731W        W31145  17.854   6.862   3.988 -0.0274  0.1772 -0.0320
17732W        W31146   9.354   1.353  15.607 -0.1439 -0.1133  0.0738
17733W        W31147  12.842   9.397   0.517 -0.0081  0.2479 -0.1836
17734W        W31148  12.465  17.638   5.753 -0.1165 -0.1321  0.0588
17735W        W31149  11.613   3.687  14.419 -0.1478 -0.0312  0.0331
17736W        W31150   8.848  10.439   0.966  0.0083  0.0951 -0.1743
17737W        W31151  10.250  10.625  11.774  0.0629  0.0135 -0.2808
17738W        W31152   4.770   2.478   2.949 -0.2877 -0.0279  0.0117
17739W        W31153   6.307   9.410  13.684  0.2369 -0.3026 -0.1728
17740W        W31154  16.917  13.432   2.440 -0.0646 -0.1095 -0.0627
17741W        W31155  12.106   1.994   4.334 -0.1733 -0.3981 -0.3165
17742W        W31156   1.586   1.347  10.884 -0.3846  0.0028  0.0260
17743W        W31157  12.066   8.043  14.865  0.2827  0.0604 -0.1682
17744W        W31158  10.669  14.931  12.274 -0.1037  0.1670  0.0950
17745W        W31159   9.615   1.462  12.675  0.1025 -0.4288  0.1785
17746W        W31160  10.398  14.623  12.610 -0.1853  0.4243  0.0631
17747W        W31161  13.913  16.485  14.902 -0.2060  0.0440  0.0670
17748W        W31162   0.399  16.623  12.719 -0.1171 -0.1512  0.1440
17749W        W31163   3.468  10.200   5.289  0.1712  0.0082  0.0348
17750W        W31164   1.223  11.439   1.312  0.1273 -0.0809  0.1230
17751W        W31165  17.592   3.156   4.846  0.3342  0.0004  0.0699
17752W        W31166  17.169  12.588  15.661 -0.0790  0.1478 -0.1949
17753W        W31167   7.450   6.906   2.328 -0.1209  0.0910 -0.0873
17754W        W31168   2.260  17.248  15.188 -0.1605 -0.0352 -0.1688
17755W        W31169  12.511  15.072   4.061  0.0838 -0.0835 -0.0844
17756W        W31170   4.597  10.577  10.328 -0.2222  0.0236 -0.2087
17757W        W31171  17.266  16.678  11.419  0.3304  0.1487  0.2141
17758W        W31172   6.794  16.177   3.714  0.3688 -0.0551  0.0342
17759W        W31173   0.866  13.142   4.314 -0.2695  0.0401 -0.4443
17760W        W31174   4.020   7.311   3.796  0.0112  0.0021 -0.0639
17761W        W31175  17.731  16.518  11.590 -0.0787 -0.2150  0.0380
17762W        W31176  17.402   5.390  11.160  0.1667  0.2561  0.2102
17763W        W31177   3.729   9.258  16.021 -0.0478  0.0361  0.0816
17764W        W31178   4.756  14.350   4.068  0.2694  0.1810 -0.1951
17765W        W31179   0.316   0.308   4.308  0.0024 -0.1116 -0.1838
17766W        W31180   0.805  12.487  13.970  0.1875 -0.0392  0.0798
17767W        W31181   0.908   0.735  12.925  0.1590 -0.1213 -0.1271
17768W        W31182   0.682  11.794  14.935 -0.1138  0.0827  0.1816
17769W        W31183  10.029  15.344  13.276  0.0353 -0.0495 -0.0661
17770W        W31184  15.003  15.812   0.844 -0.1925  0.2041 -0.2403
17771W        W31185  13.187  10.823  16.478 -0.1765 -0.1815  0.3386
17772W        W31186   6.527   9.863  15.337 -0.2634  0.1404  0.0870
17773W        W31187  12.244  17.921   1.048 -0.0797  0.0352  0.1513
17774W        W31188   4.865  11.859   0.106  0.3632 -0.0634 -0.0228
17775W        W31189  17.623  10.969   4.634  0.0708  0.0183  0.1293
17776W        W31190   9.442  10.224   4.074 -0.2279  0.0901 -0.1217
17777W        W31191  13.008   6.393  10.746 -0.1379 -0.2176  0.0049
17778W        W31192   5.765  12.735  11.015 -0.2451 -0.0994 -0.0107
17779W        W31193   3.352   0.644   0.334 -0.0841  0.1880 -0.1667
17780W        W31194   9.761   8.279   3.683 -0.2723  0.2037 -0.0387
17781W        W31195  11.099  16.083  12.685  0.3564 -0.0877 -0.2238
17782W        W31196  15.204   1.939   4.057  0.1548  0.2252 -0.0956
17783W        W31197   6.241  12.709  15.572  0.0618  0.4750 -0.1393
17784W        W31198   6.121  13.028   5.953  0.1248  0.0743  0.2823
17785W        W31199   9.202   5.198  11.681  0.0165  0.1822 -0.0932
17786W        W31200   1.058   6.880   0.960 -0.1984 -0.2139 -0.2567
17787W        W31201  11.230   2.685  10.279  0.3479 -0.2815  0.0189
17788W        W31202  12.008   3.460   2.692  0.1382  0.0886  0.2839
17789W        W31203   1.927   2.364   1.648  0.1530 -0.0069 -0.2059
17790W        W31204  12.205  15.347   3.699  0.0864 -0.1753  0.0745
17791W        W31205  15.696   8.908  14.967 -0.3674  0.0334  0.0421
17792W        W31206   1.316   6.403  11.026  0.0975 -0.1605  0.2024
17793W        W31207   3.533  17.627   3.733  0.0634  0.1817 -0.1918
17794W        W31208  16.113  14.051   1.687  0.1277 -0.0381  0.0707
17795W        W31209  15.604  17.136   1.190 -0.2498 -0.1016  0.1433
17796W        W31210  13.154   4.623  13.634  0.1157  0.0192 -0.1851
17797W        W31211   6.302   2.592   0.299 -0.0393 -0.3051 -0.1733
17798W        W31212   0.526   5.804   1.642 -0.1941  0.2239 -0.0155
17799W        W31213   3.214   9.870   3.699 -0.1053 -0.2338 -0.2480
17800W        W31214   8.634  17.696  13.251 -0.3293  0.2351  0.2344
17801W        W31215  12.020   9.593  11.511 -0.0270  0.1765  0.0687
17802W        W31216   0.023   1.072  11.942  0.1236  0.1802  0.2369
17803W        W31217   1.472   7.902  11.483 -0.0625 -0.1740 -0.0882
17804W        W31218   5.960   6.360  13.814 -0.2461 -0.1073 -0.1793
17805W        W31219  10.634   6.489   2.102 -0.2473 -0.2174  0.3274
17806W        W31220   6.797   1.738   4.888 -0.2451  0.2286  0.2272
17807W        W31221   8.436   0.780  10.931  0.0363  0.2975  0.2058
17808W        W31222  13.703   3.910  15.647  0.2418  0.0857 -0.1529
17809W        W31223   5.547   1.730   2.177 -0.1224  0.0443 -0.1396
17810W        W31224  17.300   6.244  15.504 -0.2799  0.0652  0.0324
17811W        W31225   1.848   3.801   1.680  0.0746  0.1812  0.0038
17812W        W31226   9.107   0.790   2.900 -0.3040  0.1337  0.0978
17813W        W31227  13.171  13.246  11.438 -0.0835  0.1611 -0.0473
17814W        W31228   3.843  12.206   4.181  0.2085  0.0428  0.0918
17815W        W31229  13.618   5.644  15.749  0.0046 -0.2704  0.1491
17816W        W31230  10.771  10.711   4.743  0.2025  0.1230  0.0485
17817W        W31231  16.305  12.396   2.937 -0.0479  0.0178  0.1707
17818W        W31232  11.516  17.337   2.078  0.0849 -0.0559  0.2614
17819W        W31233   0.891   7.127   3.320  0.1285 -0.2035 -0.0510
17820W        W31234   3.656   7.971  15.904 -0.0826 -0.2226  0.0991
17821W        W31235   6.248   0.244   1.816  0.0069 -0.0017  0.0419
17822W        W31236  12.394  13.434  15.060 -0.2841  0.4366 -0.0191
17823W        W31237  14.866   1.959   0.209 -0.0449  0.1046  0.2580
17824W        W31238   1.233   9.891   1.778  0.0468 -0.0226  0.0469
17825W        W31239   5.402  10.989   0.041 -0.0336  0.1124 -0.0634
17826W        W31240   5.977  11.892   5.262 -0.1834 -0.0468  0.3257
17827W        W31241  15.022   5.246   4.943 -0.0046 -0.3792  0.1859
17828W        W31242   5.029  12.330  13.626  0.0873 -0.3114 -0.2265
17829W        W31243   9.524  14.301   1.837  0.1608 -0.1701  0.2949
17830W        W31244  13.791   3.706  12.329 -0.1045  0.2545 -0.2073
17831W        W31245  14.381  11.741  10.257  0.2315 -0.0578 -0.0375
17832W        W31246   2.963  15.342  15.519  0.1866 -0.1783  0.0518
17833W        W31247  10.014  16.985  13.656 -0.2659 -0.0310 -0.0135
17834W        W31248   9.742   8.826   3.749 -0.3324  0.1464 -0.2040
17835W        W31249  16.557   5.732   0.192 -0.0353 -0.5879  0.2814
17836W        W31250  14.064  15.138   0.391 -0.0463  0.3066 -0.0306
17837W        W31251   5.542   3.583   4.751 -0.3524 -0.0706  0.3295
17838W        W31252   0.862   4.831   1.673  0.0486 -0.2827  0.3108
17839W        W31253   0.253   7.449  12.795 -0.1300 -0.5566 -0.0790
17840W        W31254   1.535   4.806   0.217 -0.1358  0.0253 -0.1579
17841W        W31255   5.339   1.237   1.627 -0.0901 -0.1034 -0.2027
17842W        W31256   7.118   1.483   3.705  0.0117  0.0552 -0.2318
17843W        W31257   8.515  12.575  16.123  0.1270  0.3293  0.1166
17844W        W31258  14.437  13.445  15.356  0.2072 -0.2765  0.2773
17845W        W31259   4.647  13.457   2.599  0.2062 -0.0194 -0.2351
17846W        W31260  11.486  14.828   0.216  0.0720 -0.2795 -0.0079
17847W        W31261   6.711   1.392   0.765 -0.3264  0.4436  0.0072
17848W        W31262  17.323   5.190   4.870 -0.0207 -0.0778  0.2574
17849W        W31263   7.469  18.163  14.141  0.0573  0.3485 -0.2937
17850W        W31264   1.798   6.866   1.493 -0.0196  0.1715  0.1069
17851W        W31265   4.866  10.363  12.176  0.2607  0.0156  0.0685
17852W        W31266  16.575  10.694   3.809  0.5281 -0.2665  0.0339
17853W        W31267  10.699   3.641   5.292  0.1629 -0.0774  0.3916
17854W        W31268  11.127  13.733  14.764 -0.1363  0.0500  0.0380
17855W        W31269  11.566   9.144  11.787  0.2222  0.2961 -0.1463
17856W        W31270   8.519   3.519  15.273 -0.0057  0.4992  0.3327
17857W        W31271   2.352  13.988  13.088  0.2087 -0.1182 -0.1797
17858W        W31272   1.544   0.029  13.110  0.0349  0.1416 -0.2521
17859W        W31273   2.029  11.926  15.965  0.2149 -0.0677 -0.0369
17860W        W31274  15.163   8.258  14.721 -0.0060 -0.1527 -0.1614
17861W        W31275   2.904  13.018  14.047  0.0100 -0.3951 -0.0553
17862W        W31276   4.885  14.775  14.423 -0.1820  0.2617 -0.1525
17863W        W31277  13.623   8.391   3.700 -0.3753 -0.0705 -0.1720
17864W        W31278  14.022  17.361  14.832 -0.0207 -0.2408 -0.1172
17865W        W31279   5.034  16.118   4.344  0.0435  0.0029  0.1972
17866W        W31280   9.883  17.494  15.864  0.3088  0.0627  0.1698
17867W        W31281   1.806  13.316   5.544 -0.0636  0.0573 -0.3797
17868W        W31282   8.680  11.548  11.788 -0.2418 -0.0507 -0.1800
17869W        W31283  15.429   0.462  11.152  0.0788 -0.1165  0.0552
17870W        W31284   1.424   7.296   1.617  0.1024  0.3386  0.0499
17871W        W31285  11.636   2.398  11.331  0.1195 -0.1957 -0.0212
17872W        W31286  13.579   7.524  12.403  0.2613  0.0561  0.1043
17873W        W31287   7.229   2.952   4.495  0.2028  0.2566  0.0245
17874W        W31288   3.638   1.147   3.543 -0.1094  0.3745 -0.1663
17875W        W31289  14.140  16.573   3.702  0.1193  0.1083  0.0086
17876W        W31290  10.021  18.007  13.835  0.4869 -0.2905 -0.0146
17877W        W31291  11.789   6.497  14.815  0.2185 -0.0236 -0.2316
17878W        W31292   5.987   7.972  15.729 -0.1938 -0.0160 -0.1016
17879W        W31293  15.240   9.902   0.328  0.0202 -0.1120  0.0271
17880W        W31294   9.969   3.782  10.671 -0.0058 -0.0956 -0.1967
17881W        W31295   6.262   8.368   5.677  0.3712 -0.2352 -0.0321
17882W        W31296  12.020   9.387   4.248  0.2287  0.1789 -0.3271
17883W        W31297   9.499   1.987   2.755  0.1020 -0.1152  0.1964
17884W        W31298  13.740  14.239  13.642 -0.1018  0.0131 -0.1310
17885W        W31299  17.249   3.766  12.134 -0.1673 -0.3163 -0.1386
17886W        W31300  14.055  15.897  16.038 -0.0993 -0.2529 -0.0973
17887W        W31301   0.746   4.153  14.084 -0.1490  0.1187  0.1012
17888W        W31302  11.505   4.176   0.312  0.1541 -0.0529  0.0678
17889W        W31303  13.361  11.306   1.080  0.1516 -0.1052  0.1820
17890W        W31304  13.989   2.028  15.236 -0.0902 -0.1681 -0.0771
17891W        W31305  13.208  11.780  10.525  0.1915 -0.1894 -0.1343
17892W        W31306   1.539  16.964   2.516  0.2780 -0.1737  0.1766
17893W        W31307   1.334   1.855  11.619  0.2255  0.0734 -0.1882
17894W        W31308   6.734   1.957  11.891 -0.1332  0.1275 -0.2971
17895W        W31309   0.669  12.956   4.740 -0.1513  0.2359 -0.1198
17896W        W31310   8.978   0.006   3.587  0.0661 -0.1366 -0.1766
17897W        W31311  12.023  18.190  16.133  0.0546 -0.0612 -0.0690
17898W        W31312   5.222   6.873  11.702  0.2442  0.0689  0.0361
17899W        W31313  14.308   9.271   3.741 -0.3793 -0.0080  0.1136
17900W        W31314  13.034  16.118  16.247  0.0296  0.1580  0.0832
17901W        W31315   8.977   9.418   1.439 -0.0240 -0.0383 -0.1003
17902W        W31316   7.120  12.871  13.463  0.0260 -0.0508  0.3376
17903W        W31317   5.021  16.006  11.093 -0.0736  0.0230 -0.2399
17904W        W31318  11.885  15.866   4.925  0.0192  0.0115  0.0679
17905W        W31319   2.881  10.762   4.979  0.1737 -0.0519  0.2077
17906W        W31320  13.676   9.812   3.973 -0.1288  0.1358 -0.0791
17907W        W31321  11.139   4.021   4.328  0.0535 -0.2288 -0.0135
17908W        W31322  17.644   4.354  16.467  0.2288 -0.0444 -0.1617
17909W        W31323   9.837   4.727  16.397  0.3499 -0.2072  0.1284
17910W        W31324   7.139   2.685  12.478 -0.0185 -0.0763  0.2676
17911W        W31325  17.376  15.893   0.168  0.2056  0.0228 -0.0374
17912W        W31326   8.478   0.297  11.018  0.2852  0.1495  0.0367
17913W        W31327  14.964  15.001  11.744 -0.1741  0.0481 -0.0685
17914W        W31328   3.861  11.107   2.129 -0.3016  0.0123 -0.2482
17915W        W31329  13.995  13.391   4.682  0.1928  0.0537  0.2381
17916W        W31330   0.087   6.981  10.706 -0.3178 -0.2508  0.0852
17917W        W31331   8.481  17.055   0.724 -0.1814 -0.2521  0.1049
17918W        W31332   4.713   1.552   2.158 -0.0743  0.1348 -0.3099
17919W        W31333  13.959  13.895   4.686  0.2447 -0.2731 -0.1358
17920W        W31334   0.761  13.412  14.432 -0.2394 -0.3967  0.0775
17921W        W31335   4.541   2.647   2.339  0.0033  0.4537 -0.0182
17922W        W31336  13.391  15.262  11.814 -0.1927 -0.1145 -0.1636
17923W        W31337   1.881  11.821  12.620 -0.1455  0.1205 -0.0529
17924W        W31338  16.905  16.515  16.063 -0.0587  0.0476  0.0399
17925W        W31339  17.679  13.243  14.895 -0.2306 -0.0907 -0.0444
17926W        W31340   6.046  11.864  11.606  0.0057 -0.0978  0.3644
17927W        W31341   0.056   0.429  15.856 -0.1184 -0.1112  0.3209
17928W        W31342   0.996  14.990   5.475 -0.2997 -0.2277 -0.3390
17929W        W31343   9.295   4.169  11.671 -0.3289 -0.0505 -0.1693
17930W        W31344  16.947   7.071   4.437 -0.0453 -0.0941  0.1579
17931W        W31345  15.540   4.538   1.428 -0.0664  0.0712  0.0605
17932W        W31346   5.659   1.742   3.401 -0.2645  0.1524 -0.1231
17933W        W31347  17.298   4.746  15.770  0.1143  0.1729 -0.0632
17934W        W31348  11.990   3.867  10.841 -0.0912 -0.2716  0.0663
17935W        W31349   7.147  17.918   3.746  0.1052  0.2332  0.0016
17936W        W31350  15.642  12.608   3.527 -0.1567 -0.1986  0.0114
17937W        W31351   5.859  15.365  11.959 -0.4063  0.2275  0.0428
17938W        W31352   4.692   5.431  14.987 -0.0898  0.0941 -0.0660
17939W        W31353   8.350  13.107  15.996  0.1249  0.3746 -0.0706
17940W        W31354  17.369   2.850   1.660 -0.2480  0.0821  0.0050
17941W        W31355  11.403   8.807   2.841  0.2587  0.0199 -0.2267
17942W        W31356   0.116   9.501   0.139 -0.2734 -0.1598 -0.2864
17943W        W31357   5.311   2.652   3.633  0.1357  0.1201 -0.1112
17944W        W31358   5.559  17.656  11.323  0.0163  0.0506 -0.2674
17945W        W31359   1.342  11.626   4.482 -0.1629  0.0267  0.2894
17946W        W31360   6.966  11.022  14.247 -0.1123 -0.0892 -0.2745
17947W        W31361   8.342  10.423   1.018  0.0212 -0.0626  0.2829
17948W        W31362   4.032   9.334  14.436 -0.0939  0.0751  0.1509
17949W        W31363   8.396   0.531   6.287 -0.0137  0.3694  0.1021
17950W        W31364  14.089  17.973   3.635  0.0426  0.0660  0.1822
17951W        W31365  16.562  18.061   1.389 -0.1449 -0.2212 -0.1134
17952W        W31366  11.129  17.202   0.081  0.0653  0.1230  0.0695
17953W        W31367   5.790   0.737   5.367  0.1798  0.1461  0.0962
17954W        W31368  13.195   0.323   2.305 -0.2856 -0.1970  0.2618
17955W        W31369  18.239   2.230  13.130 -0.1568  0.0515  0.3834
17956W        W31370  11.367   0.480   3.190  0.2773  0.1505  0.1022
17957W        W31371   0.487  14.803  16.079  0.0442  0.2267 -0.0340
17958W        W31372  11.733   0.978   5.828  0.1139 -0.1201  0.1690
17959W        W31373   4.366   6.068  16.021 -0.1342 -0.0537  0.0034
17960W        W31374   0.282   4.059   5.138 -0.0780 -0.2971  0.0161
17961W        W31375  11.519   3.738   4.223 -0.0008 -0.1471 -0.0638
17962W        W31376  13.988  10.502   1.005  0.0753  0.1032  0.0653
17963W        W31377  12.714   6.203   3.547  0.1830 -0.1702 -0.2461
17964W        W31378   5.547  15.399   5.468  0.0702 -0.0533  0.1452
17965W        W31379   2.604   3.771   5.063  0.0439 -0.2713 -0.2751
17966W        W31380   4.151  16.581  15.392 -0.2931  0.0707  0.0429
17967W        W31381   9.238   7.297  16.421  0.0371 -0.1026  0.0408
17968W        W31382   3.438  13.557   2.026 -0.1335  0.4344  0.1668
17969W        W31383  15.037  14.765   4.992  0.0264 -0.0565 -0.3596
17970W        W31384  10.876   7.283  12.076  0.2481 -0.2637  0.0106
17971W        W31385   3.700   9.000  15.270  0.2556 -0.2188  0.0312
17972W        W31386   4.842  10.881   3.499 -0.1420 -0.0359  0.0253
17973W        W31387   3.600  12.280   2.721  0.1839  0.3157  0.1456
17974W        W31388  12.207  11.628   4.234 -0.3230 -0.1175  0.2755
17975W        W31389  17.741   6.476  13.401  0.1353 -0.1615 -0.0967
17976W        W31390  16.174  13.372   2.386 -0.1999 -0.0861 -0.2030
17977W        W31391   8.525  13.669  11.377  0.1227  0.4074  0.0212
17978W        W31392   8.052   0.649  12.372 -0.1254 -0.1163 -0.2682
17979W        W31393  14.325   7.474  15.677  0.1093  0.0275  0.2909
17980W        W31394   3.183   3.725   4.953 -0.0439  0.0270  0.4549
17981W        W31395   0.009  11.837   5.079 -0.2790 -0.0644  0.0253
17982W        W31396  11.488  12.634  13.332  0.0549 -0.0313  0.1147
17983W        W31397  17.207  17.368   6.659  0.0697 -0.1661  0.1646
17984W        W31398   0.893   9.730  11.419  0.3610  0.2871  0.1937
17985W        W31399   1.237   2.555   4.335 -0.1281 -0.1102  0.1976
17986W        W31400  14.510   3.381   1.949  0.1214 -0.1834  0.0583
17987W        W31401   9.854  14.297   3.793 -0.2210 -0.2176  0.0887
17988W        W31402   5.539  12.661  12.791  0.0518  0.0239 -0.0327
17989W        W31403   4.606   4.602  14.400 -0.1355 -0.0085  0.2738
17990W        W31404  12.437  11.262  11.359  0.2573 -0.1759  0.1741
17991W        W31405  17.165   5.344  15.202  0.0970 -0.0567  0.1036
17992W        W31406  15.302   6.725   0.839  0.3454 -0.1766 -0.1816
17993W        W31407  16.218  11.087  14.115 -0.0045  0.1613 -0.1808
17994W        W31408   8.527   8.245  12.282  0.2277  0.0774  0.0374
17995W        W31409   3.153  14.721   3.966 -0.2068  0.2384 -0.2376
17996W        W31410   1.853  11.340   6.323  0.2932  0.2282 -0.0440
17997W        W31411   7.806  13.243   5.383 -0.0127 -0.2403  0.1853
17998W        W31412   6.263   9.982  11.431 -0.0691  0.0773  0.1047
17999W        W31413  15.449   2.904  13.623  0.3324  0.2780  0.0434
18000W        W31414  18.149   2.512   1.207 -0.3245  0.1286  0.3051
18001W        W31415  12.345   0.742   0.660 -0.2033 -0.0841 -0.0443
18002W        W31416  10.789   4.574   3.142  0.1652  0.2442  0.1777
18003W        W31417   3.763  17.275  11.294  0.2956  0.3795  0.0488
18004W        W31418  16.525  15.125  12.027  0.0047 -0.2355 -0.0445
18005W        W31419  15.042   4.356  10.866  0.1860 -0.0991  0.0309
18006W        W31420   2.622  13.502  12.701 -0.1463  0.0797 -0.0717
18007W        W31421   4.995   2.120   1.425 -0.1323 -0.0326  0.1655
18008W        W31422   7.813  13.995  12.019  0.1966  0.0116 -0.1744
18009W        W31423  13.648   4.429   5.314  0.1067  0.0433 -0.4785
18010W        W31424   9.145  15.402  13.984 -0.2749 -0.0608 -0.1412
18011W        W31425   7.285  11.824   0.978 -0.0553 -0.0374  0.3585
18012W        W31426  17.205   3.566  16.086 -0.1996 -0.1042  0.0183
18013W        W31427   3.347   1.591   3.507  0.0903  0.0533  0.2347
18014W        W31428  14.600   9.310   1.389  0.0536  0.0267 -0.3120
18015W        W31429   0.377  11.101   6.251 -0.1512  0.1439  0.0326
18016W        W31430   7.011   0.414   4.559  0.1999 -0.1422 -0.0843
18017W        W31431  15.527  16.381  12.039  0.3733  0.1189 -0.0856
18018W        W31432  13.535   5.450  15.291  0.0438 -0.4103  0.0767
18019W        W31433  15.325  15.793   5.174 -0.3944  0.1404 -0.4710
18020W        W31434  17.392  17.618  14.136  0.1079  0.1541 -0.2353
18021W        W31435  15.622  13.451   1.607  0.3018  0.1815 -0.0155
18022W        W31436  10.295  12.609   0.797 -0.2502  0.0968  0.2604
18023W        W31437   6.610  18.051  14.186  0.4196  0.1545  0.0405
18024W        W31438  13.995  11.153   0.060 -0.0075  0.0598  0.2580
18025W        W31439   2.230   7.376   0.415  0.0534 -0.3185  0.2539
18026W        W31440   7.777   7.084  12.429 -0.5096  0.1851  0.1502
18027W        W31441  16.866  12.475  11.989  0.1623  0.0014 -0.3058
18028W        W31442   5.733   9.799  13.823  0.2097  0.0307  0.0589
18029W        W31443   9.721  11.741   1.523 -0.2978  0.1678  0.1566
18030W        W31444  17.213   4.554  16.229 -0.4163 -0.1157 -0.0418
18031W        W31445  16.646   3.580  11.477 -0.1771 -0.0987 -0.2330
18032W        W31446  10.063   8.611   0.413 -0.0364  0.2074 -0.0304
18033W        W31447  13.846   9.859  12.691 -0.0677  0.2222 -0.1380
18034W        W31448   5.186   8.196  14.956 -0.0546  0.1979 -0.2412
18035W        W31449   6.450   5.592  14.395 -0.1644 -0.2919 -0.2293
18036W        W31450   5.540  12.189  14.734  0.2742  0.0718  0.0956
18037W        W31451   5.787  10.627   5.332  0.0374  0.0623 -0.0477
18038W        W31452   9.730  15.655  11.529  0.0699  0.1714  0.1244
18039W        W31453   7.073  16.702  15.499  0.2054 -0.4145  0.0045
18040W        W31454   6.623   7.298   2.338  0.1449  0.1075  0.0357
18041W        W31455   1.202   6.040   2.662  0.1138  0.0650 -0.2265
18042W        W31456   9.592  14.555  14.850  0.1767  0.1956  0.2401
18043W        W31457   6.149  13.746   1.496  0.1574 -0.1499  0.0161
18044W        W31458   5.509   3.788  11.326  0.0800 -0.0081  0.1743
18045W        W31459  10.876   0.152  14.813 -0.0987  0.2433  0.0161
18046W        W31460   1.991   3.716  11.626  0.2231 -0.0865 -0.2196
18047W        W31461   8.588   1.166  12.202 -0.2038  0.1949  0.1173
18048W        W31462   5.445   6.038   3.823 -0.1006  0.0543 -0.2154
18049W        W31463   5.217   6.582  10.588  0.3072 -0.1837 -0.2357
18050W        W31464  13.778   5.778   4.070 -0.0365  0.3059 -0.0854
18051W        W31465   9.449   7.649  15.356 -0.0252 -0.1063  0.1063
18052W        W31466   9.585  11.927  11.714  0.0793  0.0425  0.2720
18053W        W31467   7.498   3.538   5.916 -0.1283  0.0625 -0.0980
18054W        W31468  13.713  11.253  14.780  0.3448 -0.2995  0.2827
18055W        W31469  14.202  18.218   2.637 -0.2415 -0.0883  0.0218
18056W        W31470  13.940   5.948   0.270  0.0400  0.0723 -0.3423
18057W        W31471   3.185   6.437   3.237 -0.2243  0.0521  0.0502
18058W        W31472   0.578   4.681  14.946  0.0691 -0.2014  0.0928
18059W        W31473  18.238   5.577   5.421  0.3345 -0.2680 -0.2990
18060W        W31474  13.063   3.521  12.311  0.0696  0.1760 -0.0521
18061W        W31475   6.145  10.515   4.975  0.3487  0.0020 -0.0302
18062W        W31476   9.230  11.734   1.186  0.0125  0.1678 -0.2051
18063W        W31477  18.171  14.615   2.837  0.0255 -0.0764  0.0200
18064W        W31478  15.484  17.518   3.076 -0.0696 -0.2682  0.0226
18065W        W31479   8.715   9.321   4.855  0.1094 -0.0614  0.1129
18066W        W31480  10.009   9.676   4.420 -0.1199 -0.0666  0.1844
18067W        W31481  10.994  14.169   2.188  0.0183  0.0195  0.1151
18068W        W31482  13.388   3.017   0.991  0.0215 -0.0746 -0.0677
18069W        W31483  14.867   8.953  15.489 -0.0958 -0.0457  0.1243
18070W        W31484  10.380  12.861   3.203  0.0742  0.4850 -0.4767
18071W        W31485   1.706  15.788   5.504  0.2649 -0.2506 -0.3036
18072W        W31486   2.481   9.603  13.736 -0.0269  0.1016  0.1558
18073W        W31487  11.589   2.591  14.723  0.1948  0.2826  0.1858
18074W        W31488  12.522  11.523  12.724  0.3274 -0.2878 -0.0318
18075W        W31489   1.999  15.564  15.941  0.1054 -0.0542  0.1534
18076W        W31490   7.289  13.147   0.212 -0.0312  0.0106  0.1903
18077W        W31491  17.121  13.275   0.185 -0.0942 -0.0740  0.1192
18078W        W31492   9.494  13.566  13.386  0.1239  0.1430 -0.1151
18079W        W31493  12.555   2.427  13.610  0.2968  0.1055  0.0783
18080W        W31494  10.065  10.404   1.620  0.0073  0.0254 -0.2111
18081W        W31495   1.863   8.937  15.094  0.3075 -0.0514  0.2055
18082W        W31496   4.302  14.642  13.669 -0.2590 -0.0758 -0.0480
18083W        W31497  11.253  12.327  10.365  0.4130 -0.0716  0.6290
18084W        W31498  12.873   7.175   0.962 -0.0297  0.0433 -0.3364
18085W        W31499  16.398   1.968  11.093  0.3406  0.2228  0.0037
18086W        W31500   2.223  17.533   4.721 -0.1036  0.4636  0.2887
18087W        W31501   4.768   9.153   3.893 -0.2941 -0.0466 -0.2137
18088W        W31502   5.033   6.461  12.256  0.2645  0.0545  0.2393
18089W        W31503   2.176   6.410   4.319  0.0832  0.0380  0.6243
18090W        W31504   9.705  16.175   3.208 -0.0250 -0.0234 -0.0724
18091W        W31505   3.687  17.410   3.257 -0.2667 -0.2618  0.0372
18092W        W31506   1.807  13.410  13.327 -0.1070 -0.1627  0.2356
18093W        W31507  13.388  11.780   2.234 -0.1273 -0.2588  0.0771
18094W        W31508  14.687  17.094  12.038  0.1937 -0.0839  0.2447
18095W        W31509   1.914   2.655  14.258  0.1522  0.2132 -0.0271
18096W        W31510  11.251  13.344  15.299  0.0131 -0.1332 -0.0776
18097W        W31511  10.769   8.214   1.266 -0.0662  0.2681 -0.2156
18098W        W31512   2.854   5.595   4.824 -0.0197  0.0839 -0.0352
18099W        W31513   6.739   6.792  16.447 -0.0199 -0.3448  0.0350
18100W        W31514   6.411   1.431   4.323 -0.1574 -0.3032 -0.0668
18101W        W31515   0.188   4.064   1.650  0.0551  0.0151 -0.1187
18102W        W31516   4.354   6.965  12.139 -0.0848  0.1149  0.3084
18103W        W31517   3.644   9.668  11.871 -0.0776  0.0225 -0.1818
18104W        W31518   3.921   2.985   3.517 -0.0847  0.0031  0.0460
18105W        W31519  14.784   9.027   5.856  0.1715 -0.3641 -0.2711
18106W        W31520  18.034   1.322  11.479 -0.1538  0.0941 -0.0036
18107W        W31521  10.034  12.069   4.071 -0.1943  0.2538 -0.1826
18108W        W31522   4.048  11.760   5.401 -0.1987 -0.1496  0.0597
18109W        W31523   7.830   2.339  12.062 -0.0293  0.0174 -0.1287
18110W        W31524  16.943   1.401   4.301 -0.0523  0.2282 -0.1419
18111W        W31525   5.468   3.478  12.312 -0.0919 -0.3378  0.0528
18112W        W31526   9.468  11.510  12.601  0.3979  0.0761 -0.0294
18113W        W31527  15.987   9.214  11.445 -0.0348  0.2874  0.0060
18114W        W31528   5.061  10.462   4.243 -0.0728 -0.1643  0.0902
18115W        W31529   7.760  13.063   0.534 -0.0779 -0.0493  0.0779
18116W        W31530   0.462  16.841   2.534  0.0441 -0.0157  0.0799
18117W        W31531   4.452   8.870   3.535  0.0813  0.4279  0.0774
18118W        W31532   9.400   5.522  14.308 -0.1526  0.0543 -0.4227
18119W        W31533   4.382   4.558   3.977 -0.2443 -0.0329 -0.2505
18120W        W31534   2.531  13.828   4.962  0.0959  0.2362  0.3393
18121W        W31535   6.153   5.960  10.674  0.1873 -0.0477 -0.1017
18122W        W31536   4.186  15.069   4.229 -0.1829 -0.1863  0.0242
18123W        W31537  17.150  14.483  15.587  0.2547  0.1842  0.0389
18124W        W31538   4.771   6.447   4.251  0.0218 -0.1259  0.0083
18125W        W31539  16.601  15.669  14.915 -0.0162 -0.4732  0.1576
18126W        W31540   4.833   7.300  11.703  0.1420 -0.4422  0.1751
18127W        W31541   6.130   6.991  13.951  0.2909 -0.1756  0.1192
18128W        W31542   3.267  10.102   1.984  0.0891 -0.1941  0.0679
18129W        W31543  11.648  13.072   3.085 -0.3527  0.0492  0.0061
18130W        W31544   4.229   4.073   3.548 -0.1863  0.1857 -0.1466
18131W        W31545   2.678  17.936   2.809 -0.0394  0.0269 -0.2374
18132W        W31546   0.273  15.647   0.800  0.1186  0.2288 -0.0340
18133W        W31547   9.149  12.544  15.450 -0.1489  0.2260 -0.0728
18134W        W31548  16.901  12.146  14.292  0.0217  0.0372 -0.0287
18135W        W31549  16.521   1.659   3.521 -0.3218 -0.5588 -0.1120
18136W        W31550   4.791   2.834   3.910 -0.0708  0.0041  0.2731
18137W        W31551   0.409  15.645  10.916 -0.1064  0.2917 -0.1159
18138W        W31552   8.754  13.136  14.436 -0.0970  0.2015 -0.0242
18139W        W31553  13.864  11.522   4.786  0.2784 -0.2430  0.1322
18140W        W31554   6.349   3.068  12.623  0.0289  0.2251 -0.0633
18141W        W31555  10.192   3.514  10.998 -0.1863  0.0404 -0.1754
18142W        W31556   6.195  16.166  16.442 -0.0129 -0.0579 -0.1435
18143W        W31557  11.444  16.411   5.789 -0.1621  0.0140  0.0223
18144W        W31558   7.310  12.762  11.594  0.1147 -0.1269  0.0685
18145W        W31559  18.157   8.663   1.833  0.0374 -0.1595 -0.0975
18146W        W31560   6.942  11.633   0.704 -0.1610  0.0381 -0.1391
18147W        W31561  10.380  11.771  14.048  0.0416 -0.3147 -0.3841
18148W        W31562  17.429  10.357   0.651  0.1230  0.0291 -0.0124
18149W        W31563  11.403  12.056  11.739 -0.0662 -0.2839 -0.3709
18150W        W31564   8.637   8.696   2.535 -0.0199  0.1902  0.1995
18151W        W31565   5.585   7.706  15.886  0.0211 -0.2965  0.0284
18152W        W31566  13.985  16.340   5.835 -0.0781 -0.2025 -0.2939
18153W        W31567  10.455  17.896  13.254 -0.3098 -0.1016  0.0262
18154W        W31568  10.325  14.617   1.021  0.1934  0.0786  0.4285
18155W        W31569  10.149   2.779   4.355  0.3215 -0.0193 -0.1712
18156W        W31570   7.480   3.989  11.622  0.1480 -0.0633  0.3334
18157W        W31571  15.599   8.415   4.788 -0.0525 -0.0304  0.0437
18158W        W31572  15.730  13.228  15.353 -0.1050  0.1247 -0.0534
18159W        W31573   9.005   2.839   2.173 -0.0239 -0.2410 -0.0644
18160W        W31574  11.787   9.043  13.778  0.1473 -0.0622 -0.3113
18161W        W31575  11.285   7.704  16.218 -0.1501  0.1866  0.4265
18162W        W31576   7.863  13.456  15.986 -0.1561 -0.1058 -0.1931
18163W        W31577  14.732   3.190  14.286 -0.1020 -0.3723  0.0691
18164W        W31578   8.232   9.906   5.399 -0.3040 -0.0534 -0.0560
18165W        W31579   9.267  12.542  11.819  0.0444  0.1250  0.0746
18166W        W31580  14.055   0.585  10.630 -0.1944 -0.0932  0.0188
18167W        W31581  13.044   8.814  14.092  0.0960  0.1062 -0.0844
18168W        W31582   0.696   4.155  10.957 -0.1173  0.1162 -0.0890
18169W        W31583  16.871  14.903   2.750 -0.0473 -0.0394  0.0459
18170W        W31584   7.736  14.597  11.803 -0.1971 -0.0909  0.1406
18171W        W31585  14.100  13.296  12.658  0.0085 -0.2796  0.1474
18172W        W31586   9.836  10.008   3.847 -0.1292 -0.0487  0.0868
18173W        W31587  17.130   0.724   5.676  0.3189 -0.0317  0.2236
18174W        W31588  15.021   3.859   0.473 -0.1222  0.0715  0.1118
18175W        W31589  18.232   9.637   2.071  0.0696  0.1444  0.0016
18176W        W31590  12.217  14.588  13.256  0.0336 -0.3567 -0.1411
18177W        W31591  11.418   4.419   3.390  0.0011 -0.0285  0.2179
18178W        W31592   7.248   9.701  12.415  0.1664  0.0606 -0.0013
18179W        W31593  10.934   0.896  15.152 -0.2004  0.3347 -0.0265
18180W        W31594   3.097   6.487   3.831 -0.1295  0.5102  0.0585
18181W        W31595  11.297  10.599   1.938  0.1184 -0.0281 -0.1640
18182W        W31596   8.164   4.618   2.669 -0.0866  0.0255 -0.1636
18183W        W31597  11.447   9.729  10.951 -0.0102 -0.0677  0.2054
18184W        W31598   2.197  16.415   6.153  0.1100 -0.1421  0.4372
18185W        W31599   4.654   5.537   6.420 -0.3507  0.0262  0.1642
18186W        W31600   9.925  12.951   3.542  0.1687 -0.1621 -0.0604
18187W        W31601  15.393  18.085  11.744 -0.0521  0.0787  0.3038
18188W        W31602   0.417   9.035   0.199  0.0093 -0.1090  0.0470
18189W        W31603   4.494   0.083   2.830  0.1734  0.0121 -0.0396
18190W        W31604   0.639   7.698   5.362  0.2618  0.0897 -0.1925
18191W        W31605   3.949  12.987   0.428  0.1944 -0.0643 -0.0543
18192W        W31606   6.366  14.617  10.099 -0.4247 -0.0329 -0.0594
18193W        W31607  14.988   6.988   4.315 -0.3713 -0.0647 -0.0111
18194W        W31608   6.478  15.987  13.499 -0.0171  0.0778  0.2910
18195W        W31609  10.499   2.176  11.082 -0.0615  0.1967 -0.0112
18196W        W31610   8.518   4.406  13.003 -0.1389 -0.0066  0.0000
18197W        W31611   9.718  16.930  14.625 -0.0193  0.1333  0.1531
18198W        W31612  16.190  12.748  12.868 -0.1286 -0.1291  0.0163
18199W        W31613  14.225   2.257   3.551  0.0125  0.1044 -0.2905
18200W        W31614  12.679   3.861  10.526 -0.0865 -0.0965  0.3189
18201W        W31615  14.531   7.900   5.595  0.1606  0.3157 -0.0049
18202W        W31616  18.097   5.177   3.045  0.2291  0.2229  0.2528
18203W        W31617   9.947   0.525  14.267 -0.0353  0.0140  0.1253
18204W        W31618  16.104  14.232   5.915  0.0334 -0.1088  0.0772
18205W        W31619   5.737   6.845   3.758 -0.0328  0.1550  0.0963
18206W        W31620  18.135  15.010   0.559 -0.1503  0.1946 -0.0911
18207W        W31621   2.405   5.182   1.003  0.1310  0.2153 -0.1466
18208W        W31622  13.779   9.141  13.707 -0.0536 -0.0739 -0.2790
18209W        W31623   4.251  14.756  15.090  0.0065  0.0253 -0.5394
18210W        W31624   0.813   7.354  15.168 -0.0962  0.3172  0.0384
18211W        W31625  12.957  11.174  15.348  0.1955 -0.0573 -0.0768
18212W        W31626   4.083   4.002  13.672  0.0613 -0.0765  0.3115
18213W        W31627   7.091   2.905   1.907  0.1817  0.0774  0.1875
18214W        W31628  17.555  16.271   1.105 -0.0015  0.0946 -0.1963
18215W        W31629   4.129   5.885  12.805 -0.2080  0.2044 -0.1132
18216W        W31630   5.332  14.204   3.332  0.1103 -0.3820 -0.1309
18217W        W31631   9.780  10.912   2.238  0.0453  0.3162 -0.0325
18218W        W31632   2.991  15.431  12.556 -0.1976 -0.0814 -0.4340
18219W        W31633  16.067  13.825  14.984 -0.3394 -0.2754 -0.0605
18220W        W31634  12.824   7.030   5.282 -0.0248 -0.1109  0.0376
18221W        W31635   9.403   2.848  16.354 -0.3729  0.1105  0.0712
18222W        W31636   1.722  12.202  11.592 -0.0380  0.0959 -0.2290
18223W        W31637   4.196  13.534   2.999  0.0189 -0.0976 -0.2305
18224W        W31638   7.068  11.591   4.373 -0.2322  0.1227  0.1105
18225W        W31639  15.879   9.412   2.553 -0.0419 -0.1995 -0.0375
18226W        W31640  17.881   1.704   5.815 -0.0007  0.0263  0.1114
18227W        W31641   6.841  14.542  14.827  0.1815 -0.0866 -0.0142
18228W        W31642  17.875  15.961  14.619  0.1016  0.0700 -0.3058
18229W        W31643   2.050   9.556   1.837  0.0284 -0.0020 -0.0640
18230W        W31644   7.206   3.264  15.103  0.1929  0.1929 -0.0838
18231W        W31645  16.827  17.967   4.188 -0.1674 -0.0260 -0.2825
18232W        W31646   6.553  10.226   1.766  0.3063  0.1788 -0.0677
18233W        W31647  17.888   2.802   1.458 -0.0694 -0.2305 -0.2354
18234W        W31648   9.644  13.865   2.106  0.1273 -0.0768 -0.2322
18235W        W31649   1.372  11.179   4.182 -0.1432 -0.1492 -0.0517
18236W        W31650  11.067   0.809  12.309  0.1457 -0.1246 -0.1076
18237W        W31651  13.146  15.487   1.203 -0.0230  0.0337 -0.0441
18238W        W31652  11.865   4.535   3.778 -0.0486  0.3489  0.2239
18239W        W31653   0.241   8.578   0.605 -0.0387  0.0905 -0.2752
18240W        W31654   4.042   4.482  15.648  0.1760  0.0535  0.1929
18241W        W31655   4.109  17.025   0.856 -0.1775  0.2178  0.0059
18242W        W31656  12.997   2.171   1.904 -0.1362  0.1047 -0.1021
18243W        W31657   2.175  10.836  15.579 -0.0400  0.5835 -0.4613
18244W        W31658  17.614   8.835   1.554  0.0193 -0.0838 -0.1036
18245W        W31659  11.980  12.381   0.687  0.1338 -0.2747  0.0572
18246W        W31660   6.994  11.204  15.825  0.0347  0.1209  0.0299
18247W        W31661   1.431  15.727   2.329 -0.2012  0.1142 -0.1030
18248W        W31662  15.886  17.220   4.178 -0.3038 -0.2041  0.0865
18249W        W31663  16.777  14.934  15.223 -0.1029  0.0119  0.3537
18250W        W31664   1.562  18.058   0.735 -0.1221  0.1865 -0.2653
18251W        W31665   3.086   6.231  11.714 -0.0187 -0.2014  0.0711
18252W        W31666  14.111   9.265  11.780 -0.2669  0.1018 -0.0730
18253W        W31667   6.876   8.266  16.391  0.0084 -0.3138 -0.0257
18254W        W31668  12.197  10.107  10.937 -0.3073  0.0833  0.3218
18255W        W31669  16.403   0.013   4.047  0.0775 -0.1282 -0.2113
18256W        W31670   5.698   8.227  12.140 -0.1315  0.0138 -0.0104
18257W        W31671  16.175  13.016  13.583  0.1891 -0.2554  0.0478
18258W        W31672   4.157  12.799  16.274  0.0616 -0.2021  0.0577
18259W        W31673  12.589   4.633   4.664  0.0413  0.1085  0.1578
18260W        W31674  13.067  15.074   1.490  0.2636  0.3935 -0.1443
18261W        W31675   3.580   4.816   1.255 -0.5253  0.0280  0.3427
18262W        W31676   6.063  12.128   7.057  0.1512  0.2077 -0.0653
18263W        W31677   8.990   2.779  11.424 -0.0396  0.2904  0.1438
18264W        W31678  10.680   2.926   2.266  0.0854 -0.1736  0.2727
18265W        W31679  16.052   7.841  15.662  0.2038  0.0815 -0.0238
18266W        W31680  11.687   8.262  11.807 -0.0189 -0.3293 -0.0806
18267W        W31681   3.535   3.702   6.320 -0.0570 -0.0450  0.3527
18268W        W31682  17.523  11.934  12.843  0.1426 -0.1971 -0.2670
18269W        W31683   0.751   6.204   3.000  0.6856  0.2803  0.1400
18270W        W31684   7.293   9.076   1.213  0.0913  0.0421 -0.1876
18271W        W31685   3.142  16.859   4.571  0.1527 -0.0303 -0.1599
18272W        W31686  13.567  15.018  15.054 -0.4444 -0.4253 -0.0750
18273W        W31687   7.533  13.806   2.444 -0.1068 -0.0141  0.3318
18274W        W31688  13.876  17.363  11.699 -0.3231 -0.0267  0.0094
18275W        W31689  11.482   2.750  12.764  0.1495 -0.2632 -0.1643
18276W        W31690   3.683   0.627   5.113  0.1226  0.0894  0.0768
18277W        W31691  16.847  10.818  15.404  0.0368  0.1599  0.0280
18278W        W31692   5.193  15.201   3.878  0.2388 -0.1774  0.2787
18279W        W31693  16.466   3.165  13.614  0.3243 -0.2670 -0.1226
18280W        W31694   6.921   6.177   4.646 -0.0858 -0.0477  0.0282
18281W        W31695   8.551   5.556  13.800 -0.2537 -0.1830  0.1097
18282W        W31696  11.781   4.875   1.331 -0.2146 -0.1336 -0.2796
18283W        W31697  15.204  17.429   3.710  0.3379 -0.3374 -0.2585
18284W        W31698   6.858  14.335  11.734 -0.3263 -0.1571  0.0156
18285W        W31699   7.706  17.282  15.992 -0.0693  0.1143 -0.0555
18286W        W31700   8.989   6.945  12.675 -0.1063 -0.1903 -0.3495
18287W        W31701   1.191  13.177   6.119  0.0411 -0.2702 -0.3340
18288W        W31702  14.762  15.672  15.585  0.0423  0.3099  0.0757
18289W        W31703  14.202  16.932  13.915  0.0150 -0.1989 -0.0743
18290W        W31704   1.418   9.094   6.064  0.0252  0.2714  0.0875
18291W        W31705   7.775   0.950  11.692  0.1076  0.1843 -0.0828
18292W        W31706  16.257   7.724  14.048 -0.1154 -0.0547 -0.0421
18293W        W31707   1.639   2.539  12.819 -0.3057 -0.0870 -0.1460
18294W        W31708  16.080   8.496  12.269  0.1505  0.0025 -0.0395
18295W        W31709  16.071   1.378   3.513  0.2812  0.3944 -0.1632
18296W        W31710   4.974   2.402  13.192  0.1859 -0.1540  0.2111
18297W        W31711   7.824   7.631   4.241  0.4520  0.2006  0.0299
18298W        W31712   3.789  10.099   6.049 -0.2291  0.1550 -0.0253
18299W        W31713   5.833   2.488  11.188  0.0280 -0.0672 -0.0518
18300W        W31714  12.422   5.359   9.836 -0.3569 -0.0832 -0.0700
18301W        W31715  14.293   0.791  12.068  0.0794  0.2416  0.0597
18302W        W31716   9.144  16.610  11.852  0.1789  0.4271  0.3989
18303W        W31717  16.647   2.951  10.974  0.0068 -0.0272  0.0560
18304W        W31718  17.283   3.350  14.203 -0.1949 -0.2498  0.2600
18305W        W31719   7.690  11.538  12.038 -0.2781 -0.2199 -0.0370
18306W        W31720   5.850   8.700  10.494 -0.3395 -0.2493  0.0327
18307W        W31721  13.000   3.514  15.588  0.1473  0.2289  0.1966
18308W        W31722  11.648  17.838  14.682 -0.0923 -0.1157  0.0865
18309W        W31723   1.280   9.089   1.263  0.0381  0.0629  0.0346
18310W        W31724   1.418   7.121  10.324  0.4266  0.0082  0.1217
18311W        W31725   2.660  12.237  11.804  0.0751 -0.1836  0.0626
18312W        W31726  17.192  18.038  13.870  0.3347 -0.1287  0.2700
18313W        W31727   3.523  14.125  12.503  0.1412 -0.0519  0.0116
18314W        W31728   1.028  15.867   6.326  0.0978  0.1033  0.5116
18315W        W31729   6.298   8.588  15.291 -0.0825 -0.3716 -0.2748
18316W        W31730   0.933   3.929   5.740  0.1142  0.0276 -0.2702
18317W        W31731   4.880  16.456   0.849 -0.2056 -0.2088 -0.0903
18318W        W31732  11.022  11.339  15.012  0.0543  0.0641 -0.1155
18319W        W31733  10.470   6.659  16.122  0.1659 -0.1897  0.1885
18320W        W31734   4.952  13.888   2.932  0.0627  0.0133  0.2216
18321W        W31735   1.680  17.070   1.565 -0.1590 -0.3438 -0.0898
18322W        W31736   3.469  17.830   4.932  0.2541 -0.1563  0.3664
18323W        W31737   8.149   9.268   4.037 -0.1053 -0.1585 -0.0043
18324W        W31738   3.852  11.997   4.681  0.1804  0.0364  0.2214
18325W        W31739   7.940  18.256  14.993  0.1816  0.1918 -0.2631
18326W        W31740   8.425  13.952  15.200  0.3432  0.1550 -0.1113
18327W        W31741  16.221  12.339  14.261 -0.3351  0.3490  0.1292
18328W        W31742   5.032  17.332  14.495 -0.0325  0.1344 -0.0506
18329W        W31743   2.905   5.294  13.662  0.0232 -0.1577  0.0843
18330W        W31744   5.132  15.349   0.167  0.3559 -0.3057 -0.0313
18331W        W31745  15.174  12.482  13.764 -0.2581 -0.3932 -0.3443
18332W        W31746  11.834  16.745  12.739  0.0084 -0.1545 -0.0476
18333W        W31747   6.951  12.234  16.144  0.0641 -0.0115  0.3323
18334W        W31748   5.620   8.708   0.867 -0.1128  0.0861 -0.0547
18335W        W31749  18.229   5.037   4.506  0.0071 -0.0509 -0.0559
18336W        W31750   3.054  11.488   3.204 -0.2434 -0.2938 -0.1256
18337W        W31751   9.182   7.704  13.681 -0.1146  0.4806  0.0601
18338W        W31752  14.683   7.428  15.156  0.1275  0.1241 -0.2182
18339W        W31753   5.244  13.213  14.677  0.1991  0.2544  0.0792
18340W        W31754  10.879   3.777   1.812 -0.0848 -0.0533  0.1079
18341W        W31755  12.880   0.372   5.277 -0.2942  0.1873  0.0197
18342W        W31756   1.604  13.741  11.220 -0.2255 -0.4551 -0.0298
18343W        W31757   3.018   2.097  13.809  0.3219  0.1796 -0.0727
18344W        W31758   7.065  10.040   2.250  0.2146  0.0439 -0.1673
18345W        W31759   6.573   4.469   1.023 -0.0176 -0.0958 -0.1262
18346W        W31760  11.267  14.682  15.464 -0.0947 -0.0983  0.0311
18347W        W31761   2.429  14.888   0.595 -0.0082  0.2511  0.0754
18348W        W31762   5.579   7.605  14.044  0.1881 -0.1552  0.2061
18349W        W31763   1.081  14.040   5.223 -0.0937  0.2606  0.0274
18350W        W31764   1.623  16.845   4.569 -0.2218 -0.1750  0.2506
18351W        W31765   8.728  15.591   2.394 -0.1067 -0.0010  0.0460
18352W        W31766  14.717   3.936   2.471 -0.2540  0.1438 -0.0826
18353W        W31767   7.956  18.145   3.701  0.1153 -0.2365 -0.1402
18354W        W31768   9.037   4.634   2.258  0.0723  0.1907 -0.1046
18355W        W31769   5.254  16.313   3.464  0.1535  0.1071 -0.0239
18356W        W31770   0.730   6.405  11.996 -0.4242 -0.3861  0.0560
18357W        W31771   8.299  12.146  14.464 -0.1416 -0.1938 -0.0403
18358W        W31772  15.166   5.978  16.342  0.5043 -0.3461  0.0885
18359W        W31773   4.651  13.461   1.908  0.1322 -0.0272  0.1973
18360W        W31774   8.021   3.924  11.332  0.0742  0.0317  0.0520
18361W        W31775   3.064   0.374  10.861  0.2042  0.1214  0.1089
18362W        W31776  10.533   0.440   1.249  0.2488  0.4014  0.0003
18363W        W31777  15.339   5.139   0.888 -0.0379  0.2085 -0.1466
18364W        W31778  14.209  12.057   1.993  0.0110  0.2759  0.0331
18365W        W31779   7.602  15.046  11.947  0.0252  0.3000 -0.0363
18366W        W31780   2.298  14.615  14.514  0.2348 -0.0596  0.0742
18367W        W31781  14.014  17.732  13.642  0.0155  0.0510 -0.0730
18368W        W31782  17.435   1.438  15.535 -0.1907  0.1552  0.0613
18369W        W31783   7.152   4.549   5.919 -0.4097  0.2065  0.2123
18370W        W31784  14.089  16.586  11.184  0.3961  0.0157 -0.0197
18371W        W31785  14.847  16.147  15.701 -0.0240 -0.2247  0.0297
18372W        W31786   0.320   1.280  14.563  0.0563  0.0549  0.0741
18373W        W31787   5.795   0.190  14.134  0.2638 -0.0325 -0.0258
18374W        W31788  15.111   2.925   0.703  0.1256 -0.0879 -0.1178
18375W        W31789   5.619   3.425   1.511 -0.0306  0.0710  0.1581
18376W        W31790  13.857   5.481   0.160 -0.4359  0.1335  0.0303
18377W        W31791   5.110   3.604   1.717  0.0473  0.1806  0.3406
18378W        W31792   5.533  16.943  12.545  0.1571 -0.2186  0.2110
18379W        W31793   4.277  15.451   0.044  0.0166  0.1980  0.3162
18380W        W31794   9.411  14.422   0.950  0.1203  0.2259 -0.0534
18381W        W31795  16.382   5.395  16.230 -0.1424 -0.1462  0.1416
18382W        W31796  16.152   6.974  14.178 -0.1563  0.0013  0.4054
18383W        W31797   5.662  14.594  12.863 -0.0075  0.0826 -0.4317
18384W        W31798  10.183   3.015   0.790 -0.2552 -0.1224  0.2086
18385W        W31799   2.686   8.273  12.935  0.2770  0.2575 -0.0618
18386W        W31800  14.877  13.976  13.735  0.2069  0.0327  0.1736
18387W        W31801   4.779  13.535   5.263 -0.1097 -0.0852  0.1335
18388W        W31802   0.818  14.916  13.466  0.1164  0.2873 -0.0314
18389W        W31803   0.093   8.979  13.246  0.1098  0.0604  0.0119
18390W        W31804  12.336   3.514  10.534 -0.0415  0.1997  0.2423
18391W        W31805   9.892   4.550  13.173 -0.0829 -0.2690  0.0176
18392W        W31806   4.054   9.036   5.569  0.1477 -0.0574  0.0814
18393W        W31807  16.734  16.821  14.396 -0.2453  0.1721  0.4319
18394W        W31808   4.698  12.324   1.980  0.2515  0.1319 -0.0734
18395W        W31809   8.428   5.695  13.282  0.0386  0.1673 -0.0110
18396W        W31810   7.540  14.037  16.208  0.0370 -0.2106 -0.0853
18397W        W31811  14.128   6.643   1.951 -0.1646 -0.2329 -0.1450
18398W        W31812   3.012  14.771   5.043 -0.0886  0.2684  0.0799
18399W        W31813  15.495   1.783  15.955 -0.0423 -0.0458 -0.2014
18400W        W31814   3.658   4.647  11.273  0.3780  0.0921 -0.0538
18401W        W31815   2.420   1.810   1.739  0.2114 -0.1452  0.5072
18402W        W31816  16.782  15.699  15.730 -0.1551 -0.1350 -0.0011
18403W        W31817  13.929   9.250   3.437  0.3674 -0.1017  0.1240
18404W        W31818  10.932   2.825  15.884  0.2861 -0.0033 -0.3361
18405W        W31819   6.814   7.293  12.425  0.1549  0.0371 -0.1102
18406W        W31820   4.642  10.737  11.816 -0.0748 -0.1216  0.1337
18407W        W31821   6.868   8.828   5.960  0.0201  0.1780 -0.1347
18408W        W31822   0.423  10.534  10.901 -0.2590 -0.0030  0.1091
18409W        W31823   6.503   1.671  14.423  0.2937  0.0141 -0.1931
18410W        W31824  15.488  11.301  12.377 -0.2502 -0.1881  0.0323
18411W        W31825   9.684   2.604  10.776  0.0614 -0.2734  0.1835
18412W        W31826  13.182  16.219  12.365  0.5070  0.0781 -0.3313
18413W        W31827  11.973  15.536  10.915  0.2241 -0.0936  0.0126
18414W        W31828   7.738   1.992  10.728  0.1847  0.0818  0.1837
18415W        W31829  14.707  11.416   4.478 -0.1464  0.0146 -0.0350
18416W        W31830  15.734  15.204   1.903 -0.0736  0.1398  0.0927
18417W        W31831   3.815  12.865   2.009  0.1087 -0.1818 -0.2373
18418W        W31832  11.320  11.062  13.505 -0.4588  0.1823  0.0777
18419W        W31833   1.848   4.897   3.541 -0.3318  0.0825 -0.1353
18420W        W31834  11.734   1.751  15.425  0.0358  0.2543 -0.1504
18421W        W31835   0.131   3.338  11.134 -0.0211  0.0194  0.1520
18422W        W31836   2.328  16.452   4.413 -0.0924 -0.1125 -0.0546
18423W        W31837  10.810   0.889   4.175 -0.0360 -0.0686  0.1275
18424W        W31838  15.682  11.437  12.855  0.1051 -0.1901 -0.3228
18425W        W31839  16.883  14.182  11.008  0.1527  0.1000 -0.0208
18426W        W31840  12.064   1.553  14.623  0.3597  0.1902 -0.1941
18427W        W31841  18.025  18.185  13.262  0.1467 -0.1790  0.1271
18428W        W31842  13.094  16.727  11.370  0.0840  0.0443  0.0411
18429W        W31843   5.855   7.135   4.429 -0.0281  0.0928 -0.1686
18430W        W31844  13.488   6.354   2.375  0.1548  0.1292 -0.3134
18431W        W31845   0.114  12.733   1.845 -0.2379 -0.2879 -0.0140
18432W        W31846   7.835  15.363   3.917  0.1952  0.0575 -0.0304
18433W        W31847   3.884  12.229   3.682  0.2371  0.2424 -0.4793
18434W        W31848   5.584  11.252  10.992 -0.1768 -0.0455  0.2582
18435W        W31849  10.455   1.169   0.958  0.1079 -0.0395  0.3498
18436W        W31850  12.015  14.243   3.751  0.1982 -0.2962 -0.1789
18437W        W31851  15.353  13.231  16.199 -0.1426 -0.2545  0.1343
18438W        W31852  16.809  10.434  15.731  0.2110 -0.0324 -0.2011
18439W        W31853  15.975  17.666   4.438 -0.1354  0.1131  0.0855
18440W        W31854   5.993   3.871  11.172 -0.0496 -0.1721 -0.1164
18441W        W31855   3.543   5.107  16.306  0.2181  0.0089  0.0410
18442W        W31856   7.760  16.809  11.271 -0.2528  0.1166  0.0688
18443W        W31857  11.631  17.806   2.136 -0.1869 -0.0916  0.0630
18444W        W31858  14.009   4.718   0.506  0.3499  0.0333  0.0634
18445W        W31859  17.471   0.911   3.225 -0.1893  0.3135 -0.0034
18446W        W31860  12.218   5.100   2.344  0.1203 -0.1507  0.0377
18447W        W31861   6.882   7.235   4.360 -0.0814 -0.0967 -0.0788
18448W        W31862   6.610   6.362   4.280 -0.1328 -0.0405 -0.0679
18449W        W31863  15.399   0.038   3.331 -0.1582  0.1299  0.2127
18450W        W31864   5.956  16.397  13.962  0.2950 -0.1698  0.3005
18451W        W31865   9.637   7.454  13.680 -0.3578 -0.2951  0.0519
18452W        W31866  16.823   6.827  15.455  0.1401  0.0115  0.0555
18453W        W31867  17.057  17.177  14.116 -0.1194 -0.1908 -0.1010
18454W        W31868   7.456   0.499   4.300  0.1246 -0.1486 -0.0158
18455W        W31869   5.571  16.618  13.296 -0.2237 -0.0604  0.0365
18456W        W31870   7.412   7.647  14.351 -0.1078  0.1071  0.1222
18457W        W31871   2.159   8.319   0.772  0.0686  0.2531 -0.0854
18458W        W31872  10.505   1.696   1.286  0.0128  0.3783  0.0860
18459W        W31873  15.107   6.703  15.542  0.2951  0.1803 -0.0124
18460W        W31874   6.465   7.879  12.480 -0.1159  0.1465 -0.1144
18461W        W31875   7.743  10.909   1.697 -0.0579 -0.2269  0.0807
18462W        W31876  10.325  13.903  11.504  0.1047  0.1949  0.0396
18463W        W31877   6.820  11.393  12.741  0.0810 -0.1356  0.2896
18464W        W31878   7.710   7.886   1.983 -0.0263  0.4322  0.0713
18465W        W31879   4.392   1.014   6.156  0.3585  0.2978  0.1532
18466W        W31880   6.760   0.700   3.621  0.1319  0.0730 -0.1671
18467W        W31881   0.617   2.783  10.890 -0.0306 -0.2441  0.1101
18468W        W31882   3.743   3.465   4.447 -0.2932 -0.0291 -0.0341
18469W        W31883   7.964   0.767  12.890 -0.0694  0.1435 -0.1598
18470W        W31884   6.525   0.727  13.040  0.0616 -0.0452 -0.0075
18471W        W31885   1.967   9.752   1.078  0.4020  0.0730  0.0944
18472W        W31886   3.299  15.521  12.975  0.3521 -0.1606 -0.2050
18473W        W31887   2.888   9.576   4.474  0.1730  0.1699  0.2431
18474W        W31888   6.160   0.693  12.630 -0.1878  0.1260  0.0526
18475W        W31889   0.900   4.065  16.455  0.0310  0.2496 -0.1620
18476W        W31890  11.798   4.393   4.549 -0.2257  0.0484 -0.1369
18477W        W31891  12.436  15.582  14.550  0.3929 -0.0592 -0.0901
18478W        W31892  12.183  12.352  13.123  0.4135  0.2627 -0.0629
18479W        W31893   4.940   2.936   2.453 -0.1622  0.2513  0.1532
18480W        W31894  14.360  11.535   3.053 -0.1044  0.1327 -0.0097
18481W        W31895  14.052  16.015   0.854  0.0765  0.2154 -0.0349
18482W        W31896   5.410   6.864  15.481 -0.0384 -0.1183 -0.1422
18483W        W31897   5.943   0.810  14.431 -0.2341 -0.3983  0.1952
18484W        W31898   5.725   9.975  11.740 -0.4141  0.1594 -0.1292
18485W        W31899   0.695  17.696   6.112 -0.0201  0.3468  0.2961
18486W        W31900   3.693  14.542  14.941 -0.0450 -0.0254 -0.1723
18487W        W31901   3.099   7.871  13.740 -0.0518  0.0005 -0.0930
18488W        W31902   3.710  16.934  12.212  0.1697  0.0528  0.1991
18489W        W31903  12.494   8.415  11.305 -0.0542 -0.1444  0.1429
18490W        W31904  12.128   5.667   4.904  0.0557  0.1632 -0.0713
18491W        W31905   3.213  13.543   1.360  0.1060 -0.3844  0.1174
18492W        W31906   6.568   1.645   2.206  0.1567  0.1200 -0.1175
18493W        W31907   4.958   5.608  10.791 -0.3717 -0.1858 -0.0383
18494W        W31908  13.320  15.097  14.592 -0.2549 -0.1318  0.1164
18495W        W31909   8.171  10.357   4.997  0.1354 -0.2523  0.2053
18496W        W31910   4.744  13.128  12.645  0.2402  0.1470 -0.1012
18497W        W31911  18.162  10.617   5.099  0.2886  0.2981  0.1182
18498W        W31912   3.487  14.851  13.201 -0.0498  0.0498  0.1885
18499W        W31913   7.707  17.900  12.781 -0.0277 -0.1139 -0.2088
18500W        W31914   3.158  10.015  16.208  0.0743  0.0554 -0.0246
18501W        W31915  16.677   7.563   0.296 -0.0220 -0.4085  0.2391
18502W        W31916   5.620   3.137   6.014  0.1268 -0.0420 -0.0556
18503W        W31917  12.058   8.860   5.042 -0.2673  0.1167 -0.4251
18504W        W31918   0.724  11.979   2.639 -0.1260 -0.0730  0.1806
18505W        W31919   6.294  11.630  13.027  0.0399 -0.1167  0.0583
18506W        W31920  15.330  12.578  11.266  0.2977 -0.0284 -0.1743
18507W        W31921  17.513  15.311   3.883  0.1507  0.1002  0.1610
18508W        W31922   9.759  17.920  11.584 -0.0818 -0.0230 -0.1729
18509W        W31923  15.025  12.074   0.410 -0.1470 -0.0557  0.1500
18510W        W31924  11.408  15.738   1.890  0.0825  0.2985  0.1582
18511W        W31925   6.230  14.408  12.988 -0.2419  0.2031  0.2081
18512W        W31926   4.996  15.857  10.441 -0.3865  0.0631  0.1286
18513W        W31927  12.308   0.399  13.419  0.0380 -0.0598 -0.0453
18514W        W31928   4.166  17.369   3.012 -0.1858 -0.6516  0.2610
18515W        W31929   2.357  12.092   1.872 -0.1204 -0.1130 -0.1615
18516W        W31930  17.349   7.513  14.978 -0.1450 -0.0706  0.1770
18517W        W31931   9.186   6.348   1.248 -0.0994 -0.0610 -0.1715
18518W        W31932   8.011   9.307  10.375 -0.0316  0.1425  0.1878
18519W        W31933  13.662   2.173   3.693 -0.1149 -0.0523 -0.3404
18520W        W31934   7.909  12.421  14.323 -0.3397  0.0361 -0.1022
18521W        W31935   7.955   6.567   2.339 -0.1453 -0.3566 -0.0435
18522W        W31936   2.476   0.200  14.033 -0.0390  0.2210 -0.0219
18523W        W31937   3.721  16.238   4.149 -0.0992 -0.0171 -0.0322
18524W        W31938  14.796  15.796  13.101  0.1160  0.0560  0.0820
18525W        W31939   1.629   3.214   1.508 -0.0720 -0.0076  0.0424
18526W        W31940   3.274   9.340   0.216 -0.2173 -0.0381  0.3245
18527W        W31941   8.285   1.251   2.871  0.2585  0.0079 -0.2767
18528W        W31942   9.936   9.840  11.566  0.0507 -0.0185 -0.1123
18529W        W31943  12.818  11.663   3.109 -0.1119  0.1849 -0.1507
18530W        W31944  10.221   5.990  13.335 -0.2046 -0.0550 -0.0859
18531W        W31945   3.064   2.405  10.769 -0.0193  0.2524  0.1723
18532W        W31946   8.369  12.766   4.313  0.0507 -0.1528  0.0495
18533W        W31947  14.811   2.633  12.339  0.0930  0.0326  0.0479
18534W        W31948   6.573  11.161  14.568  0.1603 -0.1375 -0.1656
18535W        W31949  17.436   6.176   5.079  0.0430 -0.2041  0.1927
18536W        W31950   2.630  18.211   5.960 -0.0393  0.2441 -0.3421
18537W        W31951  17.312   1.715  14.187  0.1944  0.2418  0.0094
18538W        W31952   4.177  18.143   3.564 -0.1050 -0.0400 -0.2904
18539W        W31953   9.253   8.694  13.316  0.0272 -0.1122  0.1176
18540W        W31954   1.266  15.263   2.718 -0.2560  0.0512 -0.0574
18541W        W31955  17.953  11.010   4.278  0.0779 -0.0423  0.0456
18542W        W31956  10.590   7.640  12.323 -0.0536 -0.2366  0.2119
18543W        W31957   2.955   7.733  15.283 -0.0366 -0.1940  0.1285
18544W        W31958   3.522  11.366   4.632  0.1659 -0.3558  0.0894
18545W        W31959   9.016  12.459  16.241  0.0903 -0.3925 -0.2238
18546W        W31960   7.708  18.056  15.366 -0.1417 -0.1605 -0.2101
18547W        W31961   1.417   7.438   2.607 -0.1307 -0.0674 -0.0292
18548W        W31962   4.119  10.610  11.210  0.0271  0.2923  0.3330
18549W        W31963  17.278  14.782  14.374  0.1826 -0.3402 -0.1874
18550W        W31964   8.284  13.425  15.033  0.3660 -0.0215 -0.2091
18551W        W31965   3.206   2.056   3.308  0.1413  0.2615 -0.0301
18552W        W31966  14.301   6.312  10.855  0.1051  0.0570 -0.0667
18553W        W31967   9.706   1.498   3.991 -0.0841  0.0270  0.3174
18554W        W31968   4.599   3.965  12.174 -0.1005  0.0339 -0.1736
18555W        W31969   2.803  11.788  10.813 -0.2090 -0.1275  0.1421
18556W        W31970   8.030  16.229  11.985  0.3151  0.0572  0.0044
18557W        W31971  11.168  15.965   5.084  0.0058 -0.0949  0.0599
18558W        W31972  16.392   3.907   2.539 -0.1817 -0.1540 -0.1460
18559W        W31973  17.599   6.423   2.622 -0.0818 -0.1219  0.2720
18560W        W31974   8.506  10.540   5.699 -0.0068  0.0565  0.1673
18561W        W31975  15.209  12.355  13.162 -0.1216 -0.2620  0.2662
18562W        W31976  10.641   1.947  13.216 -0.1005  0.1909  0.2134
18563W        W31977  14.004   5.739  15.497 -0.0099 -0.1205  0.1420
18564W        W31978   7.918  10.912  13.086 -0.2426 -0.0808  0.1351
18565W        W31979  12.362   8.180   0.951 -0.4464  0.0521  0.1783
18566W        W31980  17.898   2.033  10.078 -0.1282  0.1178  0.0310
18567W        W31981  15.014   5.377  12.094  0.1929  0.1070 -0.1437
18568W        W31982  11.017  10.932  13.111 -0.1605 -0.0379  0.0571
18569W        W31983   7.654  12.326   5.334  0.0288 -0.1107  0.1295
18570W        W31984   9.514  17.234   5.012 -0.0898  0.0533  0.2046
18571W        W31985   4.952   1.153   1.987 -0.2314 -0.0013  0.2382
18572W        W31986  17.927   1.716  10.589 -0.0709  0.0440 -0.1587
18573W        W31987  15.973  18.021   3.726  0.4572  0.0442  0.3079
18574W        W31988  13.640   2.336  14.008  0.1715  0.0245 -0.0512
18575W        W31989  15.788  14.398  16.323  0.2181  0.0425  0.2818
18576W        W31990   6.777   8.139   4.534  0.3199  0.0358 -0.3519
18577W        W31991  17.767  12.207   5.892 -0.1339  0.4228 -0.0379
18578W        W31992   3.979   0.364   2.671 -0.1281 -0.1689 -0.0888
18579W        W31993   0.900   1.854  13.497 -0.2053 -0.0308  0.0012
18580W        W31994   6.103  17.973   2.081  0.0072 -0.2109 -0.0407
18581W        W31995   0.236   6.143   3.726 -0.1035  0.0147  0.3909
18582W        W31996   5.564  17.497   1.414  0.0825  0.1606  0.1052
18583W        W31997   3.021  11.936   1.051  0.1139  0.4167  0.1336
18584W        W31998  13.745  10.436  12.570 -0.1236  0.0304 -0.1070
18585W        W31999   0.282   5.412   0.114 -0.0922 -0.0685  0.0009
18586W        W32000  11.159  18.061  15.960 -0.0785 -0.0769  0.4167
18587W        W32001  10.531   0.705  12.366 -0.0412  0.1650 -0.1800
18588W        W32002   1.176  15.563  15.426 -0.1198  0.1435 -0.1764
18589W        W32003   5.028  17.535  14.987 -0.1054 -0.2415  0.1175
18590W        W32004   7.038   2.863   2.915 -0.3518  0.2006 -0.1296
18591W        W32005   2.295   1.832   3.933 -0.3642  0.0580 -0.0187
18592W        W32006   8.335  16.707   1.317  0.4191 -0.0361  0.0095
18593W        W32007   0.560   8.795  14.589  0.2601 -0.0006 -0.2326
18594W        W32008  13.111  18.007   1.016  0.1347 -0.0603  0.0634
18595W        W32009  11.583  15.204  16.315 -0.3972 -0.1225  0.0767
18596W        W32010   3.578   8.889   1.882  0.0682  0.1770 -0.1063
18597W        W32011  10.948   2.852  12.614  0.1911  0.2137 -0.1925
18598W        W32012  13.279   5.559  16.133 -0.0099  0.2033  0.3107
18599W        W32013  13.351  10.925   4.959 -0.1087  0.3379 -0.0161
18600W        W32014   8.198   0.104  15.504  0.0569 -0.1014 -0.1815
18601W        W32015  17.557   8.268  11.276  0.0780 -0.2835 -0.0360
18602W        W32016   7.138  13.091   5.745  0.0958 -0.1579  0.2000
18603W        W32017  13.831   8.740  14.601 -0.5824 -0.0740 -0.0402
18604W        W32018   1.037  16.714  13.972 -0.1826 -0.1217  0.0904
18605W        W32019   2.428   4.539   2.262  0.0912  0.4424 -0.1663
18606W        W32020   7.994   3.871  14.612 -0.0504 -0.1580  0.1394
18607W        W32021  15.911  13.849   0.334 -0.1261 -0.0369 -0.0446
18608W        W32022   5.997  15.362  14.748 -0.0314  0.0027 -0.1853
18609W        W32023  11.212  16.653   0.065  0.0872  0.1703  0.0109
18610W        W32024  11.654   3.472   2.290 -0.1788 -0.1218 -0.0438
18611W        W32025   7.133   4.704   4.932 -0.3641  0.2937  0.1640
18612W        W32026  15.339  11.650   2.206  0.0839 -0.0211 -0.2318
18613W        W32027   7.635  18.110   0.601  0.3211  0.1454 -0.2041
18614W        W32028   5.126   6.690   6.149 -0.1131  0.2255 -0.0682
18615W        W32029  16.272  13.430   0.830 -0.1621 -0.1551 -0.1854
18616W        W32030  18.012  11.358   1.670  0.2526 -0.3856 -0.0597
18617W        W32031  15.610   4.409   2.583 -0.1607 -0.2772  0.0434
18618W        W32032   1.314   4.364  12.849 -0.2186 -0.0838  0.0390
18619W        W32033  13.442   3.785  11.177  0.3163 -0.0018 -0.1137
18620W        W32034   6.702  11.988   2.995 -0.0608 -0.2886  0.0871
18621W        W32035   6.471  14.560  13.404  0.0056  0.1575 -0.0421
18622W        W32036  13.977   1.448  14.429 -0.2507 -0.0417  0.1261
18623W        W32037   1.129   9.439   2.653  0.0574  0.0161  0.0068
18624W        W32038   8.583  11.000   2.044 -0.0087  0.1576 -0.3014
18625W        W32039   2.517  17.768  13.575  0.3399 -0.0823 -0.0689
18626W        W32040   7.934   9.616   1.091  0.0820 -0.0146 -0.0945
18627W        W32041   5.313  11.211  12.710  0.1261  0.1483 -0.0621
18628W        W32042  17.828  16.676   5.643  0.2457 -0.2314 -0.2836
18629W        W32043  14.724  14.613   4.671  0.1298 -0.0393 -0.1185
18630W        W32044  15.626  14.674   5.392 -0.0889  0.0984  0.2022
18631W        W32045  10.800   4.923  14.772  0.1273  0.2264  0.0903
18632W        W32046  15.617  13.615   3.050  0.1765 -0.0521 -0.1524
18633W        W32047   8.317   7.195  13.306  0.1872 -0.1331 -0.1716
18634W        W32048   2.344   1.384   3.131  0.4827 -0.0125 -0.0198
18635W        W32049  14.986  14.768   0.982 -0.4122  0.1025 -0.1392
18636W        W32050  16.350  14.242  14.931  0.2507 -0.0191  0.0779
18637W        W32051   3.228   8.090   2.268  0.2520 -0.0850  0.2395
18638W        W32052  12.386   8.611   2.618 -0.0914 -0.1231  0.0112
18639W        W32053  10.936  13.436   3.587  0.1240  0.1008  0.1318
18640W        W32054   7.503   2.964   2.634  0.0558  0.0642  0.3148
18641W        W32055   9.321   3.846  14.504 -0.1881  0.2753 -0.2787
18642W        W32056   7.086   7.429   3.036 -0.0417  0.0515 -0.2210
18643W        W32057  15.483   7.671  12.045 -0.4365  0.0297 -0.0532
18644W        W32058   0.444   5.443   4.560 -0.0615  0.0831 -0.0093
18645W        W32059   0.718  11.576   0.455 -0.0437 -0.1033 -0.1426
18646W        W32060   4.179   0.492  16.168  0.1098 -0.2345  0.3664
18647W        W32061  14.787  13.363   4.681 -0.1486  0.0449 -0.0179
18648W        W32062  11.052  17.466  10.209  0.1170 -0.0481  0.2852
18649W        W32063   3.899  18.116   0.574  0.0005  0.0292  0.0412
18650W        W32064  17.537  11.305  11.184 -0.0416  0.1135  0.3136
18651W        W32065  13.950   0.266   0.638 -0.1470 -0.1183  0.2895
18652W        W32066   0.939   5.557  12.394  0.0825  0.0786  0.0556
18653W        W32067  16.009   6.882   4.603 -0.1110 -0.3415 -0.1109
18654W        W32068  10.978   7.164   5.908 -0.0744 -0.1892  0.1249
18655W        W32069   4.036   5.810  15.814  0.1380  0.3521 -0.1008
18656W        W32070   1.902  16.043  15.881  0.0190 -0.0111  0.3006
18657W        W32071   5.275  14.430   1.317 -0.1389 -0.0330 -0.0879
18658W        W32072  15.609   7.618   2.070  0.2467 -0.0361 -0.1142
18659W        W32073  16.850   8.010   4.000  0.0069  0.4871 -0.0577
18660W        W32074  12.688   0.683   3.243  0.2855  0.2217  0.0473
18661W        W32075   5.674  10.637   4.797  0.0721  0.0688 -0.0979
18662W        W32076  16.095   4.768   0.870 -0.2452  0.1408  0.0574
18663W        W32077   3.486  14.219   4.622 -0.0790  0.2129 -0.3467
18664W        W32078   8.887  17.596  15.734  0.3343  0.0571 -0.2599
18665W        W32079  13.679   7.566   3.087  0.3186  0.3258 -0.1510
18666W        W32080  13.937   6.141  11.252  0.0350 -0.1874  0.0401
18667W        W32081   1.580  10.223  15.244 -0.1290 -0.2347 -0.3121
18668W        W32082   1.677  13.736   1.286  0.4665 -0.0433 -0.6165
18669W        W32083  14.560  16.496   2.525  0.0244  0.2509 -0.0225
18670W        W32084  17.428  14.884  12.074  0.1319  0.1512  0.1527
18671W        W32085   3.859  14.412  13.343  0.3151 -0.0410 -0.3615
18672W        W32086  15.672  14.274   4.063  0.2693 -0.3098  0.1369
18673W        W32087  12.142  17.465   3.468 -0.2660 -0.1453 -0.2109
18674W        W32088   6.878   0.021  11.124  0.2561 -0.1258 -0.0573
18675W        W32089  17.465  10.524   3.738  0.1663  0.2434 -0.2209
18676W        W32090   3.290   4.400   0.063  0.2393 -0.0138 -0.1688
18677W        W32091   7.934  17.500  15.529 -0.0295 -0.3261 -0.1197
18678W        W32092  12.322  18.038   4.696  0.0233 -0.1081 -0.2722
18679W        W32093  11.302  17.080   1.621 -0.1347 -0.3329 -0.3569
18680W        W32094   8.842   0.448   3.778 -0.2941  0.1332  0.1355
18681W        W32095   0.083   2.596   2.911 -0.1680 -0.2396  0.1022
18682W        W32096  15.114  16.245  11.261  0.3476 -0.0869  0.0897
18683W        W32097  11.082  17.936  14.969  0.0593 -0.1331  0.1842
18684W        W32098   4.373   7.592  12.899  0.2464  0.0741  0.1512
18685W        W32099   8.334   3.588   4.557  0.1264  0.2998 -0.0715
18686W        W32100  17.088   1.384  15.004  0.2020 -0.0513  0.2237
18687W        W32101  15.270   7.746   0.487  0.1926 -0.0568 -0.0820
18688W        W32102  12.922   7.274   4.415  0.1014 -0.1232  0.1885
18689W        W32103   1.605   7.874   2.770 -0.3979 -0.1476  0.2250
18690W        W32104   9.123   9.597   0.938 -0.1566  0.2430 -0.0859
18691W        W32105  11.621   9.390  11.309 -0.1628  0.0380 -0.1524
18692W        W32106   3.359   6.191  10.461 -0.0265 -0.2855 -0.1714
18693W        W32107   2.166  17.081   4.502 -0.0149 -0.0061  0.0748
18694W        W32108   0.297  13.013  14.676 -0.1641 -0.0839  0.0179
18695W        W32109   1.666   1.952  12.836 -0.3221 -0.0737  0.1763
18696W        W32110   0.463   5.365  15.675  0.0545  0.2181  0.2141
18697W        W32111   3.721  16.737   3.929 -0.0363  0.1308 -0.2042
18698W        W32112   8.699  11.007   4.094  0.1828 -0.0845  0.0813
18699W        W32113   5.914  12.746   4.103  0.0322 -0.2854  0.0856
18700W        W32114   7.087  11.094   5.697  0.0977  0.0409 -0.0442
18701W        W32115   0.087  15.187   1.036  0.0387  0.1817  0.3075
18702W        W32116   3.827  14.600  15.451  0.2214  0.1800  0.1821
18703W        W32117  14.820  13.318  16.080 -0.1891 -0.2024 -0.0304
18704W        W32118  13.837   4.027  11.916  0.1726  0.0003  0.0265
18705W        W32119  14.968  11.199  10.764  0.1543 -0.3061 -0.3688
18706W        W32120  13.348   2.351   5.644 -0.3357 -0.0318  0.1557
18707W        W32121   0.248  14.394   0.079 -0.1843  0.0456 -0.1915
18708W        W32122  11.544   0.136  10.975 -0.2050  0.0499  0.2357
18709W        W32123   2.070  15.801   1.730 -0.1046  0.0433 -0.0869
18710W        W32124  18.116  17.141  15.510 -0.1437 -0.0413 -0.0090
18711W        W32125   8.409  12.747  14.320 -0.0480  0.0459 -0.2034
18712W        W32126   6.229   0.507  10.848  0.0831  0.1432  0.0731
18713W        W32127   5.786  17.894  10.532  0.1702 -0.1438 -0.2156
18714W        W32128  14.242  13.306  10.964  0.0916 -0.2289  0.1311
18715W        W32129   0.572   1.215  11.753 -0.0493  0.2558  0.0847
18716W        W32130  13.410   9.850  13.070 -0.3465  0.1355  0.2904
18717W        W32131   5.686  12.108  15.627 -0.0395 -0.1718  0.2448
18718W        W32132  15.182   8.136   4.540 -0.0696 -0.3008 -0.2959
18719W        W32133   0.252  10.343  14.984 -0.3116 -0.2043  0.0766
18720W        W32134   4.794   2.363   1.909 -0.4224 -0.1498  0.2467
18721W        W32135  11.774  14.298   2.921 -0.2417  0.0635  0.2241
18722W        W32136   4.313  11.112   2.441  0.1842  0.1526 -0.1059
18723W        W32137  14.822  12.092   3.562  0.0647  0.0209 -0.0169
18724W        W32138   5.806  11.151   5.459 -0.0132 -0.0776  0.0016
18725W        W32139   5.903   4.062   1.072 -0.0822  0.0888  0.0370
18726W        W32140   0.149  14.746   6.229  0.0386 -0.1316 -0.1514
18727W        W32141  12.700   8.389  10.719  0.2756  0.0091  0.1505
18728W        W32142  10.881  16.415   2.355  0.1543  0.1217  0.3777
18729W        W32143   0.501   1.232  10.839  0.2693  0.0841 -0.0112
18730W        W32144   0.026  15.415  12.087  0.0915  0.1324  0.0761
18731W        W32145   7.974  15.448   5.496  0.4865  0.2319 -0.2033
18732W        W32146  18.143  17.041  16.056  0.0715  0.0997  0.3357
18733W        W32147  12.636   3.341   3.508  0.0090  0.0925  0.1421
18734W        W32148  10.863   1.434   1.075  0.0968  0.1744 -0.2913
18735W        W32149   8.162   6.464   3.097  0.0454  0.1925  0.0111
18736W        W32150  10.964   0.076   2.480  0.1110  0.1132  0.3172
18737W        W32151  16.979   3.587  15.061  0.0145  0.1257  0.3033
18738W        W32152  17.128  16.516  15.554 -0.1465 -0.0352 -0.0025
18739W        W32153   8.347   0.984   0.970 -0.0091  0.0708 -0.2487
18740W        W32154   5.329   2.597   2.100 -0.2932 -0.0588 -0.0980
18741W        W32155   7.295   4.784  12.030 -0.1622  0.1207 -0.1547
18742W        W32156   0.674  11.652   5.422 -0.0761 -0.1481  0.1305
18743W        W32157   2.826   3.614   1.991  0.0871  0.3240 -0.2955
18744W        W32158  15.979  14.571  14.166  0.0234  0.0548 -0.1580
18745W        W32159   1.663  11.536   1.528  0.1731 -0.1519 -0.1823
18746W        W32160   6.913   7.642  12.771  0.0094 -0.1734 -0.2024
18747W        W32161  15.472  16.232  13.686  0.0387 -0.0403 -0.0383
18748W        W32162  13.457  14.899   1.270 -0.0487  0.4233  0.1140
18749W        W32163  17.458   4.036   4.121  0.0816  0.1550  0.0420
18750W        W32164  16.020   8.255   5.026  0.1835 -0.0502 -0.0082
18751W        W32165  17.424  10.894   2.056  0.1499  0.2609 -0.1761
18752W        W32166   3.932  13.149  12.451 -0.2927  0.1152  0.1949
18753W        W32167  10.225   0.384   3.617 -0.1643  0.2217 -0.1793
18754W        W32168   5.704   3.989  16.185 -0.0957 -0.3715  0.0985
18755W        W32169   0.418  15.485   0.019 -0.0875  0.2794  0.1642
18756W        W32170  17.849   0.902  16.403  0.2708  0.0512 -0.0628
18757W        W32171  16.025   1.193   4.952  0.0724  0.0044  0.0687
18758W        W32172  12.722  13.455   4.922  0.3288  0.1772  0.2594
18759W        W32173   4.177  18.138   5.485 -0.0371 -0.1657  0.1344
18760W        W32174   8.612   4.092   3.302 -0.0212 -0.3631 -0.2020
18761W        W32175   5.974   8.620   3.926 -0.3129  0.0589  0.0368
18762W        W32176   7.687   2.597  14.663 -0.2233  0.0974 -0.0024
18763W        W32177   4.045   7.927   2.464 -0.0509  0.3628 -0.1833
18764W        W32178   6.653  12.457  14.081 -0.0164  0.0464  0.2146
18765W        W32179  16.786   8.801   2.797  0.1103 -0.0126 -0.2479
18766W        W32180  13.724   4.466   1.633 -0.2070 -0.2111 -0.0037
18767W        W32181   5.796   9.569  15.757  0.1971 -0.1055 -0.0743
18768W        W32182   8.543  17.937   4.448  0.3036  0.1353  0.0406
18769W        W32183  11.268   5.801  16.124  0.0915 -0.1316 -0.0066
18770W        W32184  13.616   9.156   1.560 -0.0659 -0.0215  0.2318
18771W        W32185   2.949  13.883  14.323  0.2016 -0.1084  0.1024
18772W        W32186  14.018   2.654  10.964  0.0355  0.2014 -0.3802
18773W        W32187  10.095  11.815  13.583 -0.1446 -0.0343  0.1776
18774W        W32188  10.210   4.243  10.608 -0.1704 -0.0798  0.3607
18775W        W32189  12.819   8.708   4.065  0.1055 -0.2455 -0.1129
18776W        W32190  13.383   5.456  13.895 -0.0264  0.1164 -0.1720
18777W        W32191  12.424   8.247   5.383 -0.0120 -0.1811 -0.0262
18778W        W32192  13.208  16.993  14.820  0.0410  0.3683 -0.0345
18779W        W32193  17.877   0.596   0.286 -0.1790 -0.0907 -0.3094
18780W        W32194   2.743   5.487   0.791  0.1611 -0.1851  0.1902
18781W        W32195   7.789   1.693  11.463 -0.0566 -0.0831  0.0452
18782W        W32196  14.908  10.062  16.460  0.0800 -0.0431  0.1216
18783W        W32197   1.290   7.191   4.866 -0.1902 -0.2240 -0.1942
18784W        W32198   6.215   7.417  12.416  0.1518  0.0101 -0.0670
18785W        W32199  16.731   0.558   4.707 -0.5402  0.0134  0.0925
18786W        W32200  10.639  11.647   3.685 -0.2008  0.3406 -0.0747
18787W        W32201  14.862   6.500  11.354  0.2208 -0.0713 -0.0472
18788W        W32202   9.186  11.699   1.707 -0.0417  0.3195  0.0422
18789W        W32203   9.974  16.943   1.741  0.1324  0.3443  0.0854
18790W        W32204   3.986  16.825   1.857  0.0823 -0.0332  0.1372
18791W        W32205   7.896   2.269   3.908 -0.0476  0.1365 -0.6291
18792W        W32206  18.047   6.814   1.358 -0.1060 -0.0231  0.0567
18793W        W32207   2.266   7.783  10.460 -0.3747 -0.2438 -0.2681
18794W        W32208  17.103  16.533   0.861 -0.2017 -0.2036  0.1758
18795W        W32209   3.470   4.720  13.053  0.0649 -0.1286  0.0016
18796W        W32210   1.983  11.043   2.386 -0.0383 -0.1464  0.1366
18797W        W32211   8.748  16.493  15.372 -0.0370  0.0635  0.0731
18798W        W32212  16.579  13.771   1.486 -0.0730  0.0238 -0.1402
18799W        W32213   4.423  12.468   5.223 -0.3787  0.0786 -0.1441
18800W        W32214  10.471   4.073  11.341  0.3098  0.0924 -0.0190
18801W        W32215   0.507   7.581   4.231 -0.1173  0.1861  0.0789
18802W        W32216   6.352   3.549  14.721 -0.1442 -0.1880 -0.1229
18803W        W32217   1.120  13.088   3.559  0.0820  0.0353 -0.0710
18804W        W32218   9.847  15.658   4.590  0.0646 -0.1379  0.2849
18805W        W32219   6.155   7.117   2.268  0.0402  0.2320  0.1415
18806W        W32220   0.178   1.677   1.116 -0.0250  0.0472 -0.0400
18807W        W32221  14.993   0.080   3.930  0.0303  0.0581 -0.0037
18808W        W32222  14.846   0.498  12.896 -0.0223  0.0882 -0.0486
18809W        W32223  10.709   8.744  14.662  0.0370 -0.1869  0.1926
18810W        W32224   7.560  12.858  12.522  0.1641 -0.1859 -0.0938
18811W        W32225   2.901  15.951   2.846  0.0426 -0.0256 -0.1571
18812W        W32226   9.670   7.549  16.278  0.2378 -0.0585 -0.0132
18813W        W32227   4.002   4.530   1.232 -0.1023  0.2833  0.1068
18814W        W32228  14.509  11.823  13.646 -0.1572 -0.3796 -0.1082
18815W        W32229   7.827   6.159   2.684 -0.2627  0.0824  0.0904
18816W        W32230   9.573   7.566  10.845  0.1447 -0.2225 -0.0041
18817W        W32231  13.489  15.311   4.303 -0.1474  0.1500 -0.0056
18818W        W32232   3.545  11.303   3.586  0.1626  0.0570  0.0943
18819W        W32233  13.291  16.920  10.213  0.1707  0.0378 -0.0449
18820W        W32234   8.958   7.708   0.128  0.3721 -0.0647 -0.0371
18821W        W32235  12.564  10.067  16.088  0.0524  0.0186 -0.3943
18822W        W32236  12.144  12.197   2.307 -0.1024 -0.2901  0.1684
18823W        W32237   9.397   4.033   0.976 -0.0015  0.0249 -0.0144
18824W        W32238  11.659   0.684   1.354  0.0535  0.0477 -0.0567
18825W        W32239  15.841   0.024  15.644  0.0677 -0.0413 -0.2277
18826W        W32240   7.082   2.042   5.710  0.2200  0.1804  0.1291
18827W        W32241   2.479   2.999  12.708  0.2724  0.1329  0.0206
18828W        W32242  14.122   2.024  13.142  0.0337 -0.0206  0.0634
18829W        W32243  10.650  12.461  13.339 -0.0896 -0.0430  0.0212
18830W        W32244   1.108  11.549  16.284 -0.0433 -0.1414 -0.4032
18831W        W32245   3.295  13.129  14.472 -0.2362 -0.0867  0.1316
18832W        W32246   4.763  17.077   6.261 -0.3782  0.1464  0.1876
18833W        W32247   3.672  10.547  13.499 -0.0342 -0.0764 -0.0485
18834W        W32248   2.000  10.172  12.066  0.1333  0.3543 -0.0356
18835W        W32249  10.887   2.574  14.275 -0.0588 -0.0986  0.2147
18836W        W32250  12.762  10.875  12.234 -0.1054 -0.0129 -0.0989
18837W        W32251   0.658   5.812   0.285  0.0686  0.1150 -0.4264
18838W        W32252   5.900  11.477  12.406 -0.0368  0.3770  0.1336
18839W        W32253   3.851   0.501  13.379 -0.0289  0.2269 -0.1702
18840W        W32254   7.898  13.605  14.449  0.0461 -0.1545 -0.0350
18841W        W32255   6.967   3.250  10.539 -0.1589  0.2998  0.1253
18842W        W32256   7.325   4.773  13.107 -0.3677 -0.2478  0.0766
18843W        W32257   2.193  17.684  16.270  0.0859 -0.1313 -0.2534
18844W        W32258   2.936   2.913   3.546  0.1386 -0.3343  0.0744
18845W        W32259  14.917   3.061  11.060  0.0865 -0.1318 -0.3358
18846W        W32260   3.435  10.783   0.011 -0.0969 -0.2593  0.1289
18847W        W32261  15.241   2.005  16.371  0.0940  0.1555  0.1522
18848W        W32262  16.428  14.718   0.121  0.1891  0.1223  0.0806
18849W        W32263  16.411   9.022  11.190  0.1290  0.2076  0.1395
18850W        W32264  15.026  10.511   2.122  0.0409 -0.0936 -0.0913
18851W        W32265   2.073   6.396   1.511 -0.0271  0.0800 -0.1819
18852W        W32266  17.044   2.173   5.452 -0.3874 -0.0894 -0.1045
18853W        W32267   9.904   5.435  10.833  0.0352  0.0522 -0.1380
18854W        W32268  17.588  14.780  13.439  0.2283 -0.2737  0.1762
18855W        W32269  17.991   8.452   0.777  0.4205 -0.0486 -0.0600
18856W        W32270   4.621  14.907   2.391  0.1097 -0.1823  0.0514
18857W        W32271  10.859   4.652  14.280 -0.0760  0.0659  0.1271
18858W        W32272   9.970   2.904   1.622  0.1553  0.0395 -0.0992
18859W        W32273   3.609  12.717  15.383  0.0558 -0.0508  0.0428
18860W        W32274  16.259  17.750   3.971 -0.0725 -0.0719 -0.4831
18861W        W32275  11.472  16.220  11.765 -0.1226  0.3621  0.1115
18862W        W32276  16.609   1.184   6.472 -0.1112  0.3983 -0.0183
18863W        W32277  15.419   1.108   4.219 -0.1333 -0.2762 -0.0313
18864W        W32278  16.346   2.565   4.667 -0.4376 -0.2527  0.0052
18865W        W32279  12.587  10.110  11.726  0.3377 -0.4667 -0.2023
18866W        W32280   7.201   9.586  11.458  0.3716  0.2816  0.6147
18867W        W32281  14.067   5.925   0.733  0.2350 -0.0730  0.1312
18868W        W32282  13.045   4.084  14.303  0.1031  0.2438 -0.1112
18869W        W32283   7.120   7.979  13.183 -0.0845 -0.0000  0.0169
18870W        W32284  13.267  10.594  12.233 -0.2438  0.3034  0.0296
18871W        W32285  14.491   4.149   5.507 -0.1446 -0.0246 -0.1551
18872W        W32286   3.481   4.184   3.011  0.0646  0.0289 -0.0916
18873W        W32287   9.244   0.490  14.967  0.1830 -0.0674 -0.0891
18874W        W32288   7.694  13.187  12.840  0.0005  0.2981  0.2132
18875W        W32289   6.414   2.308  12.125  0.2275  0.2828 -0.2378
18876W        W32290   2.420  15.421  12.082  0.2911 -0.1853 -0.0939
18877W        W32291   1.017   0.957   2.023 -0.0339  0.1361 -0.0512
18878W        W32292  17.711   8.527   5.532 -0.0172  0.0290  0.0181
18879W        W32293   6.606  12.904   0.737 -0.2832 -0.2492 -0.1697
18880W        W32294   1.337  15.075   4.228  0.0781  0.2756  0.2636
18881W        W32295  16.195   5.028   4.314 -0.0492 -0.2457 -0.1504
18882W        W32296   6.481   7.888   5.595  0.0084  0.2306 -0.1031
18883W        W32297   5.896  16.855   0.925  0.3672  0.0754 -0.3291
18884W        W32298  16.927  11.377  12.304  0.0526  0.1955 -0.0229
18885W        W32299   2.212   7.313   2.369 -0.1225  0.0260  0.0563
18886W        W32300  15.705   8.620  13.070 -0.3537  0.0783 -0.0537
18887W        W32301  14.054  11.247  12.397  0.1574  0.0850  0.0962
18888W        W32302  11.511   5.985  11.637 -0.1231 -0.0347 -0.1199
18889W        W32303   9.363   6.501   4.630  0.0495  0.1036 -0.3260
18890W        W32304   4.244  15.072  11.672 -0.1491 -0.0746 -0.0928
18891W        W32305   3.692   3.263  16.266 -0.0204  0.0366  0.1503
18892W        W32306   4.342  16.963  16.437 -0.1242 -0.1999  0.1026
18893W        W32307  12.881   9.505   4.022  0.0015  0.0803 -0.2368
18894W        W32308   3.954  12.442   0.961 -0.1333 -0.2288  0.0905
18895W        W32309   2.954   0.152   4.317 -0.0747  0.2332 -0.0650
18896W        W32310  14.599   9.317  12.612  0.1898 -0.2161 -0.0169
18897W        W32311  15.817  17.689   2.665 -0.2947 -0.2141 -0.5123
18898W        W32312   3.532   9.905   5.685  0.1028  0.2682 -0.2264
18899W        W32313   1.116  12.600  14.928  0.0623 -0.1345  0.0307
18900W        W32314   5.254   4.312  13.243  0.0365 -0.2783 -0.2125
18901W        W32315  10.151  14.240  12.827  0.3153  0.2168 -0.0323
18902W        W32316  13.471   7.587  12.977  0.0764 -0.0237 -0.0258
18903W        W32317   7.617   6.709  12.793  0.0763 -0.0766  0.2378
18904W        W32318   1.652  10.769   0.261  0.1264 -0.1970  0.2308
18905W        W32319  17.661  16.920   6.042  0.0948 -0.0475 -0.0248
18906W        W32320   1.530  14.894  15.619 -0.2369 -0.0845 -0.3411
18907W        W32321   3.267   4.887   6.223 -0.0643  0.3796 -0.3855
18908W        W32322  11.392  12.574  14.780  0.0009  0.1012 -0.0907
18909W        W32323  16.161  15.701   0.327  0.3034 -0.0810  0.1170
18910W        W32324   9.374  17.539  15.364  0.0858  0.1037 -0.1569
18911W        W32325  13.858   7.735  10.551 -0.1445  0.2301 -0.1193
18912W        W32326   6.403  13.538  16.249  0.3168 -0.1097  0.3118
18913W        W32327  10.389   9.167   1.731  0.1086  0.0506 -0.0821
18914W        W32328   3.925   5.977  15.258  0.4329  0.1980  0.1312
18915W        W32329   0.663   8.672  12.458  0.2527  0.1036  0.1049
18916W        W32330  11.572   1.200   3.909  0.0306  0.0696  0.1468
18917W        W32331  13.106   6.150  12.337  0.0959 -0.1945  0.2814
18918W        W32332   7.271   9.970   4.267 -0.2609  0.0051  0.2497
18919W        W32333  11.914  17.524  12.998  0.1994  0.1170  0.0634
18920W        W32334  17.908  10.131  15.888  0.2813  0.0844  0.2002
18921W        W32335  14.565  11.043  11.022 -0.0015 -0.2289 -0.3918
18922W        W32336   1.168   0.771   1.572  0.0344 -0.3824 -0.0104
18923W        W32337  16.975   8.895  13.632 -0.0477 -0.2325  0.2117
18924W        W32338   8.833  10.454  12.560  0.1161  0.1410  0.2572
18925W        W32339  16.718  13.123   1.733 -0.0723  0.0082  0.1069
18926W        W32340  16.230  17.224   4.590 -0.2348  0.1046 -0.0668
18927W        W32341   9.711  14.491   4.782 -0.0186 -0.3927 -0.0157
18928W        W32342   3.682  14.584   0.514 -0.0761  0.1174  0.0209
18929W        W32343   7.918  11.732   0.432  0.1129  0.0039 -0.0836
18930W        W32344   7.123  14.952  12.155 -0.0771  0.1135  0.1636
18931W        W32345   2.405  15.642   0.861  0.0486 -0.2438 -0.0368
18932W        W32346  17.640  16.257   1.998 -0.0335 -0.1138  0.0282
18933W        W32347   1.701   8.934   4.791 -0.2407 -0.0699 -0.0265
18934W        W32348   3.348  11.930  14.344 -0.1404 -0.0948  0.1199
18935W        W32349  11.273   7.016  12.513 -0.3768 -0.0354 -0.0832
18936W        W32350   6.251   4.647  12.716 -0.0037  0.1635  0.2449
18937W        W32351   3.061  10.678   0.310 -0.1604 -0.2372  0.2668
18938W        W32352  17.842   7.985  15.207 -0.1955 -0.0330 -0.1737
18939W        W32353  17.633   8.607   0.259  0.1117  0.0220  0.2109
18940W        W32354  12.995  10.333  13.897 -0.1467 -0.0997 -0.3528
18941W        W32355  11.887  16.228  12.761  0.0166  0.1058 -0.1642
18942W        W32356  15.784   2.394   3.444  0.1355  0.0812  0.0442
18943W        W32357   3.291  11.146  11.991 -0.1887 -0.1432  0.3050
18944W        W32358   6.557   8.059   1.151 -0.1989 -0.1290  0.3464
18945W        W32359   2.306  13.512   3.916 -0.2779  0.2438 -0.2405
18946W        W32360  15.103  11.404  14.497  0.0301  0.2387  0.1136
18947W        W32361  15.667   8.680  15.903 -0.1777  0.0547 -0.0279
18948W        W32362   7.496   5.700  13.118 -0.1436 -0.2821  0.0896
18949W        W32363   6.189   9.706  12.501 -0.2057  0.2646 -0.2013
18950W        W32364   6.138  11.033   0.594 -0.0741  0.4046 -0.3756
18951W        W32365  17.047  10.298   5.839  0.1357  0.0216 -0.0772
18952W        W32366   4.749   1.116  10.418 -0.3722  0.2880 -0.3008
18953W        W32367   4.199   5.381   6.460  0.1649  0.0427 -0.1615
18954W        W32368   8.265  11.100  15.781 -0.0823 -0.0510 -0.0567
18955W        W32369   9.314  12.356   5.129  0.0061 -0.3357 -0.2397
18956W        W32370   7.785   1.368   4.880  0.2131 -0.0454 -0.2799
18957W        W32371  12.769   5.718  16.396 -0.3220 -0.3031 -0.0662
18958W        W32372   5.525  13.193   4.803 -0.0154 -0.0350 -0.1792
18959W        W32373   9.192  17.191   1.357  0.2059 -0.2086 -0.0608
18960W        W32374   3.393   6.681  13.350 -0.0337  0.1432 -0.0897
18961W        W32375  10.865   2.227   4.930 -0.3004 -0.1442 -0.0985
18962W        W32376  12.986  15.031   3.156 -0.2872 -0.0958  0.0275
18963W        W32377  16.041   7.854  13.591 -0.2080  0.3249  0.1093
18964W        W32378  14.524   5.876  12.654  0.0575  0.0949  0.0591
18965W        W32379   8.505  18.220  11.869  0.0972  0.2242  0.2042
18966W        W32380  15.656   8.337  14.863 -0.1151  0.0739 -0.2037
18967W        W32381  12.971   5.516   2.460  0.0443 -0.1766 -0.3183
18968W        W32382   5.603   2.859  14.727 -0.1877 -0.2383 -0.1938
18969W        W32383  10.092   0.022  13.412  0.0146  0.0552  0.1169
18970W        W32384   1.963   4.751   4.451 -0.3343 -0.2725 -0.0040
18971W        W32385  17.505  14.379  15.288 -0.2139 -0.0811 -0.0364
18972W        W32386   0.140  14.076  15.720 -0.0221 -0.3523  0.2927
18973W        W32387  15.670  12.913  13.882 -0.1995 -0.0871 -0.1135
18974W        W32388   6.288  14.405  10.600  0.0590 -0.3686 -0.2937
18975W        W32389   9.920   3.676  13.365 -0.0077  0.1269  0.3981
18976W        W32390  14.153   6.973   3.686 -0.1992 -0.2764  0.3065
18977W        W32391   5.690   5.869   2.760  0.0196  0.2436 -0.0520
18978W        W32392   0.396  14.662   4.729 -0.1320  0.4407  0.0530
18979W        W32393   1.855   1.025  14.344 -0.0888 -0.3728  0.2273
18980W        W32394  10.291  15.853   4.063  0.1647 -0.4449 -0.4117
18981W        W32395  12.345   5.605   3.503  0.0824 -0.0217  0.2143
18982W        W32396  12.497  16.366   3.017  0.0723  0.0354  0.0665
18983W        W32397   6.599  12.340   1.925  0.0791  0.0583 -0.1529
18984W        W32398   6.284   2.989  14.849 -0.0532 -0.0513  0.0323
18985W        W32399  13.653   7.799   4.856  0.1277 -0.3994  0.0158
18986W        W32400  14.533  12.350   4.610  0.0689  0.2667 -0.1103
18987W        W32401   4.249  11.004  15.056  0.3816 -0.0210  0.2107
18988W        W32402  15.215  11.334   2.588 -0.1194 -0.2483 -0.4027
18989W        W32403   2.804  10.291   3.360  0.0696 -0.2596 -0.1891
18990W        W32404   2.939   0.596  16.266  0.2372 -0.0125 -0.1594
18991W        W32405  14.594  18.102   3.702  0.1820  0.3606 -0.0722
18992W        W32406   6.552   1.064   5.585 -0.2016 -0.3992  0.3368
18993W        W32407   3.346  14.596   0.064 -0.2024  0.0397 -0.2008
18994W        W32408   8.606   3.975   4.820 -0.3159  0.0931 -0.0854
18995W        W32409   0.153   7.053  15.830  0.0309  0.0845 -0.0214
18996W        W32410  12.462  16.131  14.373  0.0728  0.0394  0.1642
18997W        W32411  16.415   7.097   3.880  0.4596 -0.1037 -0.2828
18998W        W32412   2.467   0.263   4.017 -0.0845  0.0515 -0.0520
18999W        W32413   0.684  10.811   4.337  0.1357 -0.0729 -0.3036
19000W        W32414  15.027  16.152   1.266  0.0507  0.1997 -0.3523
19001W        W32415   0.646   8.939  11.500  0.2511  0.0025  0.2803
19002W        W32416  11.865   7.713   2.655 -0.0212 -0.2538 -0.0510
19003W        W32417   6.701  10.668   3.974  0.2264  0.0468 -0.0658
19004W        W32418   2.756  17.811   6.688 -0.2096 -0.1592  0.0857
19005W        W32419  14.990  15.286   0.929 -0.0086 -0.0178 -0.0706
19006W        W32420   2.828   1.467   0.171 -0.0881 -0.3433  0.1524
19007W        W32421   3.409   4.983  11.544  0.3387 -0.2198 -0.0395
19008W        W32422  17.366   2.066   3.887  0.1729  0.1414  0.2748
19009W        W32423  14.461  17.480  12.590  0.3195 -0.1944  0.0536
19010W        W32424  11.283  10.321  14.128 -0.1596  0.1214 -0.0095
19011W        W32425   0.324  10.855  13.366 -0.0627  0.0633 -0.0829
19012W        W32426   1.591  15.494  11.041 -0.0504  0.1020 -0.0065
19013W        W32427  10.800  10.699  11.902  0.1802 -0.0486  0.6869
19014W        W32428   5.938   5.896  14.422  0.0419 -0.1391 -0.1191
19015W        W32429  13.914   5.902   1.779 -0.0300 -0.3713 -0.1043
19016W        W32430  15.035   2.546   1.052 -0.1569 -0.1529  0.1941
19017W        W32431   2.132   5.035   4.834 -0.0282 -0.1333 -0.0913
19018W        W32432   8.980   9.950  14.913 -0.0372 -0.3212 -0.1022
19019W        W32433  18.090   5.339   1.889 -0.0097  0.0693  0.0973
19020W        W32434  13.294  17.887   0.247  0.0923 -0.2421 -0.0254
19021W        W32435   8.174   3.264  10.572  0.2248 -0.2093 -0.1399
19022W        W32436   0.211   3.993  11.635 -0.1026 -0.0486  0.1572
19023W        W32437   3.090  13.835  12.578 -0.2031 -0.1178 -0.1534
19024W        W32438  15.694  14.866  16.082  0.0014  0.0895  0.1136
19025W        W32439   3.882  12.834  12.060  0.1118  0.3699  0.4304
19026W        W32440   8.616   6.653  16.027 -0.0530 -0.3790  0.1166
19027W        W32441  13.460   7.889  16.186  0.0353 -0.1514  0.0309
19028W        W32442   8.845  16.050   0.144 -0.1003 -0.0171  0.1859
19029W        W32443   0.132  16.071  14.566  0.0876  0.1080 -0.0448
19030W        W32444   8.461  15.799  16.274  0.0734 -0.0057  0.3875
19031W        W32445  12.909   8.677  16.304 -0.1285 -0.1148 -0.0372
19032W        W32446   4.453   2.917  11.490 -0.0496 -0.1818  0.1663
19033W        W32447   8.927  17.708   4.889 -0.0042  0.0222  0.2023
19034W        W32448   9.997   8.115   2.549  0.1527 -0.0331  0.0927
19035W        W32449  13.562   7.470   5.689  0.2349 -0.4394  0.1907
19036W        W32450   6.676  12.446   5.871 -0.3021 -0.1879 -0.1154
19037W        W32451  11.664   9.339  10.730  0.1227  0.1510 -0.3110
19038W        W32452   6.388  11.994  15.129 -0.0383 -0.1593 -0.0675
19039W        W32453   3.570  12.780   6.000 -0.2275 -0.1016  0.0042
19040W        W32454   1.113  10.460  11.749 -0.2256 -0.0770  0.3247
19041W        W32455   1.398   7.044  11.955 -0.1766  0.3694  0.0959
19042W        W32456  16.020   2.915  13.520 -0.2266 -0.1803  0.0499
19043W        W32457  13.374   9.265  12.991 -0.0970 -0.1363 -0.4347
19044W        W32458   2.192   2.305   6.238  0.0956 -0.0558  0.3796
19045W        W32459   8.898  12.608  11.072  0.0640  0.0899 -0.1152
19046W        W32460  13.072   1.630   4.940  0.0155  0.0894 -0.0270
19047W        W32461   7.029   3.041   0.907  0.0794  0.0572  0.1933
19048W        W32462  14.287   1.124   1.835 -0.0544 -0.3362  0.1955
19049W        W32463   5.634  17.070   2.962  0.3830  0.0858 -0.0086
19050W        W32464   5.765  12.857   5.491  0.2192 -0.0868 -0.1136
19051W        W32465   5.519   6.953   3.337 -0.0236 -0.0454  0.0220
19052W        W32466  14.469  10.821   1.013 -0.0579 -0.1439 -0.0997
19053W        W32467   1.746   3.075   5.043  0.0142 -0.2304 -0.2159
19054W        W32468  15.748   0.489   6.506 -0.0350  0.0162 -0.2388
19055W        W32469   4.742  10.126   4.962 -0.4115  0.0032 -0.1641
19056W        W32470   5.206  13.562  14.341 -0.2534 -0.3036 -0.3185
19057W        W32471   9.248   7.097  12.192  0.1339  0.0727  0.2499
19058W        W32472   0.893  17.879   5.661  0.0766 -0.0871 -0.0371
19059W        W32473   1.112  13.361   0.513  0.2688  0.1678 -0.1492
19060W        W32474  14.056   2.172  15.952  0.0434 -0.0228  0.2010
19061W        W32475   0.707   9.198  12.131  0.0362  0.0591 -0.0562
19062W        W32476  13.881  13.236  15.446  0.2928  0.0247  0.0868
19063W        W32477  15.008   0.114   4.978  0.0668  0.1006 -0.1211
19064W        W32478   0.265   5.264  16.136 -0.3468  0.1643  0.0561
19065W        W32479  17.091  12.981  13.102 -0.0488  0.1880 -0.1014
19066W        W32480   8.665   4.182  15.989 -0.1548 -0.2652 -0.0417
19067W        W32481  10.946  15.900   3.122 -0.2548  0.1682  0.0091
19068W        W32482  12.936   6.221   3.049  0.4320 -0.2049 -0.1776
19069W        W32483   7.687  12.899   1.049 -0.1084 -0.0212 -0.3951
19070W        W32484   2.914   9.250  13.715  0.2164  0.0365 -0.1793
19071W        W32485  12.113   8.539  11.573 -0.0813  0.1729 -0.3635
19072W        W32486   1.041   8.260   5.874  0.2625 -0.2618  0.3173
19073W        W32487  12.024   7.078   4.995  0.0132  0.0876 -0.2202
19074W        W32488  15.978   1.912  12.121  0.1720  0.0547 -0.2186
19075W        W32489  10.405   4.236   3.297 -0.0530  0.2254  0.1783
19076W        W32490   4.090  13.111  11.718 -0.0609  0.1927 -0.1866
19077W        W32491  12.182   7.133  15.532 -0.1422  0.2287 -0.1653
19078W        W32492   8.001   4.636  11.870  0.3103  0.2216 -0.2400
19079W        W32493  17.141   4.455  14.426  0.0258 -0.1639 -0.0915
19080W        W32494   9.609  18.242   2.262 -0.0241 -0.0484 -0.1668
19081W        W32495   3.295   7.006   2.255  0.1399 -0.0416 -0.0429
19082W        W32496  11.531  14.224   3.367 -0.1491  0.0731  0.3468
19083W        W32497  10.631   6.449   0.190 -0.0031 -0.1792  0.0245
19084W        W32498  10.465  17.691   2.727 -0.1627 -0.2380 -0.2063
19085W        W32499   0.746  15.855   0.737 -0.2472  0.0412  0.0622
19086W        W32500   9.818  11.222  10.749  0.0753 -0.0806  0.0009
19087W        W32501  13.270   5.325   2.006  0.2270  0.2548  0.2479
19088W        W32502  14.562   4.739   2.319  0.3867 -0.0603 -0.3423
19089W        W32503   3.782   0.974   2.498  0.1599  0.2306 -0.0179
19090W        W32504   0.597   8.326   3.237 -0.3317 -0.0600  0.0008
19091W        W32505   3.032   5.785   0.366  0.2223  0.1725 -0.3288
19092W        W32506   1.094   9.226   5.380  0.2006  0.0818 -0.1577
19093W        W32507  10.254  14.026   0.929  0.0258  0.1747  0.0064
19094W        W32508  13.886  15.437   1.841  0.1153 -0.1083  0.2332
19095W        W32509  12.531   5.766  11.743  0.1451  0.0590  0.0010
19096W        W32510   5.284   6.832   0.814  0.0877  0.2365 -0.1198
19097W        W32511   1.011  12.907  11.050 -0.0310  0.2270 -0.0374
19098W        W32512   4.152   2.011   3.572  0.3040  0.3224  0.0004
19099W        W32513   3.249   8.464  13.041 -0.0852  0.0432 -0.1722
19100W        W32514  16.746   4.273   0.574  0.2423 -0.0370  0.2045
19101W        W32515  10.425   7.658  15.181  0.1716 -0.1732 -0.5862
19102W        W32516   6.388  14.400  13.940 -0.0760  0.1892  0.2638
19103W        W32517  16.370   5.721  10.637 -0.1546  0.0475  0.4666
19104W        W32518   9.725   0.956  15.020 -0.0209  0.1421 -0.0034
19105W        W32519   5.604   1.000  12.806  0.1468  0.1176  0.0284
19106W        W32520  12.556   0.520  11.950 -0.0261  0.2141 -0.2035
19107W        W32521   1.683   9.216  16.211 -0.1558  0.2729 -0.1772
19108W        W32522  15.233   1.363  11.867 -0.0975  0.2920  0.0544
19109W        W32523   7.902  15.690  10.764 -0.0137  0.1209 -0.3312
19110W        W32524   6.736   0.288   1.715 -0.1808 -0.3339  0.1981
19111W        W32525   9.604  17.780   1.142 -0.0062  0.3185  0.1529
19112W        W32526   5.813   9.529   4.251  0.0939  0.1791 -0.1200
19113W        W32527   5.219  16.166   1.831 -0.0614 -0.3232 -0.1000
19114W        W32528   0.287  16.355   2.770  0.0330 -0.0044 -0.1657
19115W        W32529   8.916   2.906  13.879  0.1318  0.1650  0.2708
19116W        W32530   7.092   6.957   4.846 -0.0858 -0.0669  0.0889
19117W        W32531  11.798   9.092  15.972  0.1040 -0.0891 -0.0583
19118W        W32532  17.382  15.624   0.598  0.0953  0.1350 -0.1470
19119W        W32533   3.943   6.168   2.657  0.1314 -0.3041  0.0969
19120W        W32534   6.712  12.407  12.639  0.1760 -0.0602 -0.0703
19121W        W32535  16.081   4.719  12.781 -0.1303  0.0170  0.2653
19122W        W32536   1.825  10.269   5.343  0.2453  0.0363  0.2574
19123W        W32537  10.877  14.198  10.620  0.0955  0.1811 -0.0293
19124W        W32538   8.599  15.217  15.990 -0.0237  0.2837  0.5430
19125W        W32539   3.592  10.647   0.465  0.0589 -0.3005 -0.4545
19126W        W32540  12.708  16.693   5.513  0.2898 -0.0987  0.0076
19127W        W32541  14.668   5.853  13.785  0.3556  0.2451  0.2700
19128W        W32542   2.919  11.206  15.836  0.0954 -0.1455 -0.1129
19129W        W32543  12.420   1.078   2.408 -0.3610  0.0451  0.0876
19130W        W32544  14.999  11.558  14.028  0.0974 -0.2861 -0.3420
19131W        W32545   7.370  12.343  11.949 -0.0483 -0.1012 -0.0745
19132W        W32546  14.180  13.850  10.953  0.0607  0.4255  0.3045
19133W        W32547  13.185   3.339   1.301 -0.1360 -0.1426  0.1862
19134W        W32548   4.031   1.984  13.425  0.2754  0.0011  0.1562
19135W        W32549  14.535  14.390  11.028  0.4365  0.2820 -0.0615
19136W        W32550  16.705   8.787   5.394 -0.1114  0.2750 -0.0636
19137W        W32551  16.611  12.987   0.842  0.1416 -0.3688 -0.3316
19138W        W32552  12.351   3.945  11.502  0.2280  0.3246  0.2786
19139W        W32553  14.498  13.884   3.378 -0.0642 -0.2680  0.1423
19140W        W32554   7.358   4.723   5.369 -0.0570 -0.0759 -0.0117
19141W        W32555  16.828  10.883  12.623  0.1433 -0.2251  0.0580
19142W        W32556  13.213  14.154  15.331 -0.2286  0.1495  0.1294
19143W        W32557   9.599   7.206  11.370  0.2411  0.1790 -0.1421
19144W        W32558   1.058  15.801   5.402 -0.4528 -0.0033  0.0273
19145W        W32559   7.603  10.452   5.077  0.1380 -0.1212  0.2733
19146W        W32560   0.522   9.354   3.487  0.0884 -0.2059 -0.1621
19147W        W32561   0.651  13.490  15.559  0.0076  0.1171 -0.1826
19148W        W32562  15.594   8.358  13.556  0.1325  0.0845 -0.1406
19149W        W32563  13.071  11.850  16.255  0.1235  0.0795 -0.0392
19150W        W32564   4.234   5.530   5.917  0.0923  0.0949  0.1036
19151W        W32565  17.603  11.839  10.554 -0.1296  0.0755  0.0577
19152W        W32566   2.176  13.022  11.278  0.0693  0.1913  0.3214
19153W        W32567  15.358   6.229   1.118 -0.1422  0.2702  0.0551
19154W        W32568   2.642   6.374   4.501  0.0094  0.0405 -0.3523
19155W        W32569  14.818  16.945  13.276  0.2545  0.0401  0.1803
19156W        W32570  12.659  14.077   2.141 -0.0073  0.0339 -0.0569
19157W        W32571   8.342  10.127   2.967 -0.0412 -0.0300 -0.1505
19158W        W32572   5.226  11.704   0.859 -0.0960 -0.1416  0.0956
19159W        W32573  11.348   4.821   2.547  0.0308  0.0037 -0.2283
19160W        W32574  13.853  12.416  13.787  0.4116  0.0298  0.0039
19161W        W32575   8.771  15.806  13.063 -0.1871  0.0834 -0.0360
19162W        W32576  15.655  14.484  12.299  0.0063  0.1247 -0.0613
19163W        W32577   9.330  10.612  11.411 -0.1052 -0.1136  0.0544
19164W        W32578   4.343   1.501  12.299 -0.0978 -0.1357  0.0430
19165W        W32579   9.166   3.223  16.144 -0.0651 -0.2267 -0.1971
19166W        W32580   9.365   8.695  11.780  0.0509 -0.1793 -0.0796
19167W        W32581  14.563   0.390   3.889  0.0883  0.1315 -0.0977
19168W        W32582  14.802   9.414   5.246 -0.4411  0.0982 -0.0535
19169W        W32583  12.827   4.936   3.696 -0.1278  0.0841 -0.0649
19170W        W32584   9.091   3.237  12.820  0.0071 -0.3515 -0.1169
19171W        W32585   1.759   2.661   4.369 -0.0533 -0.2080 -0.2584
19172W        W32586   2.567  16.954   5.433  0.2730 -0.0406 -0.3034
19173W        W32587  11.330   4.797   2.021  0.0560 -0.2444  0.0153
19174W        W32588  17.272  16.134   5.684 -0.1435  0.1882  0.0863
19175W        W32589   4.855   7.655   1.454 -0.0501 -0.0557 -0.0529
19176W        W32590  12.176   9.338   1.038  0.1826 -0.1173 -0.0789
19177W        W32591  16.854   5.940  10.760 -0.1175  0.0217 -0.3666
19178W        W32592  17.228   5.620  15.976 -0.0632  0.2052  0.0651
19179W        W32593  16.346   9.745  11.979 -0.0852 -0.1781  0.0517
19180W        W32594   3.418  12.496   2.093  0.0152  0.2659 -0.0229
19181W        W32595   2.883  11.829  14.701  0.2153  0.0472  0.0923
19182W        W32596   1.057   4.989  14.342 -0.2396 -0.0011  0.4876
19183W        W32597   5.250   9.363   5.923  0.0902  0.0468  0.2869
19184W        W32598   6.263  16.343  14.706 -0.1675  0.0107 -0.3165
19185W        W32599  18.243   2.908  11.187  0.0750 -0.1572 -0.1613
19186W        W32600   0.283   1.274  13.535  0.0301 -0.0964 -0.0806
19187W        W32601   4.676  15.796   4.111 -0.3812 -0.2789  0.1122
19188W        W32602  15.007   0.744  11.096  0.1172  0.2052 -0.0666
19189W        W32603   8.465  13.222  13.439 -0.0711  0.0150 -0.0251
19190W        W32604   4.188  15.547   4.092 -0.0621  0.2231 -0.1487
19191W        W32605  16.357  13.126   5.245 -0.1774  0.0663 -0.2096
19192W        W32606  14.502   7.595  12.066 -0.0095 -0.0929  0.1979
19193W        W32607  11.359  12.282  12.986  0.2681  0.0534  0.1423
19194W        W32608   4.768  11.456  13.839  0.3019 -0.1468 -0.0625
19195W        W32609   0.572   8.961   0.674  0.1599 -0.0535 -0.1432
19196W        W32610   8.084  15.049   1.966 -0.2434 -0.3737 -0.3220
19197W        W32611  13.156  13.132  12.394 -0.1611  0.0258 -0.0865
19198W        W32612  11.417   8.306  11.377  0.0832  0.1849  0.1154
19199W        W32613  15.937  15.184  11.167 -0.2179  0.1373  0.0234
19200W        W32614   9.961  14.000   4.541  0.2152 -0.2798  0.4281
19201W        W32615  10.695   3.571   4.479 -0.0128  0.1090  0.1521
19202W        W32616   4.454   7.490  13.375  0.1084 -0.0549  0.0084
19203W        W32617   9.173  11.788  15.024 -0.2099  0.0894  0.1703
19204W        W32618  15.278  11.878  13.000  0.4280 -0.1985 -0.0772
19205W        W32619  14.487   4.223  13.286  0.0522  0.2223 -0.0787
19206W        W32620   2.847  11.237  14.021  0.1143  0.0183  0.0107
19207W        W32621   5.107   7.892  11.640 -0.2084 -0.0625 -0.2781
19208W        W32622  10.974   0.821  14.197 -0.2567  0.1946 -0.0474
19209W        W32623   2.516   0.246   0.747 -0.2951  0.1437  0.0557
19210W        W32624   4.499  10.392  11.425 -0.2683 -0.3566 -0.3642
19211W        W32625  14.004   9.611   0.158  0.0409 -0.0394  0.1732
19212W        W32626   9.998   7.394  11.142 -0.0050 -0.0378  0.5330
19213W        W32627  17.936   6.445   0.392  0.0285  0.2166 -0.1007
19214W        W32628   5.757   8.865  16.473  0.2566 -0.0013  0.0758
19215W        W32629  16.153   1.547  11.335  0.0434 -0.2043 -0.1759
19216W        W32630   1.271   6.040   5.253 -0.1067  0.1314 -0.2425
19217W        W32631  17.233   8.074  13.820 -0.0100 -0.2748  0.0771
19218W        W32632   3.430   6.304  12.671 -0.3615  0.1096 -0.0315
19219W        W32633  15.821   9.890  13.850  0.1716 -0.2395  0.2182
19220W        W32634  11.698   9.314   1.697 -0.0931 -0.0974 -0.0615
19221W        W32635   1.289  16.555  12.985  0.0093  0.1917  0.1179
19222W        W32636  13.301   4.301  13.962  0.1383  0.0246 -0.1114
19223W        W32637  14.039  18.208  11.411 -0.1560  0.1866 -0.2815
19224W        W32638   2.854   0.374  14.327 -0.0988 -0.1488  0.0848
19225W        W32639   4.944  17.431   0.581  0.2361 -0.1476  0.1945
19226W        W32640   3.556  15.498   4.917  0.0229 -0.1696  0.0385
19227W        W32641  13.456   8.539   0.940 -0.1603  0.1443  0.0794
19228W        W32642  12.125  17.578   0.147  0.3703  0.0216 -0.2196
19229W        W32643   0.009  12.695  11.959 -0.0253 -0.0889 -0.2700
19230W        W32644  15.359  15.367   2.933 -0.0953  0.0356  0.2009
19231W        W32645  16.240   3.768  15.733 -0.1409 -0.2578 -0.1763
19232W        W32646   9.503   9.944  14.726 -0.0256  0.2408  0.0821
19233W        W32647  16.945   2.976   0.952 -0.4921  0.0431 -0.0155
19234W        W32648   8.745  14.968  13.842 -0.2638  0.1220  0.1715
19235W        W32649  15.845  11.425   4.794 -0.1019 -0.2030 -0.0355
19236W        W32650  14.282  16.833  16.211  0.2281  0.2038 -0.0646
19237W        W32651   9.560   2.736   0.353  0.0813 -0.2082 -0.0694
19238W        W32652  17.375  16.092  14.589 -0.1575 -0.0264 -0.0165
19239W        W32653   3.096   3.346   3.266  0.0467  0.2334 -0.0159
19240W        W32654   3.011   6.930   3.473  0.2924  0.0628 -0.4701
19241W        W32655   3.203   3.167  16.349 -0.0358  0.0401  0.2587
19242W        W32656   2.797   8.401   2.000 -0.0309  0.2621  0.2169
19243W        W32657   6.019  13.840  16.056  0.2240  0.0187 -0.2689
19244W        W32658  10.309  12.335  14.887  0.0047  0.2307 -0.1620
19245W        W32659  13.504   9.372  10.335 -0.0961  0.0332 -0.0060
19246W        W32660  17.066   2.879   3.782  0.0261  0.0106 -0.3214
19247W        W32661  12.095   7.467  15.895 -0.0546 -0.0476  0.2123
19248W        W32662   4.703   5.806  10.330  0.0975 -0.0192  0.0619
19249W        W32663  17.932  11.990   5.483 -0.2671  0.1831 -0.0639
19250W        W32664  10.105  16.121  13.768 -0.3038  0.1156 -0.1353
19251W        W32665   9.768  13.506  10.758 -0.0530  0.1802  0.2679
19252W        W32666  10.689  15.257  10.529  0.1372 -0.1355 -0.0751
19253W        W32667  15.284   1.811   2.357 -0.1232 -0.1166  0.0027
19254W        W32668  10.155  16.575  11.990  0.2529  0.0662  0.0487
19255W        W32669   8.916   8.512  14.701  0.1808 -0.0175 -0.1867
19256W        W32670  14.837  10.180   4.944  0.1613  0.4905 -0.2012
19257W        W32671   5.484   3.416  14.796 -0.1439 -0.2432  0.1201
19258W        W32672  17.917  11.446   3.975  0.1604 -0.5824  0.1138
19259W        W32673   7.074  10.460  14.883  0.0838  0.0116 -0.0168
19260W        W32674  13.606   0.732   4.256  0.1842 -0.1032  0.0338
19261W        W32675  12.663  12.426  10.400  0.1589  0.1528  0.0248
19262W        W32676  10.794   5.583   2.302  0.2190  0.1777 -0.2191
19263W        W32677   7.865   5.918  16.493 -0.1505  0.0537 -0.0121
19264W        W32678  15.719   1.808  14.812 -0.3228  0.0256 -0.0479
19265W        W32679   1.431   2.800  14.238  0.1744  0.0044  0.2309
19266W        W32680   7.043   3.781  11.403 -0.1384 -0.0446 -0.3318
19267W        W32681  12.152  11.331  13.382 -0.3058 -0.2248 -0.0593
19268W        W32682  14.491  14.709   2.705 -0.0994  0.0745 -0.0340
19269W        W32683  17.077   1.001   4.733 -0.1446 -0.2514  0.2120
19270W        W32684  15.931   1.187   2.231  0.1543 -0.2399 -0.1316
19271W        W32685   6.027   1.580   2.320 -0.0776  0.3485  0.1346
19272W        W32686   6.367   1.813   1.431 -0.2827  0.3247 -0.1754
19273W        W32687   1.555   0.667  14.433  0.1098  0.4587 -0.0799
19274W        W32688   6.646  15.036   9.696  0.1070 -0.0561  0.3522
19275W        W32689   8.287   4.221  11.646  0.1823 -0.0396  0.0576
19276W        W32690  17.444  10.159  12.194 -0.2728  0.0121 -0.2107
19277W        W32691  13.325   9.474   0.453  0.1353  0.0828 -0.4501
19278W        W32692   1.852  11.199  16.495 -0.0563 -0.0959 -0.0419
19279W        W32693   1.783  14.726  14.494 -0.3988 -0.0057  0.0422
19280W        W32694   9.038   5.816  12.253  0.1061  0.1779  0.0655
19281W        W32695  10.792   4.334   0.255  0.0380  0.0109  0.2125
19282W        W32696   2.180   6.437   1.018 -0.2575  0.1821  0.0848
19283W        W32697  13.776   3.685   3.995  0.2688  0.1569  0.0440
19284W        W32698  10.290   2.361  15.222 -0.2892 -0.1437  0.4693
19285W        W32699   1.846   4.287  14.461 -0.1511  0.0117  0.2800
19286W        W32700  17.042  16.828   0.293 -0.1743  0.1186  0.1622
19287W        W32701   2.755   5.508  10.880  0.0550 -0.2088 -0.0428
19288W        W32702   0.087   0.415  11.414 -0.0386 -0.0927 -0.1496
19289W        W32703   3.964   9.025   0.968 -0.0605  0.1402  0.2194
19290W        W32704   9.900  12.382   5.034 -0.1022 -0.0465  0.2848
19291W        W32705   3.655   5.338  10.565 -0.1596  0.3710 -0.1207
19292W        W32706  11.740  14.358  13.532  0.1574  0.0923 -0.2296
19293W        W32707  17.348  17.813  11.897 -0.3163  0.3007  0.0904
19294W        W32708  11.324  14.146  16.174 -0.2203  0.1617 -0.1676
19295W        W32709   0.896  15.237  11.670  0.0323  0.2588 -0.0657
19296W        W32710   4.017  17.888  15.376  0.0020  0.1094  0.3221
19297W        W32711  17.433  13.113  11.516  0.1042 -0.0974  0.0052
19298W        W32712  12.359   4.425  13.797  0.0893 -0.1372  0.2348
19299W        W32713  15.883   5.785   5.880  0.2489 -0.0253 -0.1257
19300W        W32714   3.064   7.143   6.179  0.1607 -0.0712  0.1629
19301W        W32715   4.512   5.924  10.774  0.2755 -0.2863  0.1123
19302W        W32716  17.375   3.380   2.500  0.2132 -0.0603  0.2489
19303W        W32717   2.536  12.869  13.175 -0.0028  0.0819  0.6175
19304W        W32718   2.169   8.768   0.936 -0.3152 -0.3187  0.1514
19305W        W32719   3.380   2.573   0.698  0.1126 -0.3500 -0.0119
19306W        W32720   1.802  12.719  11.474  0.1092 -0.0062  0.1369
19307W        W32721  16.377   8.397   5.287  0.1621 -0.5097  0.0903
19308W        W32722  14.931   9.086   2.392 -0.1152 -0.0144 -0.2568
19309W        W32723  15.704   9.211  14.260  0.0964  0.3907  0.0350
19310W        W32724  13.919  10.816   2.396 -0.0941 -0.2395  0.1780
19311W        W32725   9.840   0.380   4.825 -0.1537  0.0869 -0.0389
19312W        W32726  14.899   4.274  14.354 -0.3339 -0.0696 -0.0064
19313W        W32727  10.208   2.108   2.053 -0.0638  0.0227 -0.1457
19314W        W32728  17.332   4.361  15.022 -0.0159  0.0562 -0.3521
19315W        W32729   6.302   0.569   5.467 -0.3651  0.4498 -0.0737
19316W        W32730  15.299  12.510   1.763 -0.0365 -0.1670  0.1424
19317W        W32731  12.527  14.339   4.734 -0.1917  0.1239  0.2188
19318W        W32732   8.105   2.913  10.984  0.1047  0.1749 -0.0158
19319W        W32733   0.034  16.435  12.915  0.0742  0.0603 -0.0153
19320W        W32734  13.866  16.566   1.372 -0.0304 -0.3653  0.2127
19321W        W32735   1.945   1.511  16.166  0.0136  0.1379 -0.0105
19322W        W32736   0.993   6.092  10.196  0.0240  0.0707 -0.0886
19323W        W32737   8.067  13.450  12.590 -0.2003 -0.1292 -0.1111
19324W        W32738  11.512   3.309   3.311  0.3025  0.0040  0.1617
19325W        W32739  11.355  16.143   0.091 -0.1272  0.0535  0.0390
19326W        W32740   2.308  14.171  10.805 -0.4898 -0.0395  0.0492
19327W        W32741   0.340   4.452  14.188  0.2230  0.1028 -0.1718
19328W        W32742   3.678   1.571  15.577 -0.2288 -0.3264 -0.0540
19329W        W32743  13.103  15.507   5.292  0.0329 -0.0328 -0.1854
19330W        W32744   8.496   2.915   2.351  0.1754  0.0592  0.0283
19331W        W32745  15.289  15.484   4.617 -0.0375  0.0016  0.3018
19332W        W32746   2.366   8.419   5.857  0.2281  0.0878 -0.0595
19333W        W32747  16.611  17.775   3.573  0.0023 -0.0039  0.0864
19334W        W32748   2.200   5.327   2.295 -0.1221  0.0082 -0.0792
19335W        W32749  11.128  15.167  12.565 -0.1306  0.0756  0.0039
19336W        W32750   4.439   3.409  15.239  0.3495 -0.0607  0.1615
19337W        W32751   7.419  16.756   4.887  0.1470  0.1270  0.1141
19338W        W32752   0.199   2.310   2.345 -0.2129  0.1451  0.0390
19339W        W32753  10.049   7.266  16.383  0.0293 -0.2048  0.1365
19340W        W32754   1.583   8.410  13.172  0.1576  0.2275  0.1710
19341W        W32755  10.427  14.255  10.754  0.0669 -0.0174  0.1313
19342W        W32756  12.652   9.412   4.442 -0.2324 -0.0605  0.1277
19343W        W32757  14.364   9.761  12.650 -0.1776  0.0052 -0.0222
19344W        W32758  12.027   2.523   5.133  0.1457 -0.1732  0.0113
19345W        W32759   2.763   4.725  15.790 -0.0720  0.1657  0.0148
19346W        W32760   2.375  17.959   6.368 -0.1830 -0.0302  0.2908
19347W        W32761   5.838   0.685  14.975 -0.0202 -0.0351  0.0477
19348W        W32762   7.214   0.368  15.297 -0.4867  0.0532  0.2078
19349W        W32763  16.391  15.499  12.998 -0.2588 -0.0623 -0.0030
19350W        W32764  10.939  15.260   1.368 -0.2516  0.0080 -0.1184
19351W        W32765   7.450  14.008   0.178  0.1969  0.0839  0.1680
19352W        W32766   1.272  17.580  13.355 -0.1263  0.3161  0.0781
19353W        W32767  11.245   1.768  11.075 -0.1704 -0.0633  0.0279
19354W        W32768  15.419  15.745  12.119 -0.0788  0.2914  0.1012
19355W        W32769  14.453  15.389  12.857 -0.0501  0.3824  0.0687
19356W        W32770  13.185  12.789  16.211  0.3860  0.1837 -0.1913
19357W        W32771  17.825   2.798   5.037 -0.0978  0.0279 -0.0231
19358W        W32772  10.890  13.641   5.272  0.0811 -0.0818 -0.0404
19359W        W32773   7.772  11.170   0.384 -0.0949  0.0386  0.1662
19360W        W32774  13.145   0.476   1.802 -0.0336  0.1698  0.0579
19361W        W32775   0.561   7.774   2.529 -0.0228  0.0615  0.0781
19362W        W32776  15.553  11.310  11.468 -0.1508 -0.3059 -0.0900
19363W        W32777   9.616  10.372  12.882  0.4076 -0.0245 -0.0027
19364W        W32778   8.999  14.584  11.311 -0.0554 -0.1491  0.1309
19365W        W32779  11.887  12.239   4.557  0.2551 -0.1918  0.0864
19366W        W32780   2.420   0.451  16.223  0.3173  0.1856 -0.0192
19367W        W32781  12.392   5.402  16.150 -0.1462  0.2582  0.0102
19368W        W32782   6.065  13.976   4.711  0.1691  0.2172  0.0020
19369W        W32783   8.558   1.790  12.044  0.0786  0.0183 -0.0967
19370W        W32784   2.309  14.827  13.273  0.1291 -0.2514  0.2189
19371W        W32785   4.226   6.859  14.538 -0.1493  0.0534 -0.3146
19372W        W32786  12.252   2.160  14.879 -0.2272 -0.0252 -0.2967
19373W        W32787   3.622   2.587  13.412  0.2475 -0.2151 -0.0311
19374W        W32788   0.684   3.074   1.654 -0.0607 -0.0689 -0.1292
19375W        W32789   3.478  11.905   1.391  0.2909 -0.0142  0.1831
19376W        W32790   6.748   8.841  14.883 -0.1591 -0.1387 -0.2283
19377W        W32791  17.062   1.131   3.040  0.1044  0.0497  0.1320
19378W        W32792   8.774  15.044   3.470  0.3230  0.1510 -0.1005
19379W        W32793  14.384  13.983   4.309  0.3966  0.2244 -0.3632
19380W        W32794  11.030  12.006  12.020 -0.0944 -0.1515  0.1309
19381W        W32795  10.285   8.161   2.989 -0.1058  0.0601 -0.3138
19382W        W32796   2.705   6.205   3.061 -0.0076  0.1182  0.0663
19383W        W32797  15.507  12.694  12.378  0.1080 -0.3829  0.0781
19384W        W32798   4.180   6.599  15.834  0.0483  0.2064 -0.2733
19385W        W32799   6.378   6.782   1.526 -0.2386  0.1441  0.2248
19386W        W32800   4.024   5.001  12.270 -0.0913  0.0754  0.3251
19387W        W32801   4.735  11.407  11.506  0.1961 -0.5902  0.1698
19388W        W32802  12.357   6.507  10.107 -0.0814  0.0781 -0.3626
19389W        W32803  10.386   0.463   4.937  0.0238  0.0444 -0.1343
19390W        W32804   4.130   3.959  11.961  0.1127  0.1673  0.0938
19391W        W32805   5.401  11.048   5.048 -0.2002 -0.0097 -0.0248
19392W        W32806   3.775   1.858   2.145 -0.3069  0.3047  0.2544
19393W        W32807   1.146   0.649   0.742  0.2436 -0.0715 -0.1583
19394W        W32808   4.247  13.990   4.935 -0.2778 -0.2738  0.2011
19395W        W32809   8.770   4.942  15.740  0.0079 -0.1109 -0.1024
19396W        W32810  10.188   9.029  11.891  0.1896  0.0040 -0.0703
19397W        W32811   4.424  10.805  12.912  0.0711 -0.1867 -0.1262
19398W        W32812  13.852  11.498   0.444  0.0077  0.3333  0.0393
19399W        W32813  10.646   4.600  16.196 -0.0964 -0.2906  0.0040
19400W        W32814   2.728  17.675   3.196 -0.0772 -0.3442 -0.2289
19401W        W32815  14.706   7.049   1.446  0.0620  0.1756  0.0006
19402W        W32816   5.861   5.690   3.594  0.2716 -0.2241  0.1592
19403W        W32817  10.434   8.655   3.037 -0.2760 -0.0441  0.2763
19404W        W32818   3.737   8.584   0.304 -0.1286 -0.4197  0.0009
19405W        W32819  16.866   2.027   3.543  0.1259  0.3938 -0.1885
19406W        W32820  18.088   0.189   5.359 -0.1161 -0.0089 -0.0337
19407W        W32821   7.785   6.533  10.661  0.2511 -0.0165  0.2678
19408W        W32822  13.607   9.861   4.533 -0.0202  0.2984 -0.1176
19409W        W32823  14.728   1.212   0.874  0.1974 -0.1568 -0.2057
19410W        W32824  10.780  12.310  15.166  0.1284 -0.2344 -0.0160
19411W        W32825   3.408   5.804  11.813  0.0088 -0.1762  0.0910
19412W        W32826   2.602   6.660   2.876 -0.0102  0.3580  0.2040
19413W        W32827   5.680  13.472   1.593  0.0269 -0.0183  0.0632
19414W        W32828   6.237  15.951  15.299 -0.2136 -0.2590  0.2889
19415W        W32829  12.009   1.040  11.380  0.1950 -0.3061  0.0718
19416W        W32830  13.402   7.453  15.948 -0.2286 -0.1015  0.1822
19417W        W32831   6.273  15.694   5.294 -0.1466 -0.1169 -0.0659
19418W        W32832   7.257   9.722   6.427  0.0580  0.0359 -0.1451
19419W        W32833   3.835   4.365  13.901 -0.0347  0.0075  0.0771
19420W        W32834  11.874   1.638  12.925  0.0851 -0.0694  0.0584
19421W        W32835  12.911   8.113  10.236 -0.1369 -0.0659 -0.2920
19422W        W32836   8.627  15.138  13.334  0.1949  0.3438 -0.0302
19423W        W32837  12.568   8.870   9.873  0.0362  0.2676 -0.0234
19424W        W32838   2.481  12.765  11.609  0.0712  0.1087 -0.2123
19425W        W32839  15.532  17.356   0.321 -0.0203  0.0497 -0.0929
19426W        W32840   2.269  10.809  12.178  0.0791  0.0066 -0.0078
19427W        W32841  17.969  10.190  13.387 -0.0604 -0.0753 -0.0915
19428W        W32842   9.996  18.084   1.408  0.1743 -0.0213  0.0465
19429W        W32843  15.691   6.991  10.811 -0.0689 -0.0392  0.2501
19430W        W32844  16.219   3.941   1.254  0.0016  0.0118  0.0058
19431W        W32845   4.588   9.903   3.114  0.0477  0.5809  0.1532
19432W        W32846  16.257   9.098  16.424  0.1511 -0.1188 -0.0502
19433W        W32847  17.897   9.563  10.433 -0.2892  0.0001  0.1397
19434W        W32848   7.801   9.476   6.289 -0.0577  0.0197  0.1293
19435W        W32849  17.288   1.499  13.732  0.0002  0.1390 -0.2880
19436W        W32850   8.749   4.829   5.811 -0.2776  0.0200  0.0489
19437W        W32851   8.729   9.724   2.891 -0.1018  0.0629  0.2561
19438W        W32852  13.427   1.858  14.324 -0.3014 -0.2574  0.1679
19439W        W32853   2.545   2.813   4.875  0.1303  0.0031  0.2490
19440W        W32854  12.334  11.888  16.101  0.2041  0.0980 -0.2747
19441W        W32855   7.053  10.637   1.096  0.1655 -0.0131  0.1078
19442W        W32856  13.097   1.034  13.443 -0.1108  0.0431  0.0575
19443W        W32857   6.945   9.316  11.083  0.0043 -0.0256 -0.2171
19444W        W32858   9.690   1.544  14.034 -0.3765  0.1091  0.1894
19445W        W32859   6.118   5.136   3.215 -0.2060  0.0137 -0.1897
19446W        W32860   9.017   9.308  11.072 -0.1730 -0.1853 -0.0487
19447W        W32861   8.349   1.830   1.056 -0.1772  0.2687 -0.1803
19448W        W32862   7.455  16.186  15.540 -0.3182 -0.2395 -0.2191
19449W        W32863   0.059   9.168   5.949 -0.0988 -0.0761  0.0867
19450W        W32864   1.489   5.144  15.944  0.0711 -0.1808  0.0635
19451W        W32865  17.680   4.790  16.169 -0.1515  0.1377  0.0213
19452W        W32866  12.955   3.243   4.373  0.2199  0.0951  0.0586
19453W        W32867   6.317  13.226  11.641 -0.1972 -0.0253  0.0846
19454W        W32868   3.673   1.960  14.932  0.1167 -0.0146 -0.1170
19455W        W32869   5.913  17.216   6.376 -0.1788 -0.2667 -0.2404
19456W        W32870  18.217  11.870  15.406 -0.0151 -0.2673 -0.5039
19457W        W32871  13.764   3.541  16.487  0.4966 -0.0987  0.3086
19458W        W32872   4.018  17.970  12.595 -0.2369  0.2094 -0.1123
19459W        W32873  10.992  17.290  11.664 -0.0862  0.0024 -0.0252
19460W        W32874  10.734   2.266  13.710 -0.2337 -0.1241  0.4145
19461W        W32875  15.489  10.728   2.082 -0.0862  0.0226 -0.2644
19462W        W32876  16.319  18.156  15.613  0.0514 -0.1582 -0.1025
19463W        W32877   6.842   8.012  15.758  0.0340 -0.0465  0.0913
19464W        W32878   4.326  12.824   0.687  0.0975 -0.1797 -0.0992
19465W        W32879   0.247   3.365  16.236 -0.2702 -0.0022 -0.2520
19466W        W32880  11.534   6.810   1.077 -0.0014  0.3009  0.1633
19467W        W32881  11.102   4.730  16.305 -0.1908 -0.1412 -0.4324
19468W        W32882   4.759  14.105  14.446  0.1928  0.2248 -0.2731
19469W        W32883   1.772   7.423  15.938  0.0404 -0.0310  0.1224
19470W        W32884   1.028   6.082  15.450  0.1238 -0.1439  0.0415
19471W        W32885   8.836   1.067  16.087  0.1464 -0.0579  0.3000
19472W        W32886  17.727   4.094  14.165  0.0139  0.1310 -0.0543
19473W        W32887   6.078   5.428   0.628  0.1254  0.0082  0.3433
19474W        W32888  10.145  13.150   1.501 -0.0956 -0.1130  0.0837
19475W        W32889  17.924   0.351   2.128  0.1105  0.2358 -0.2702
19476W        W32890   1.600  12.760   0.971 -0.1110  0.1274  0.1047
19477W        W32891  16.632   1.335  15.964 -0.1286 -0.0874 -0.0170
19478W        W32892  12.862   9.486   3.555  0.1539  0.0070 -0.1582
19479W        W32893  12.927  16.646  15.098 -0.1302 -0.2267  0.0082
19480W        W32894   4.625   1.945   0.626 -0.1896  0.2877 -0.0730
19481W        W32895  10.608  11.987   3.329  0.1088  0.0553 -0.0477
19482W        W32896   2.421  16.922  13.474 -0.0049  0.2241 -0.2498
19483W        W32897  18.121   6.516  14.156 -0.0167 -0.3316 -0.2439
19484W        W32898  12.860  17.723  12.631 -0.0802  0.1529 -0.1164
19485W        W32899   6.968   2.482   3.212  0.1922  0.0287 -0.2313
19486W        W32900  14.400  16.991  12.484 -0.0456  0.0700  0.1320
19487W        W32901   3.588  16.148  10.969 -0.0447  0.1020  0.1443
19488W        W32902   1.008   4.256   1.886  0.1873  0.0755  0.3706
19489W        W32903   5.395  15.360  15.736 -0.0553 -0.0089 -0.0613
19490W        W32904  17.757  13.631   5.306 -0.2204  0.2943  0.2525
19491W        W32905   7.560  16.954   2.792 -0.0653 -0.1015 -0.0787
19492W        W32906  14.538   6.428   2.170 -0.2510 -0.0624 -0.0635
19493W        W32907  16.239  12.747  11.849 -0.0354  0.4312 -0.0711
19494W        W32908   2.156  18.088  13.142 -0.1835  0.0086  0.0923
19495W        W32909  15.914   2.465   1.046 -0.2072 -0.0086 -0.3633
19496W        W32910   4.022   2.741   0.818 -0.1232 -0.1594  0.0178
19497W        W32911   6.739   0.356   3.235  0.2010  0.4081 -0.0332
19498W        W32912   3.319   2.075   2.010  0.2983  0.0422 -0.0724
19499W        W32913   4.254  15.836  16.207 -0.0423 -0.0603 -0.0716
19500W        W32914   6.936   4.961  16.341 -0.1078 -0.1172 -0.1227
19501W        W32915   6.671  15.732  15.226 -0.4308 -0.1079  0.3594
19502W        W32916   2.836   2.528   4.532  0.0573  0.2836 -0.3075
19503W        W32917   2.679   3.924  15.423 -0.0333  0.0562  0.1124
19504W        W32918  16.736   2.166  10.702  0.1856  0.1248  0.2007
19505W        W32919   3.943   5.485  13.194  0.2139 -0.4768  0.0741
19506W        W32920   4.114  10.957   3.699  0.1935  0.0539 -0.1433
19507W        W32921  11.270   6.940  15.898  0.3217  0.1356 -0.1699
19508W        W32922   2.310   0.318  13.169  0.0242  0.0634 -0.0875
19509W        W32923  16.871   7.783   2.668  0.0718  0.3335  0.1399
19510W        W32924   1.030   4.463  11.674  0.1932 -0.1754  0.0030
19511W        W32925   0.379   4.277  12.929  0.0573 -0.0172 -0.4796
19512W        W32926  18.007   7.386   3.974  0.0975  0.1389 -0.1601
19513W        W32927  11.620   5.053  13.636 -0.3155 -0.1318 -0.0006
19514W        W32928   8.029   6.992   3.935 -0.0262 -0.1734  0.0357
19515W        W32929   3.651   9.072  12.412  0.3718 -0.0210  0.0430
19516W        W32930  15.203   3.014   1.186 -0.0041  0.2999  0.1923
19517W        W32931  15.779   5.363   3.765 -0.0854  0.1313 -0.2836
19518W        W32932   6.799   9.885   3.529 -0.1198  0.0887 -0.0519
19519W        W32933   8.827   3.854  13.872  0.1447  0.1122  0.0940
19520W        W32934   8.573  16.067   3.503 -0.0771  0.3613  0.1942
19521W        W32935   5.537  10.104   1.711 -0.4102  0.2559  0.2147
19522W        W32936   8.303  11.993  12.183 -0.0353 -0.0138 -0.1511
19523W        W32937  15.323   8.412  11.173 -0.3175  0.0989  0.0426
19524W        W32938  12.031  14.527   4.145  0.2357  0.0031 -0.1569
19525W        W32939  15.919  15.602  11.635  0.1303  0.1684  0.0351
19526W        W32940   0.607   3.473   4.617 -0.0126  0.0738 -0.2432
19527W        W32941   0.830  16.883   0.394 -0.0160  0.0719  0.0349
19528W        W32942  12.933   4.331  14.777 -0.0517 -0.1680 -0.1319
19529W        W32943   5.122   4.268   0.665 -0.2408 -0.2237 -0.1484
19530W        W32944  11.962   3.213   5.015  0.0223  0.2780 -0.1696
19531W        W32945   8.962   1.026  10.810 -0.0973 -0.0585  0.2548
19532W        W32946   4.676   2.445  15.187 -0.0847  0.0024 -0.2640
19533W        W32947   0.030   5.699  12.327  0.0393 -0.2534 -0.0770
19534W        W32948  12.207  13.087  11.659  0.1366  0.1169  0.1182
19535W        W32949   5.659  15.168   4.933 -0.0016  0.0636 -0.3612
19536W        W32950   4.606   2.025  15.654  0.0923 -0.1372  0.3557
19537W        W32951   0.039  16.244  10.638 -0.2620  0.2308  0.1935
19538W        W32952  10.131   4.595  12.565  0.0998  0.2436  0.0144
19539W        W32953   0.388   5.786   3.143 -0.0101 -0.1053  0.0943
19540W        W32954  13.747   4.138  13.781 -0.1044  0.1454  0.0858
19541W        W32955   7.258   0.355   0.306 -0.0678 -0.1160  0.1685
19542W        W32956   3.770   7.534  12.118  0.1134 -0.0606  0.1433
19543W        W32957   8.548   9.261  10.350  0.0688 -0.0537  0.1557
19544W        W32958   7.731   4.592  13.732 -0.1616 -0.0231 -0.1230
19545W        W32959   3.071   1.822  14.696  0.2817  0.1772 -0.0428
19546W        W32960   9.104  15.434  10.696  0.1727 -0.0239  0.0767
19547W        W32961   0.934  14.232  12.606 -0.0734  0.0110 -0.1216
19548W        W32962   4.511   4.975  13.067  0.2343  0.0461 -0.0071
19549W        W32963  16.305   9.327   2.315 -0.1422 -0.1162  0.0394
19550W        W32964   2.847  17.520   4.934 -0.0416 -0.0239  0.0344
19551W        W32965   1.817  13.130  15.252 -0.0180  0.2681  0.1156
19552W        W32966  13.603   1.612   0.755 -0.0329  0.1888 -0.0639
19553W        W32967   0.577   4.564   1.980  0.1131  0.1632  0.1837
19554W        W32968   3.600  10.547   4.044  0.0398 -0.0577  0.1559
19555W        W32969   1.467   7.235   6.040 -0.3416  0.1453  0.0606
19556W        W32970  13.399  13.837  14.944  0.3402 -0.0729 -0.1400
19557W        W32971  13.713   2.815  11.313  0.0546  0.0360  0.1896
19558W        W32972  17.682   5.407   1.534 -0.0736  0.0049  0.1729
19559W        W32973  15.378   8.967  13.202  0.2664  0.1711  0.0431
19560W        W32974   0.907   0.802   2.547 -0.0668  0.0939  0.6033
19561W        W32975  13.048   5.064   4.712  0.0726 -0.6184 -0.0399
19562W        W32976  14.365   3.159   1.464 -0.0011  0.1357  0.1045
19563W        W32977   8.830   6.646   3.747  0.3212 -0.0094  0.0915
19564W        W32978   6.448   2.015  14.880  0.2051 -0.1445  0.0334
19565W        W32979  17.622  18.113   1.681  0.2534 -0.0744 -0.1574
19566W        W32980   2.326   5.888   6.144 -0.2347  0.1105  0.0339
19567W        W32981   3.320   3.180  13.219  0.1891 -0.0452 -0.1846
19568W        W32982  13.750   6.747  12.580  0.1411 -0.1466 -0.1400
19569W        W32983  17.345   9.462   1.103  0.1551 -0.1502  0.1324
19570W        W32984  14.035  11.162   3.147 -0.0380  0.1065 -0.0755
19571W        W32985  10.602  15.700   4.487 -0.3134  0.0159  0.1378
19572W        W32986   7.752   7.161   4.450 -0.1997  0.2204  0.0996
19573W        W32987   5.973   3.107   1.232  0.0198  0.1244 -0.0702
19574W        W32988   1.241  10.494  13.184  0.2559 -0.0918  0.2492
19575W        W32989   8.698   3.136   1.122 -0.2410 -0.0871  0.0484
19576W        W32990   9.151   1.219   2.403 -0.1298  0.2712  0.2346
19577W        W32991   6.067  10.381  14.090 -0.1896  0.1506 -0.3078
19578W        W32992   9.740   3.849   5.385 -0.2306 -0.0565  0.1150
19579W        W32993  13.497   4.643   4.817  0.1145  0.2879 -0.0358
19580W        W32994  14.205   7.342  16.352  0.3092  0.0249  0.1347
19581W        W32995  13.072  17.695  15.017  0.0783  0.1088  0.1814
19582W        W32996  10.683   7.724  12.838  0.0773  0.1875  0.1851
19583W        W32997  17.484   0.502   3.546 -0.0298  0.1192 -0.2643
19584W        W32998   2.859   9.035   4.669  0.2103  0.0618 -0.0338
19585W        W32999  10.936  13.315   1.864  0.3040 -0.1868 -0.0177
19586W        W33000  11.865   4.927   2.620 -0.0361 -0.0707  0.0939
19587W        W33001   5.925  17.491  10.808  0.0257 -0.1383  0.2388
19588W        W33002   7.417  16.378  15.015  0.0971  0.4964  0.5075
19589W        W33003  15.474   8.138  12.848 -0.1281  0.1895  0.1230
19590W        W33004  17.482   0.574  16.270 -0.1162 -0.3381  0.0789
19591W        W33005   5.668   0.466   4.899  0.0953 -0.1814 -0.0500
19592W        W33006   0.158  11.328  11.421 -0.1610  0.0367  0.2962
19593W        W33007   0.580   0.073   5.795 -0.0883 -0.1666 -0.2506
19594W        W33008  18.148  15.744   2.657  0.2262  0.0171  0.0177
19595W        W33009   5.368   9.065   1.277  0.0359 -0.0812 -0.0297
19596W        W33010  13.658  15.369   3.093 -0.0564  0.1709 -0.2141
19597W        W33011   4.640   7.874   6.138  0.0654  0.0599 -0.0125
19598W        W33012   0.669   8.341  14.406  0.0402 -0.2094 -0.1241
19599W        W33013  15.562   6.683   3.703 -0.1720 -0.2468  0.3586
19600W        W33014  11.491  15.629  15.013 -0.0234  0.4243  0.2986
19601W        W33015  18.112   7.432   1.241 -0.2649  0.1105  0.0939
19602W        W33016   6.815  13.785  10.951 -0.1034 -0.0771 -0.0254
19603W        W33017  14.688   0.707  13.388 -0.0681  0.0440 -0.0172
19604W        W33018   2.429   8.628  11.606  0.1021  0.1745 -0.1739
19605W        W33019   1.495   6.229   0.341 -0.1010  0.0721 -0.2830
19606W        W33020   6.595   9.606   1.177 -0.2052 -0.0086  0.2182
19607W        W33021   2.350   2.823  13.214  0.0282 -0.1059 -0.0521
19608W        W33022  12.075  14.711   2.229 -0.0305 -0.2322 -0.0135
19609W        W33023   0.438   5.693  10.952  0.0688 -0.2949 -0.2960
19610W        W33024   1.280  11.494  10.843  0.1914  0.0224 -0.1819
19611W        W33025  14.700  11.907   2.013 -0.0593  0.1075 -0.0304
19612W        W33026  12.229  10.445  13.414  0.3504  0.1540 -0.0943
19613W        W33027  13.971  11.865   5.142 -0.1582  0.3384 -0.1834
19614W        W33028   7.915   3.474   0.326 -0.1470  0.1713 -0.2612
19615W        W33029   5.320  17.805   0.659  0.1291  0.0515  0.1684
19616W        W33030  13.347   1.730   4.453 -0.0034 -0.1143 -0.2462
19617W        W33031  12.754   8.181  13.500  0.0494  0.2722  0.0772
19618W        W33032  18.048  14.950   5.290 -0.2075  0.1300  0.1468
19619W        W33033   9.217   7.966  16.171  0.4273  0.1373 -0.1167
19620W        W33034  10.015  13.678  11.257  0.3655  0.1600  0.3039
19621W        W33035  15.707   7.777   5.592 -0.2441  0.0611  0.0594
19622W        W33036   7.134   8.982   0.113 -0.1673 -0.2796  0.2305
19623W        W33037   3.650  18.240  15.497 -0.3431  0.2277  0.0742
19624W        W33038  13.291  14.720  14.246  0.1163  0.2477 -0.1080
19625W        W33039   2.573   1.501  12.529  0.2584 -0.2148 -0.0422
19626W        W33040   1.148   5.337  13.982 -0.0657 -0.0424  0.2079
19627W        W33041   1.608  12.558  15.069 -0.0209 -0.1228 -0.2822
19628W        W33042   4.653  13.515   1.402  0.0750 -0.1369 -0.0824
19629W        W33043  17.228  11.970   0.568 -0.1529  0.1050 -0.4442
19630W        W33044   3.976   7.116  11.279 -0.2606 -0.1478  0.0199
19631W        W33045   6.046  17.776   5.720 -0.0704 -0.3542  0.0661
19632W        W33046   5.396  15.343  12.784  0.0210 -0.1985  0.2163
19633W        W33047   6.143   5.572   2.573 -0.1993  0.0256  0.1529
19634W        W33048   6.436  16.481  13.705  0.1077 -0.2525 -0.0575
19635W        W33049  16.991   4.566   2.833 -0.2542 -0.0777 -0.2609
19636W        W33050  14.050  18.059  15.440  0.0217 -0.2618  0.0841
19637W        W33051   6.488   2.890   2.143  0.0287  0.1096 -0.4181
19638W        W33052  12.236  16.386  11.004  0.1326 -0.1253 -0.1256
19639W        W33053  17.498  13.079   0.497  0.0015 -0.1733  0.1042
19640W        W33054   5.446   7.381   3.624 -0.0171  0.1163 -0.2396
19641W        W33055   2.437   6.832  14.384  0.1842 -0.2108  0.2008
19642W        W33056   9.369   2.111  11.620  0.0774  0.2697 -0.1085
19643W        W33057   1.959   2.148  13.936 -0.2346 -0.0829  0.2498
19644W        W33058  16.859   9.220   1.090 -0.3841 -0.1577  0.0957
19645W        W33059   7.543   4.682  14.679  0.3258  0.1785  0.1351
19646W        W33060   7.580   8.276  14.890 -0.2067  0.0511  0.0864
19647W        W33061   2.097   9.273   0.956  0.0195 -0.0831 -0.1156
19648W        W33062   3.424   2.770  14.879  0.1722 -0.1525 -0.0766
19649W        W33063  11.224   3.908  12.849  0.3376 -0.0664  0.2174
19650W        W33064  13.665  15.138   2.665  0.2386 -0.0119 -0.0339
19651W        W33065   6.519   6.987   3.545  0.1369 -0.1365  0.1508
19652W        W33066   2.867   2.537  13.934 -0.1859  0.0660  0.1987
19653W        W33067   8.431   8.474   3.312  0.3444 -0.1152 -0.0760
19654W        W33068  18.073   4.335  14.399  0.1498  0.0422 -0.3044
19655W        W33069   5.034  15.811   3.278  0.0664  0.0864 -0.1115
19656W        W33070  13.700   5.537  12.918 -0.1070  0.3935 -0.2648
19657W        W33071  10.947  15.725  15.018 -0.0252  0.1035 -0.0231
19658W        W33072  17.583  14.080  16.331 -0.3295  0.3868  0.0375
19659W        W33073  18.079   8.809  14.988  0.0003  0.0436 -0.1439
19660W        W33074   4.921  14.830   2.889  0.0977  0.0543 -0.1240
19661W        W33075   3.177   8.803  13.801  0.2201 -0.1024 -0.3674
19662W        W33076  12.139  11.159   4.000  0.0565  0.0467  0.0132
19663W        W33077   0.271   2.272   3.358  0.0237 -0.0954 -0.1743
19664W        W33078   7.603   5.462  16.415 -0.1885  0.1232 -0.2358
19665W        W33079  11.199  11.874  13.942 -0.1866 -0.2153  0.1779
19666W        W33080   2.323  13.554   1.879  0.2357  0.2719  0.2002
19667W        W33081   0.398  11.153   4.528 -0.1431 -0.3421  0.4997
19668W        W33082   1.120   4.736  14.811 -0.1853  0.0752 -0.0327
19669W        W33083   1.039  18.157  16.204 -0.0269 -0.2450  0.0292
19670W        W33084   4.221   3.586  12.295  0.4574 -0.4292  0.0698
19671W        W33085  16.011  16.670  15.140  0.2889  0.1978 -0.2686
19672W        W33086  13.529  15.814  16.094 -0.2410 -0.1572 -0.1203
19673W        W33087   1.490   3.604   2.331  0.0895  0.1457 -0.2980
19674W        W33088  11.063   9.031   5.107  0.2191 -0.1375 -0.0710
19675W        W33089  14.141   8.290   5.460 -0.2131 -0.3017  0.2721
19676W        W33090  11.368   7.338   2.065 -0.1248 -0.2392  0.0362
19677W        W33091   0.740   0.184   4.009  0.0947 -0.1426 -0.1676
19678W        W33092   5.023   4.797   5.625 -0.1681  0.4692  0.0054
19679W        W33093   3.392  11.506   1.847  0.2114  0.0512  0.0425
19680W        W33094   0.858  15.167   2.365  0.1665  0.3032  0.1106
19681W        W33095   4.034   8.943   2.856  0.1603 -0.2502  0.0757
19682W        W33096   2.299   7.713   4.717 -0.0518 -0.3744 -0.3107
19683W        W33097   0.448   7.447  12.342  0.1383 -0.1031  0.1654
19684W        W33098  10.472  11.979  11.272  0.1395 -0.0187  0.1746
19685W        W33099  17.038   6.392   0.912 -0.0813  0.0771  0.1057
19686W        W33100   0.475   9.754  16.391  0.0379  0.0735 -0.0144
19687W        W33101   9.214   8.216   0.979  0.1673  0.1473 -0.2565
19688W        W33102   3.571  13.725  11.018  0.0549  0.2528 -0.0906
19689W        W33103   0.998  12.524  15.564  0.0010  0.2336 -0.1451
19690W        W33104   2.313  10.208   6.108  0.0727  0.2193 -0.1932
19691W        W33105  16.735  14.731  12.278  0.2223 -0.1157  0.1404
19692W        W33106  11.540  16.483  13.135 -0.0968 -0.2296  0.3339
19693W        W33107  10.336  12.579   1.385 -0.0789 -0.0762  0.0012
19694W        W33108   8.742  17.891  15.084  0.0407  0.3444 -0.0876
19695W        W33109   5.141   5.584  15.043  0.0851  0.1665  0.2705
19696W        W33110   9.941  10.476   3.557  0.0498  0.1674 -0.2564
19697W        W33111   6.533  18.256  14.673 -0.2330  0.0522 -0.1836
19698W        W33112   8.962  13.388  12.452  0.0965 -0.0786 -0.0557
19699W        W33113  14.091  10.207  14.635 -0.2186 -0.0482 -0.0863
19700W        W33114   3.572  11.423   3.094  0.1710  0.2879  0.0584
19701W        W33115  13.014  16.307  13.467  0.0415 -0.0167 -0.0821
19702W        W33116   6.580  16.244  15.054  0.0453 -0.1431 -0.0915
19703W        W33117   8.759   9.276   0.355 -0.0440  0.0247 -0.1370
19704W        W33118  10.758   1.360   2.299 -0.0967 -0.0309 -0.1957
19705W        W33119   0.985  17.899  13.790 -0.0701  0.1167  0.0071
19706W        W33120  16.459   3.063  10.418  0.3133  0.1533 -0.0167
19707W        W33121   2.810   5.818   1.776  0.2260 -0.0392  0.1392
19708W        W33122   2.813   6.278   5.188  0.0541  0.0549 -0.0200
19709W        W33123  12.362  13.831  11.368 -0.0309  0.2104  0.0352
19710W        W33124   8.820   4.896   0.037  0.0139  0.3117 -0.0951
19711W        W33125   4.682   0.466   3.778 -0.0882 -0.1061 -0.0044
19712W        W33126  16.959   3.745   1.712 -0.3999 -0.0952  0.3134
19713W        W33127   4.035  14.320  13.901  0.0706 -0.0341 -0.0553
19714W        W33128   6.274   8.901  11.718 -0.0932 -0.1305 -0.0194
19715W        W33129   4.431   9.473   6.109 -0.1153 -0.0357  0.0454
19716W        W33130  17.352   0.178   1.045  0.0767  0.0823  0.3137
19717W        W33131   4.457   7.446  15.758 -0.0135 -0.3167  0.0697
19718W        W33132  17.286   1.621  13.239 -0.1487 -0.2974  0.0832
19719W        W33133   7.277  18.084   5.156 -0.0401 -0.0597  0.0688
19720W        W33134  14.380   4.192  11.918 -0.1279 -0.2449  0.1654
19721W        W33135  14.308   6.075  12.218 -0.1205  0.2175  0.0238
19722W        W33136   4.934  10.937   2.832 -0.2169  0.0573  0.2032
19723W        W33137   0.245   0.716  14.156  0.2758  0.1524  0.0592
19724W        W33138   6.882   5.193  13.608 -0.0637 -0.0538  0.0320
19725W        W33139  14.920  10.293   0.551  0.0676 -0.0045 -0.1275
19726W        W33140   1.259  16.355  11.685  0.0156  0.1736 -0.0092
19727W        W33141  16.683   2.621   2.332 -0.0508  0.0912 -0.3584
19728W        W33142   4.406  10.562   1.511  0.3193 -0.1180 -0.2670
19729W        W33143  16.713  10.236   0.666 -0.0286  0.0919 -0.0033
19730W        W33144   1.733   7.671  13.765  0.0726  0.2275 -0.1570
19731W        W33145  16.164   2.440   2.565  0.1738 -0.2446 -0.1670
19732W        W33146   6.573   9.400   5.784  0.0290  0.4008  0.1538
19733W        W33147  14.656  14.725  14.352 -0.2105  0.0315 -0.1813
19734W        W33148   1.238  12.962  15.239 -0.4212 -0.2969 -0.2566
19735W        W33149   6.363  11.766  13.526 -0.2178  0.2458 -0.0194
19736W        W33150  12.633  12.092   2.590  0.0524 -0.0337  0.1040
19737W        W33151   7.538  10.563   1.293  0.0818 -0.1534 -0.0450
19738W        W33152   9.598   1.485   5.071 -0.3563 -0.1980  0.1489
19739W        W33153   5.168  15.276  10.746  0.1824  0.2166 -0.0113
19740W        W33154   4.823  16.882  11.449 -0.1238  0.1584  0.1266
19741W        W33155  13.996   9.932   2.453 -0.0806  0.2198 -0.0980
19742W        W33156  10.638   6.456  10.378  0.3477  0.1063 -0.0440
19743W        W33157  14.322   2.387  14.940 -0.1440  0.4262 -0.5065
19744W        W33158  10.154   1.295  16.413  0.0768  0.1384 -0.0757
19745W        W33159   1.317  12.579  14.058  0.1318 -0.0428 -0.0791
19746W        W33160  15.036   1.645  11.133  0.1330  0.0855  0.1631
19747W        W33161  12.610   9.061   2.513 -0.1440  0.1430  0.1762
19748W        W33162  17.457   0.962   0.985  0.0416 -0.0606 -0.1099
19749W        W33163  11.475  17.688  11.704  0.2923  0.0810 -0.1133
19750W        W33164   8.273  17.784  11.671 -0.1308 -0.1965  0.1069
19751W        W33165   5.110   4.478   2.901  0.0862 -0.0502 -0.0300
19752W        W33166  15.724  16.307   0.567 -0.0522 -0.1244 -0.1498
19753W        W33167  12.123  11.172   2.396 -0.0925 -0.0482 -0.0515
19754W        W33168  17.468   1.680   2.324 -0.0368 -0.1433 -0.1556
19755W        W33169   2.356   7.565  11.591 -0.3074 -0.0532  0.0860
19756W        W33170  13.250  14.618  15.155  0.0479  0.2803  0.0392
19757W        W33171   4.516   4.858  15.624  0.2019 -0.1375  0.1865
19758W        W33172  11.972  17.346   3.926 -0.1551 -0.1388 -0.3750
19759W        W33173   2.228   1.607   2.156  0.0836  0.2601 -0.0559
19760W        W33174   7.834  15.867   5.233  0.2400 -0.2398  0.0879
19761W        W33175   7.922   2.047   3.470  0.2120  0.1165 -0.1785
19762W        W33176  12.577  17.480  13.689  0.1529  0.1547 -0.0932
19763W        W33177  11.474  11.170   4.542 -0.0164  0.0093 -0.2004
19764W        W33178   6.902   1.406   4.381  0.0213  0.2557  0.1180
19765W        W33179  13.433  17.154   4.019  0.1008 -0.1579  0.1196
19766W        W33180  14.314  12.280  13.563 -0.3255 -0.0724  0.1952
19767W        W33181  16.376  15.619  14.016  0.0058  0.0639  0.0653
19768W        W33182  14.415  18.007  11.858 -0.1110 -0.0447  0.3462
19769W        W33183   7.303  14.326  10.127 -0.2551  0.3141  0.0206
19770W        W33184   7.438   0.930   1.425 -0.0952 -0.0582  0.2790
19771W        W33185  17.337   2.955   2.920  0.1456  0.0491 -0.2412
19772W        W33186   1.028   5.150   1.282  0.0951 -0.2300  0.0509
19773W        W33187   9.396   6.239  12.922  0.2693  0.1021 -0.1503
19774W        W33188  13.773  16.862   0.847 -0.1520  0.1097 -0.2827
19775W        W33189   8.516   6.787   3.149 -0.2049 -0.3984 -0.2843
19776W        W33190  17.674  10.659  12.099 -0.1976  0.0509 -0.3687
19777W        W33191   8.740  16.549   0.177 -0.0475 -0.0137 -0.1229
19778W        W33192   3.929  11.196  10.399 -0.1638 -0.0465 -0.1075
19779W        W33193  13.209  14.419  11.175 -0.0607 -0.0889 -0.0504
19780W        W33194   7.600   3.183  15.399  0.2500 -0.1479  0.3666
19781W        W33195   6.991   2.460   3.801  0.1525 -0.5464 -0.0740
19782W        W33196   9.740  12.504  10.986  0.0437 -0.1396  0.4147
19783W        W33197   1.320  16.614   4.229 -0.5654 -0.2864  0.1456
19784W        W33198  18.094   7.356  11.660  0.1917 -0.3196  0.1382
19785W        W33199  13.848   0.936  12.274 -0.0848 -0.0177 -0.1705
19786W        W33200  16.881   1.701  10.922 -0.1151 -0.2341  0.0002
19787W        W33201   5.016   2.171   0.859  0.1334  0.1408 -0.0662
19788W        W33202  13.917   2.091   9.929  0.0020  0.0101  0.2415
19789W        W33203   6.315  13.369   0.491 -0.0657 -0.0564 -0.2153
19790W        W33204  16.865  17.659   1.299 -0.0595 -0.0796  0.0277
19791W        W33205  10.968   7.158   5.403  0.2446  0.3447  0.1863
19792W        W33206  14.625   7.035   5.149 -0.3035  0.0838 -0.1106
19793W        W33207   0.592   5.115  10.481  0.0898  0.2842 -0.0325
19794W        W33208   0.091  16.916   3.071  0.1769 -0.1501 -0.1143
19795W        W33209   7.695   6.689   4.261 -0.0128  0.2233 -0.0859
19796W        W33210  10.453   5.693   1.034 -0.2630 -0.0558 -0.2254
19797W        W33211   8.074   9.208  13.005  0.0591 -0.2183 -0.1547
19798W        W33212  14.565   1.241  12.224 -0.0579  0.2222  0.0753
19799W        W33213  12.238   4.228   0.598 -0.1216  0.1982  0.0896
19800W        W33214   7.958  13.906   2.934  0.0957 -0.0573  0.1777
19801W        W33215   1.999  17.562  13.922  0.3063  0.0528 -0.0726
19802W        W33216   6.904  12.730   1.857  0.1364 -0.2170  0.0575
19803W        W33217  12.030  10.303  12.260 -0.4190  0.1959  0.0174
19804W        W33218  11.177   9.106  12.526 -0.0022  0.0155 -0.0500
19805W        W33219  18.105   5.197   0.282  0.2145  0.1062  0.0929
19806W        W33220   4.353  11.283  14.112 -0.1677 -0.1725  0.0558
19807W        W33221  11.828   2.733   5.690  0.0993  0.0451  0.3241
19808W        W33222   2.035   1.928   0.692 -0.1132  0.2421 -0.1569
19809W        W33223   3.953   0.152  14.592 -0.2676  0.1831  0.1890
19810W        W33224  15.794   6.485  13.488  0.2820 -0.1678  0.1318
19811W        W33225   8.021  15.448  14.095 -0.1983  0.1098  0.2023
19812W        W33226   4.103   8.513   3.796 -0.0317 -0.3023 -0.2179
19813W        W33227   3.116   5.664  15.822  0.2646  0.0351  0.2373
19814W        W33228   5.205   1.511  14.551  0.1192  0.1390 -0.0970
19815W        W33229   8.559  10.734   1.352  0.6711  0.0556 -0.0770
19816W        W33230  10.058   3.111  12.130  0.0061 -0.0258  0.1111
19817W        W33231   5.882   1.474  15.704 -0.1973  0.1417 -0.0253
19818W        W33232   4.632  15.992   5.014 -0.2040  0.0856 -0.1015
19819W        W33233  10.224  16.409   0.205 -0.1651  0.4749 -0.2528
19820W        W33234  14.696   9.212  13.213 -0.0224  0.2498 -0.3075
19821W        W33235  11.789  15.662   5.458  0.1494  0.1184 -0.1876
19822W        W33236   3.801   6.382   1.996  0.1239  0.1939  0.1286
19823W        W33237  13.351   5.760   0.979 -0.2002  0.3180 -0.1455
19824W        W33238  15.605  11.795  12.501  0.2675 -0.3196  0.0698
19825W        W33239   8.919  17.782  10.837  0.3767  0.2333 -0.0343
19826W        W33240  15.165  14.283   4.831 -0.1420 -0.0288 -0.4172
19827W        W33241   5.341   9.625  16.466  0.0202  0.0471  0.3527
19828W        W33242   3.257   7.827  10.867  0.1049  0.2886 -0.2413
19829W        W33243   7.352   4.215   4.302  0.0765  0.0175 -0.1502
19830W        W33244  13.363   2.124   3.134 -0.3866  0.1857 -0.0563
19831W        W33245   1.535   1.288  11.706 -0.0952 -0.0882  0.2536
19832W        W33246  14.537   2.222   1.574 -0.0339 -0.1796 -0.1161
19833W        W33247  17.633   9.866  12.550  0.1502 -0.1019 -0.2463
19834W        W33248   0.300  13.189   1.952  0.3086  0.1332  0.0404
19835W        W33249   1.065   1.194   2.788 -0.0650  0.1665 -0.2286
19836W        W33250  17.873   7.030   4.944 -0.2201 -0.0323 -0.0301
19837W        W33251   1.709   6.821   4.899  0.0669 -0.2406 -0.0194
19838W        W33252   4.699   5.304  13.454  0.2355  0.3368 -0.2685
19839W        W33253  18.035  11.058  11.993 -0.0647 -0.0012  0.1239
19840W        W33254   9.132  14.103   5.558  0.3568 -0.1871 -0.1818
19841W        W33255  11.672   7.920   4.908  0.3845 -0.1535  0.0950
19842W        W33256   8.994  17.994  10.392 -0.1512  0.2509 -0.1057
19843W        W33257   3.974  14.026   2.529 -0.1798 -0.1109 -0.0218
19844W        W33258   4.135  15.309   4.836  0.0171 -0.0625  0.3189
19845W        W33259  16.717  15.429  11.657 -0.0842 -0.2039 -0.1612
19846W        W33260   5.811  11.577   5.682  0.1668 -0.0544 -0.1277
19847W        W33261   2.542   9.261   6.134  0.2955 -0.2238  0.1169
19848W        W33262  12.185   9.069   2.772 -0.2452 -0.1674  0.0558
19849W        W33263  16.347  15.517  11.299 -0.1233  0.0555 -0.0657
19850W        W33264   9.447   6.106   3.277  0.0672  0.0290 -0.2897
19851W        W33265  16.698   0.744   2.087  0.2742  0.0008 -0.0569
19852W        W33266   4.285   3.266  11.903  0.2202  0.0574  0.0361
19853W        W33267  17.672   8.340   1.192 -0.0332  0.1360  0.2362
19854W        W33268  17.672   5.340  15.314  0.1179 -0.0520 -0.2446
19855W        W33269  15.189   1.916  10.626 -0.0574 -0.0999  0.0758
19856W        W33270  10.426   9.148   3.097  0.1005 -0.1583  0.1260
19857W        W33271  16.904   3.664   3.365  0.1672 -0.0185  0.1111
19858W        W33272  12.488   5.571  13.939 -0.1431  0.2376  0.1399
19859W        W33273   1.826  17.194   0.656 -0.1401 -0.0680  0.1228
19860W        W33274   3.094   2.393   5.929 -0.0266  0.0100  0.1625
19861W        W33275  13.881   5.234  13.296  0.0332  0.0982  0.0072
19862W        W33276   9.337   5.613  11.381  0.0906  0.0649  0.1238
19863W        W33277   9.014   2.652  14.877 -0.1905  0.1776  0.2204
19864W        W33278  13.522   1.466  15.581  0.2863 -0.0524 -0.3302
19865W        W33279  13.461  15.781  12.467 -0.0464  0.0109  0.2630
19866W        W33280   1.829   7.906  16.131 -0.0879  0.1187  0.0987
19867W        W33281   4.151   4.084  14.207 -0.1179  0.0192 -0.0655
19868W        W33282   8.139   1.469   1.351  0.0314 -0.3702 -0.0722
19869W        W33283   5.767   9.952  13.303  0.1510 -0.0150 -0.2389
19870W        W33284   0.076   1.012   1.651  0.1225 -0.1024  0.1068
19871W        W33285  14.833   6.441   0.801  0.1299  0.2293 -0.0240
19872W        W33286  15.182   8.027  11.922  0.0145  0.1704 -0.2440
19873W        W33287  12.459   9.396  15.392  0.0589 -0.0838  0.1524
19874W        W33288  10.368  14.143  14.475 -0.1947  0.2443 -0.0923
19875W        W33289   4.852   9.198   1.345  0.1662  0.2263  0.2288
19876W        W33290   0.931  11.152   4.973 -0.0087 -0.0057 -0.1746
19877W        W33291  11.740   3.454   0.895  0.1492 -0.0817  0.1069
19878W        W33292  17.977   3.344  13.710  0.0694  0.1743  0.1518
19879W        W33293   6.313   3.604  10.748  0.0941  0.0369  0.0629
19880W        W33294   6.298  11.740   2.978  0.1468  0.0434  0.1053
19881W        W33295  12.373  17.040   0.493  0.0883 -0.0696  0.1100
19882W        W33296   5.586  16.681   2.686 -0.4090  0.0076  0.0322
19883W        W33297   1.843  14.993   2.190 -0.0888 -0.4368  0.2703
19884W        W33298  17.372  17.630   4.102  0.0548  0.0420 -0.1221
19885W        W33299   6.532   4.433  12.239  0.2401  0.2011 -0.2357
19886W        W33300   7.038   9.036  15.673 -0.0652 -0.0920 -0.0841
19887W        W33301   4.092   2.431   3.289  0.0093 -0.4039  0.1923
19888W        W33302   5.343   0.259  13.834  0.0657  0.0109 -0.2807
19889W        W33303  12.393  12.673   0.749  0.0864 -0.1419  0.0398
19890W        W33304  13.450   7.419   1.797  0.0040 -0.2226  0.3012
19891W        W33305   1.152  10.061  16.280 -0.1149 -0.1030  0.4018
19892W        W33306   6.583   9.449   3.362 -0.1035 -0.0654  0.0737
19893W        W33307  11.324  12.711   9.998  0.1049 -0.0263 -0.0320
19894W        W33308  12.640  15.164  15.355  0.1698  0.0447 -0.3408
19895W        W33309  11.426   6.755   2.830  0.0086  0.1048  0.0190
19896W        W33310  18.110   6.840  13.783  0.0883 -0.0413  0.1295
19897W        W33311  16.952   6.464   5.146 -0.2772  0.0272 -0.0497
19898W        W33312   2.236   2.131   1.222 -0.0640  0.0411  0.2097
19899W        W33313  16.398   0.520   1.724 -0.2281  0.2368  0.1446
19900W        W33314   4.195  12.952   4.933 -0.3191 -0.1207 -0.1312
19901W        W33315   8.933  12.054   1.430  0.2049  0.1209 -0.3365
19902W        W33316  17.804   0.028   5.819  0.1459 -0.2513  0.0410
19903W        W33317   0.458  16.255  10.990 -0.0024  0.1869  0.2663
19904W        W33318   7.240  10.557  14.417 -0.0056  0.1186 -0.3452
19905W        W33319  16.956   5.290  10.421  0.0559  0.0234 -0.0717
19906W        W33320   6.452   8.429   4.224 -0.1285  0.2138 -0.0779
19907W        W33321  15.316   9.490  15.532 -0.0833  0.0010  0.0855
19908W        W33322  16.989   0.786   0.703 -0.0119  0.0717 -0.0371
19909W        W33323   0.781  18.087  12.547  0.1030 -0.0552 -0.0717
19910W        W33324   2.404  10.902   2.709 -0.0178 -0.2531 -0.2101
19911W        W33325   2.101  13.852  12.446  0.1018 -0.3321  0.2146
19912W        W33326  13.063  10.160   5.724 -0.0128  0.3081 -0.0720
19913W        W33327   9.255   8.185  13.944  0.1683 -0.0870 -0.0676
19914W        W33328   7.892  14.703   0.521  0.1947 -0.1501 -0.0613
19915W        W33329  13.820   4.030   4.328  0.1366 -0.3045 -0.1139
19916W        W33330  15.410   9.018   5.308 -0.1130 -0.3010  0.1541
19917W        W33331  15.321  14.101  11.570  0.0502  0.0142  0.0454
19918W        W33332   8.477   9.489  16.454 -0.1748  0.0322  0.1875
19919W        W33333  11.102  11.517  11.721 -0.2630  0.1749  0.1221
19920W        W33334  10.816  12.541   1.459 -0.0479 -0.0683 -0.0814
19921W        W33335   7.427  16.497   2.592  0.1401 -0.3601  0.0069
19922W        W33336  10.884   0.182  15.653  0.2727  0.0027  0.0669
19923W        W33337   2.726  12.509   2.601  0.1168  0.4041  0.1013
19924W        W33338  18.196   7.500  12.166 -0.1638  0.0257 -0.4134
19925W        W33339  14.475  10.530  10.892  0.2569  0.0461 -0.2679
19926W        W33340   5.916   3.739  15.055 -0.2802  0.1678 -0.0810
19927W        W33341  16.622   6.307   4.194  0.0656  0.2887  0.1156
19928W        W33342   9.259   3.523   2.817  0.1427  0.1754 -0.1849
19929W        W33343   2.236  10.778   2.025 -0.2077  0.2558  0.0966
19930W        W33344   7.952  17.075  10.396 -0.1779  0.1377  0.2472
19931W        W33345   2.831   3.189   4.259  0.1289  0.0065 -0.1003
19932W        W33346   1.940  12.319   6.801 -0.0706 -0.1069 -0.0076
19933W        W33347   2.634   9.399   1.765 -0.0722  0.2575  0.4055
19934W        W33348  16.005   6.173  13.158 -0.2847 -0.0639 -0.0616
19935W        W33349   2.435  17.925  14.044 -0.1865 -0.0025 -0.3798
19936W        W33350   5.844  17.771   5.237 -0.0083 -0.3491 -0.2512
19937W        W33351   7.209   3.923  10.923  0.3260  0.0239 -0.3022
19938W        W33352  12.401   5.991   2.123  0.0387  0.1735  0.0142
19939W        W33353   5.546   9.284   4.614 -0.0644  0.3494 -0.0608
19940W        W33354  14.607   0.094  12.645 -0.3075 -0.0038  0.2663
19941W        W33355   3.562  10.832  15.569 -0.1452  0.0664  0.0369
19942W        W33356   7.494   0.802  15.567  0.0740 -0.3976  0.2784
19943W        W33357  12.200   8.638   3.144 -0.1258  0.3351  0.0326
19944W        W33358  11.129   0.141  13.423  0.3358  0.0221  0.0776
19945W        W33359   6.991  14.597  11.313  0.1977  0.0985  0.0770
19946W        W33360   0.250   0.086  12.047  0.2958 -0.1005  0.1233
19947W        W33361  10.141   0.616   0.864  0.0493 -0.1221  0.0542
19948W        W33362   0.561   7.174   5.483  0.1958 -0.2580 -0.1183
19949W        W33363  11.550  10.915  11.416 -0.1063 -0.4112  0.1143
19950W        W33364  11.592   8.263  14.765  0.0761 -0.3211 -0.1409
19951W        W33365  12.450   7.249   0.295 -0.1006 -0.0385  0.1779
19952W        W33366   3.755   0.034   2.235 -0.0197  0.0867 -0.3549
19953W        W33367   4.425   4.343  15.315 -0.1572 -0.1262  0.2355
19954W        W33368   3.129   0.672  15.091 -0.0869  0.3062 -0.1744
19955W        W33369   9.691   2.910   2.260  0.0325 -0.1357  0.0344
19956W        W33370   7.319   4.292  14.408  0.0273 -0.0829  0.2783
19957W        W33371   6.563   6.349  16.237 -0.2473  0.0082  0.0138
19958W        W33372   9.672  13.029  10.676  0.1505  0.1229 -0.3629
19959W        W33373  15.925   4.029   2.478  0.2649  0.0849 -0.2991
19960W        W33374  10.522   5.000   5.532  0.0889 -0.1627 -0.1953
19961W        W33375   1.782  17.861  12.611 -0.4941 -0.1808  0.0598
19962W        W33376   2.972  15.785   1.781  0.0539  0.1571  0.1261
19963W        W33377   6.947   7.747  15.330 -0.4982 -0.0987 -0.1883
19964W        W33378   9.618  10.265   1.244  0.0348 -0.0127 -0.0524
19965W        W33379   1.337   2.771   0.933 -0.3672  0.0597  0.0111
19966W        W33380  13.092  12.635   2.292  0.0236  0.0268 -0.0668
19967W        W33381   6.269   6.597  11.944 -0.2182  0.0766  0.1306
19968W        W33382  14.164  11.937  11.508 -0.1694  0.0764 -0.0492
19969W        W33383   6.583   7.138  10.253  0.2588  0.2894  0.0187
19970W        W33384   9.646  16.491  14.334  0.2391  0.3425  0.1514
19971W        W33385   1.382  15.200   2.205  0.1398 -0.0828  0.0697
19972W        W33386   4.751  12.995   1.494 -0.0738 -0.0142  0.0699
19973W        W33387   8.751  12.624  15.155  0.2371  0.0257 -0.0260
19974W        W33388  14.974  16.250   4.102  0.2359 -0.3332  0.0798
19975W        W33389   9.645  11.686  10.949  0.2828  0.1059 -0.3579
19976W        W33390  15.084   0.720  13.689  0.0478  0.0702  0.3693
19977W        W33391   8.146   3.226  11.869  0.1533 -0.2124  0.1928
19978W        W33392   3.599   9.792   0.215  0.0609 -0.0459  0.1830
19979W        W33393   8.355   0.611   3.449 -0.2913  0.0675  0.0622
19980W        W33394  13.790   1.723   3.564 -0.0521 -0.0951  0.1343
19981W        W33395  12.178   0.270   4.908  0.0343 -0.1923  0.1217
19982W        W33396   7.425   8.711   1.920  0.0694 -0.0774 -0.2501
19983W        W33397   7.110   2.751   6.453  0.2393  0.0260  0.0661
19984W        W33398  15.003  14.366  13.453  0.2624 -0.1940  0.0022
19985W        W33399   5.990  12.467   4.612  0.3062 -0.0828 -0.2819
19986W        W33400   3.271  16.667   3.649 -0.1798 -0.4130  0.1139
19987W        W33401   3.485   0.337   1.896  0.0271 -0.1315  0.3312
19988W        W33402  11.703  13.444  12.515  0.0217  0.0744 -0.0331
19989W        W33403  14.018  14.881  12.374  0.1492 -0.0353 -0.0383
19990W        W33404  16.456  13.653   5.399 -0.5101 -0.0132  0.3848
19991W        W33405  10.263  15.356   2.837  0.1501 -0.3468 -0.0555
19992W        W33406  11.436   6.852   2.204 -0.0734  0.0750 -0.1439
19993W        W33407   2.978   4.683  11.460 -0.1839  0.2348  0.0583
19994W        W33408  15.493   3.231  10.649  0.2934  0.1492 -0.0367
19995W        W33409  14.657  11.926  15.175  0.0902  0.0292 -0.1543
19996W        W33410   7.571   1.263  14.388 -0.1240  0.3077 -0.2515
19997W        W33411   8.154   9.420   2.037 -0.2677 -0.0067  0.1316
19998W        W33412  10.303  16.287  12.386  0.0987 -0.0896  0.1891
19999W        W33413  15.169   0.832   3.244 -0.2348  0.0957 -0.2136
20000W        W33414   2.484  16.318  15.112 -0.0810  0.1497 -0.0139
20001W        W33415   9.221  12.100  15.873 -0.1727 -0.0332 -0.0952
20002W        W33416  17.684  15.745   3.488  0.1610  0.0614 -0.5230
20003W        W33417   4.884  13.134  15.272  0.2207  0.1447  0.2093
20004W        W33418  17.285  16.097   6.232 -0.0154 -0.2791  0.0697
20005W        W33419   0.375  15.587   1.680  0.0109  0.1201  0.1244
20006W        W33420  13.002   7.322   1.508 -0.3476  0.3287  0.0343
20007W        W33421  16.218   6.109  12.731  0.1010  0.0949 -0.2407
20008W        W33422   6.725   6.618   2.960 -0.0712 -0.0566  0.2620
20009W        W33423  16.013   9.419  11.899 -0.1062  0.3138 -0.0381
20010W        W33424   6.699   3.552  13.542  0.1887 -0.2889  0.2279
20011W        W33425   1.253   6.510  14.169 -0.0692 -0.0387 -0.0679
20012W        W33426  15.227   6.222  14.463 -0.1098 -0.1092  0.1687
20013W        W33427   7.834   2.892  10.543  0.2009  0.2888  0.2121
20014W        W33428  12.808   1.448   3.869 -0.0555  0.0251 -0.1922
20015W        W33429   7.466   4.767  10.436  0.1078 -0.3149  0.0620
20016W        W33430   9.276   0.037   4.043 -0.0575  0.0823 -0.4848
20017W        W33431   6.801   7.761  16.431 -0.0511 -0.3824 -0.0444
20018W        W33432  14.413  11.633  12.321  0.1592  0.0501 -0.2531
20019W        W33433  17.351   7.059   4.750 -0.2086 -0.2300 -0.1055
20020W        W33434   6.964  11.929   2.595 -0.0170 -0.1136 -0.2629
20021W        W33435  10.426  18.165   0.467 -0.0283 -0.2042  0.0122
20022W        W33436   6.193   4.605  11.012  0.1194  0.3784  0.1729
20023W        W33437  16.015   8.969  14.571 -0.1475  0.4462 -0.0411
20024W        W33438   9.629   8.764  13.038 -0.0130 -0.0380 -0.3414
20025W        W33439  12.534  18.029  16.238  0.1960 -0.0021 -0.3026
20026W        W33440   2.631   7.968   5.070 -0.1155  0.3280  0.0790
20027W        W33441   6.854   6.833   0.459  0.0741  0.0638 -0.1810
20028W        W33442   4.743  16.573   3.162 -0.0961  0.3552  0.1293
20029W        W33443  11.860   2.910   1.703  0.0144 -0.1273  0.0607
20030W        W33444   5.406   4.169  10.676  0.1229  0.1623  0.0391
20031W        W33445   1.874   8.476   6.091  0.3389  0.0725 -0.0551
20032W        W33446   6.057   7.202   3.423  0.0510  0.3643 -0.0609
20033W        W33447   7.226   6.354  13.857 -0.1092  0.0536 -0.0308
20034W        W33448   8.597   9.828  12.909  0.0426  0.2393  0.0470
20035W        W33449  11.328   3.582   1.900 -0.2341  0.1013 -0.0161
20036W        W33450  14.901   8.489   5.849 -0.1424  0.0408 -0.0399
20037W        W33451   9.452  14.239   3.407  0.1672  0.1384 -0.1066
20038W        W33452  17.780   7.781  13.021 -0.0876  0.2340  0.1493
20039W        W33453   8.289   2.476  11.121  0.0367  0.0665  0.0087
20040W        W33454   6.637   8.369  12.281  0.0436 -0.1684 -0.1454
20041W        W33455  14.219  16.033  15.009 -0.3127 -0.1209  0.0640
20042W        W33456   7.565  17.959  10.307 -0.2616 -0.0356  0.1226
20043W        W33457   0.596   9.768  13.363 -0.2776  0.1809 -0.0929
20044W        W33458   4.885  16.046   0.602 -0.4553 -0.1272  0.2765
20045W        W33459   0.561  13.340   0.443 -0.0200 -0.1621 -0.0264
20046W        W33460   3.849  14.566   1.075 -0.3037  0.1082  0.0248
20047W        W33461   8.567   3.212  14.613 -0.0824 -0.0552  0.0339
20048W        W33462  18.092   4.719   1.887 -0.0855 -0.0477 -0.1221
20049W        W33463  16.017  16.416  12.335  0.0151 -0.0956 -0.0273
20050W        W33464   3.814   8.211   4.026 -0.0639  0.0029  0.2255
20051W        W33465   7.511  17.566   0.663 -0.1491 -0.0049  0.0692
20052W        W33466   2.172  12.083   4.701  0.1821  0.0950 -0.1100
20053W        W33467  13.438   3.358  14.971 -0.2470 -0.1630  0.0008
20054W        W33468  16.762  12.550  14.930 -0.2018 -0.1664  0.2005
20055W        W33469   8.557   9.420  11.482 -0.1072 -0.2207  0.1054
20056W        W33470  11.836  15.834  15.603 -0.3624 -0.0275 -0.1498
20057W        W33471   4.187  12.404   1.634  0.3316 -0.0037 -0.3341
20058W        W33472   2.951  11.694  13.520 -0.3774  0.3641  0.1962
20059W        W33473   7.212  17.483   3.473  0.1582  0.1121  0.1576
20060W        W33474   5.949   4.365   4.654 -0.2834  0.0986 -0.0154
20061W        W33475  17.140   4.760   4.671 -0.0162  0.0539 -0.0886
20062W        W33476   1.865  18.112   2.304 -0.2811  0.2736 -0.4262
20063W        W33477   1.028  15.130  15.700  0.0122  0.0274 -0.0122
20064W        W33478  17.825  12.636  16.071  0.3887 -0.1286  0.0010
20065W        W33479  17.256  10.429   5.073  0.0310  0.0102 -0.2722
20066W        W33480  16.460  12.264  14.698 -0.0901  0.0325 -0.2923
20067W        W33481   4.188   6.372   3.050  0.2254 -0.2675 -0.0550
20068W        W33482  17.684   9.373   5.531  0.0720 -0.2804 -0.0544
20069W        W33483   3.466  11.728   0.187  0.0455 -0.0416 -0.5157
20070W        W33484  17.734  12.271   3.438 -0.0829 -0.2226  0.2090
20071W        W33485   3.490  11.801  12.617 -0.1821 -0.1274 -0.0659
20072W        W33486   2.066   4.271   1.959 -0.1223 -0.1052 -0.2494
20073W        W33487  13.007   5.708  11.436  0.0158 -0.1769  0.0572
20074W        W33488   0.045   7.481   6.112  0.1209 -0.1301 -0.0942
20075W        W33489  17.593  15.636  13.363 -0.1120 -0.0726  0.2803
20076W        W33490   3.958  12.116  12.645  0.0117 -0.0882 -0.1255
20077W        W33491  12.415  16.587   4.679  0.2607 -0.4780 -0.0689
20078W        W33492   6.091  14.584  14.328  0.2893  0.0014  0.1256
20079W        W33493  15.007   0.532  14.124 -0.1279 -0.0111  0.2188
20080W        W33494  11.850   5.599   5.435 -0.0603  0.0805  0.1910
20081W        W33495   1.996   1.349   1.693  0.2364 -0.0248  0.1648
20082W        W33496   2.222   9.147  13.827  0.3725  0.1970 -0.1984
20083W        W33497  13.590   5.297   9.887 -0.2823  0.1314 -0.1671
20084W        W33498  12.254  15.599   4.637 -0.4702 -0.4100  0.0273
20085W        W33499   2.619  14.159  15.714  0.1946  0.1193  0.1700
20086W        W33500  11.585  15.592   2.488 -0.0507  0.1889 -0.0651
20087W        W33501   9.462   2.386  13.731 -0.0471  0.2696  0.0224
20088W        W33502   3.953   6.553  12.211  0.0605  0.0147  0.0279
20089W        W33503  15.455   2.873   0.393 -0.0368  0.1264 -0.3018
20090W        W33504   7.534  14.569   3.382 -0.1516  0.2086 -0.0774
20091W        W33505   9.376   0.578   4.061  0.2710  0.0960  0.0193
20092W        W33506   4.212  13.858  11.088 -0.1040 -0.0769 -0.1623
20093W        W33507   0.660  17.877  13.332 -0.1334 -0.0951  0.0358
20094W        W33508  17.808  11.752  13.658 -0.2146 -0.1679 -0.0093
20095W        W33509  15.332   7.243  14.492  0.0103  0.4325 -0.0024
20096W        W33510  15.374  13.158   1.980 -0.2097  0.0154  0.0304
20097W        W33511   3.075  13.974  15.930  0.2434  0.0044  0.0377
20098W        W33512   7.037  15.814   0.559 -0.1878  0.3399 -0.0396
20099W        W33513   5.298   2.873  10.551 -0.0849 -0.0244  0.0987
20100W        W33514  12.908   4.609   2.395  0.3201 -0.4293  0.0509
20101W        W33515   5.481  15.838   3.514 -0.1727  0.2156  0.0215
20102W        W33516   6.871  16.199  13.168  0.1231  0.3861 -0.0252
20103W        W33517   7.790   1.663   2.124  0.0751  0.3024 -0.0132
20104W        W33518  14.311   8.349   2.417 -0.3342 -0.0356 -0.1032
20105W        W33519   8.112  12.392  15.764 -0.1704 -0.4070 -0.0191
20106W        W33520   8.964  12.809   2.583  0.0275 -0.1469 -0.2964
20107W        W33521   2.067   9.382   0.122 -0.1671  0.1751  0.1249
20108W        W33522   5.681  11.840  13.076  0.1077  0.1360  0.0107
20109W        W33523  17.242  17.310  15.497  0.3915 -0.3222 -0.0602
20110W        W33524  18.251   1.337   0.671 -0.0266  0.0923 -0.2391
20111W        W33525   6.192   4.362  11.880  0.5598  0.2389 -0.2962
20112W        W33526   4.805  17.484   5.012 -0.0937  0.0085  0.1740
20113W        W33527   2.824   1.363   0.718  0.0966  0.1142  0.2988
20114W        W33528   5.620  10.901  14.692 -0.0983  0.0425  0.0222
20115W        W33529  10.370  17.226   2.792 -0.2352  0.0147 -0.2412
20116W        W33530   3.137   5.561   1.479  0.0398 -0.3001  0.2168
20117W        W33531  12.599  17.198   5.388 -0.3261  0.1643  0.1951
20118W        W33532  17.887  13.196   3.853 -0.0293 -0.0997 -0.1746
20119W        W33533  11.717   6.765  13.510 -0.0252 -0.2370  0.0295
20120W        W33534  17.381   4.765  14.759 -0.2260  0.1512 -0.1403
20121W        W33535  11.195   0.742   3.873  0.2628 -0.2030  0.1124
20122W        W33536   5.533   3.121   2.917  0.0757 -0.0008  0.2701
20123W        W33537   4.457   2.014  12.584  0.1376  0.0264 -0.2220
20124W        W33538   3.699  10.620   6.132  0.0777 -0.3590  0.2780
20125W        W33539   1.146   9.502   5.854 -0.0278 -0.0686  0.0345
20126W        W33540   9.041   6.644  15.699  0.1309 -0.0631 -0.1436
20127W        W33541  16.116  14.466   3.214 -0.2174  0.3835 -0.0367
20128W        W33542  11.277  13.829   4.986 -0.0239  0.4194 -0.0502
20129W        W33543   3.572  12.151  13.526 -0.3779 -0.0737 -0.3752
20130W        W33544   5.252   0.725   5.287  0.0227  0.0419 -0.0506
20131W        W33545  17.168   4.995   1.601 -0.0041 -0.0621  0.0691
20132W        W33546   6.908  10.761  11.613  0.0535 -0.0903  0.0852
20133W        W33547   5.326  12.561   1.318  0.1847  0.3524  0.2236
20134W        W33548  14.988  11.701  10.530  0.1262 -0.1496  0.1169
20135W        W33549  17.175  18.081   1.932  0.1170  0.0817 -0.2907
20136W        W33550  18.149  11.083  14.397 -0.2685 -0.1612 -0.0125
20137W        W33551   3.283  14.604  12.747 -0.0407 -0.0745 -0.0183
20138W        W33552   9.078   4.795  13.430  0.1516  0.0929 -0.1377
20139W        W33553   7.552  13.884   3.862  0.0307  0.0789 -0.2944
20140W        W33554  16.327   5.916   2.520  0.1014  0.1788 -0.1368
20141W        W33555  16.227  16.986  13.625  0.1723  0.0527  0.0562
20142W        W33556  13.143   4.754  14.490 -0.2660 -0.1078 -0.1765
20143W        W33557   1.156   4.931  13.033  0.1834 -0.2461 -0.0568
20144W        W33558   5.185  10.862   0.479 -0.0517  0.0219  0.0442
20145W        W33559   5.220   3.715   0.026 -0.0296 -0.0497 -0.0216
20146W        W33560   3.400  10.054  13.382  0.0388  0.2157  0.2365
20147W        W33561   2.270  15.185   4.568 -0.2728 -0.1941 -0.0838
20148W        W33562  10.226   2.384   2.896 -0.2893  0.3231  0.3652
20149W        W33563   8.974   4.592  16.006 -0.3515  0.0020  0.0233
20150W        W33564  18.092   3.793  13.997  0.2896  0.1633  0.1392
20151W        W33565  16.134  16.413  12.967  0.0135  0.0472 -0.0824
20152W        W33566  12.785   4.627  14.070  0.0242  0.1647  0.3536
20153W        W33567  14.025   2.056  13.672  0.1729  0.2640  0.1896
20154W        W33568  16.703   7.340  11.452  0.2848 -0.0387  0.2106
20155W        W33569   9.575   4.933   3.710 -0.1347  0.3191 -0.1325
20156W        W33570   6.937   8.126  14.838  0.0953 -0.1170  0.2362
20157W        W33571   7.778   0.144   4.119 -0.0228  0.2506  0.0038
20158W        W33572  14.608   9.778  14.106  0.2713 -0.1111  0.1820
20159W        W33573   7.057  16.616   0.690  0.1029 -0.1136 -0.0186
20160W        W33574   5.441  12.031   5.791 -0.3065  0.1665  0.3747
20161W        W33575   2.965   9.461   2.893  0.0380 -0.0386  0.1519
20162W        W33576   0.741   4.087  11.559  0.2342  0.2341 -0.1074
20163W        W33577  14.095  12.024   4.574  0.0346 -0.1293  0.0861
20164W        W33578   7.780   0.092  15.887  0.3208  0.0467  0.0801
20165W        W33579  15.606   7.488   0.128 -0.3235 -0.1899 -0.2682
20166W        W33580  10.047   8.413  10.920 -0.0602  0.0635  0.0455
20167W        W33581   8.855   9.936   1.123  0.0867 -0.1939  0.2121
20168W        W33582  15.379   3.741  15.239 -0.0884 -0.1806 -0.2436
20169W        W33583   6.405   4.375   3.789  0.1547  0.0594  0.1431
20170W        W33584  12.914  12.468  13.611  0.2206 -0.2724  0.0605
20171W        W33585   6.776  10.135  11.551  0.1350  0.2670 -0.5250
20172W        W33586  12.508  12.741  12.994 -0.1246 -0.2105  0.2588
20173W        W33587   5.234   0.807   2.182 -0.0828  0.1494 -0.2112
20174W        W33588   0.143   0.210   3.541  0.0065  0.0041  0.0408
20175W        W33589  17.587   3.589  11.860  0.0402 -0.1337  0.0189
20176W        W33590  10.672   3.862   2.997 -0.2750  0.1866  0.0027
20177W        W33591   3.576  17.948   3.307  0.0853 -0.2188 -0.1181
20178W        W33592  10.566   2.120   2.400 -0.0129 -0.1054 -0.1435
20179W        W33593   0.641   2.843  13.684 -0.0428  0.1822 -0.0579
20180W        W33594  11.002   8.432  10.621  0.0628 -0.1561  0.1161
20181W        W33595  13.457  10.798  14.979 -0.2925  0.0670 -0.3538
20182W        W33596   5.638   8.341   4.663  0.2691  0.2287  0.2132
20183W        W33597   8.471   0.291   1.752  0.1457 -0.0436 -0.0492
20184W        W33598   1.857   5.133   5.261  0.1754 -0.1417 -0.0947
20185W        W33599  10.130   2.048  14.539 -0.0652 -0.3238  0.2454
20186W        W33600   6.232   3.687   3.361 -0.0498  0.3493  0.0178
20187W        W33601   0.643   0.082   3.469  0.0246  0.0054 -0.1235
20188W        W33602   7.231   4.341  11.373  0.0021  0.0558  0.4149
20189W        W33603  18.179   0.180  15.423  0.0636  0.0780 -0.1140
20190W        W33604  12.188   2.058   5.966 -0.1096 -0.1084  0.5056
20191W        W33605   0.049  13.860   1.677  0.1745 -0.1817  0.0167
20192W        W33606  11.994  17.445   4.959 -0.0954 -0.0720  0.1070
20193W        W33607  12.717   0.156   3.060 -0.2469  0.2686 -0.1657
20194W        W33608   1.007   7.759   4.143  0.4335 -0.0824  0.1214
20195W        W33609  13.149  13.745  15.773 -0.1091 -0.0366  0.0008
20196W        W33610   9.958  13.827  14.491 -0.0755 -0.2234  0.2692
20197W        W33611   2.883   1.127   3.987  0.0063  0.1336 -0.2118
20198W        W33612  10.253   8.528   2.541  0.0908  0.1045 -0.3775
20199W        W33613  13.445  12.486   1.646 -0.1509  0.1517  0.2433
20200W        W33614   8.926   8.425  16.087 -0.1826  0.2524  0.3433
20201W        W33615   2.212   7.061  13.689  0.0636 -0.0935  0.0101
20202W        W33616   8.507  11.769  12.607 -0.0940 -0.2008  0.0444
20203W        W33617   8.957   6.277  15.307  0.1627  0.0814  0.0671
20204W        W33618  12.264   5.050   0.415 -0.0624  0.0458  0.1727
20205W        W33619   6.253   3.383  11.777 -0.1194 -0.1122  0.2165
20206W        W33620  10.382  13.016   1.056  0.1841 -0.1372 -0.2721
20207W        W33621  16.033   3.344   0.708  0.0038  0.0554 -0.1693
20208W        W33622   2.640  17.606   0.018  0.0578  0.4741 -0.1380
20209W        W33623   2.818   9.867  14.080 -0.1449  0.0027 -0.0986
20210W        W33624  11.474  14.174   3.873 -0.1534  0.2348  0.4343
20211W        W33625   2.893  14.742   0.761 -0.0692 -0.0015  0.1531
20212W        W33626   9.235  13.516  15.172 -0.0745 -0.0665  0.0992
20213W        W33627   8.308   6.939  15.619  0.0524 -0.0688  0.0067
20214W        W33628   8.006  12.385   4.146  0.0230 -0.0415  0.0975
20215W        W33629   7.219  12.467   5.111 -0.2148 -0.2685  0.0125
20216W        W33630  13.386   2.560   1.178 -0.2232 -0.0512 -0.0031
20217W        W33631  15.619   4.407  11.089  0.0857 -0.2684 -0.1923
20218W        W33632   3.113  14.028   2.237  0.0197  0.2110  0.0120
20219W        W33633   0.137   4.381  16.344  0.1309  0.1232 -0.0387
20220W        W33634   1.616   3.977   0.470  0.0647  0.2280 -0.1293
20221W        W33635  17.960  14.327  16.085  0.0625  0.1344  0.2297
20222W        W33636   6.537  11.980   5.957 -0.1409  0.1118 -0.0746
20223W        W33637   3.222   2.251  16.133 -0.0554  0.0170 -0.2705
20224W        W33638  17.896  13.198  11.365 -0.2169  0.5147  0.2164
20225W        W33639   9.747   0.735   2.042  0.2287 -0.1624  0.2335
20226W        W33640   5.194  14.602   3.704 -0.0643 -0.0096 -0.0604
20227W        W33641  11.395  17.615  15.530 -0.1083 -0.1569 -0.1041
20228W        W33642   2.600  17.245   1.107  0.0370 -0.2986 -0.0957
20229W        W33643   5.517  14.035   4.495  0.1019 -0.2276 -0.0510
20230W        W33644   8.790  15.636   0.843  0.2709  0.2184 -0.0510
20231W        W33645   9.439   5.811  13.775  0.0983 -0.1432 -0.0337
20232W        W33646  17.076  14.451  11.995  0.1838 -0.0069 -0.0165
20233W        W33647   5.429  16.678  14.722 -0.1382  0.0584  0.0295
20234W        W33648   3.040   0.907  10.758 -0.1733 -0.2061 -0.0722
20235W        W33649   0.132  15.502  15.581 -0.1428 -0.0314 -0.4033
20236W        W33650   7.370  16.591  10.290  0.2327  0.2475 -0.0399
20237W        W33651  13.222   1.963   3.600  0.2131  0.0332 -0.0364
20238W        W33652  10.203  15.743   2.485  0.1691 -0.1778 -0.1371
20239W        W33653  14.772  12.556   3.274 -0.3986 -0.3569  0.1557
20240W        W33654  13.580   3.663   0.502  0.1994 -0.0591 -0.3153
20241W        W33655   2.943  15.794  14.834  0.2159  0.2605  0.0268
20242W        W33656  16.129   5.853   0.386 -0.0718 -0.2892 -0.2881
20243W        W33657  14.165   3.350  14.394  0.1403 -0.1863  0.0126
20244W        W33658  12.091   4.430  12.359  0.0777 -0.0365 -0.0889
20245W        W33659  11.964  17.353   2.372  0.1088  0.0578  0.0446
20246W        W33660   8.630  13.529   0.580  0.1223 -0.2468 -0.1938
20247W        W33661   4.134   8.035  15.846  0.1784  0.2755 -0.0043
20248W        W33662  16.110  10.647  12.039 -0.2516 -0.0159  0.2826
20249W        W33663  12.322   2.792   4.184  0.2865  0.1734 -0.1729
20250W        W33664  15.721   1.472  11.615  0.2041 -0.1564  0.2029
20251W        W33665   8.418   5.551  15.829  0.1070 -0.5683  0.0957
20252W        W33666  17.225   4.203  11.079  0.0319  0.0852 -0.0416
20253W        W33667   0.658   0.670   0.660  0.1517 -0.0560  0.2983
20254W        W33668  17.413   6.106   0.258  0.0875  0.2043  0.1694
20255W        W33669  18.096  11.748   0.529 -0.0818  0.1789 -0.0570
20256W        W33670  14.053   3.741   0.735  0.2180 -0.3966 -0.2441
20257W        W33671  16.887   3.187  16.056 -0.2009  0.0697  0.0830
20258W        W33672   9.035  10.343   2.686 -0.2413 -0.2696  0.1323
20259W        W33673  11.829   4.048  15.342  0.1372 -0.1624 -0.0343
20260W        W33674   1.040   6.407  11.464 -0.1941  0.3134  0.0203
20261W        W33675  10.333   1.700   2.357  0.1532  0.0891  0.0483
20262W        W33676  15.199   6.642   5.145  0.1524  0.2068  0.0167
20263W        W33677   3.043  14.442  11.840 -0.1061 -0.0980 -0.0766
20264W        W33678   6.096  13.177   2.415 -0.0509  0.0283 -0.0299
20265W        W33679  13.803  16.190  12.460  0.1349 -0.1059 -0.0421
20266W        W33680   8.017   1.883  11.862  0.0563 -0.1529  0.0456
20267W        W33681  17.078  11.459   2.055  0.0896 -0.3722 -0.0769
20268W        W33682   4.364   0.926  16.024  0.0348 -0.1555 -0.1602
20269W        W33683  17.286   3.981  16.306 -0.0090  0.0692 -0.0675
20270W        W33684  15.112  17.264   2.806 -0.2956 -0.2941 -0.1306
20271W        W33685   1.126   2.033   1.785 -0.3438 -0.0855  0.0104
20272W        W33686   5.609   5.465   1.307  0.1795 -0.2583 -0.0598
20273W        W33687   2.856   0.344  15.411  0.1403 -0.3565  0.0169
20274W        W33688   4.006  17.288   6.025  0.0093 -0.1525 -0.1043
20275W        W33689   4.700   3.414  12.407  0.2152  0.1442  0.2220
20276W        W33690  11.783  14.189   5.155  0.1128  0.0192 -0.3816
20277W        W33691   4.183  16.715  12.408  0.0325  0.2213  0.0073
20278W        W33692  16.771  10.515  16.262  0.1650 -0.0802 -0.2150
20279W        W33693  17.776   3.855  12.763 -0.0180  0.1090 -0.1279
20280W        W33694   0.856   1.297   3.707  0.0162 -0.0891  0.0758
20281W        W33695   0.065   4.283  10.093  0.0865  0.2150  0.0131
20282W        W33696   8.103  16.468  13.598 -0.0997  0.1803 -0.0091
20283W        W33697  16.276  13.671  15.667 -0.2548  0.0057 -0.0026
20284W        W33698   6.315  15.879  16.066  0.0291 -0.0293  0.0278
20285W        W33699   5.613   6.832  13.750  0.1317 -0.2186  0.0247
20286W        W33700   8.624  16.716  12.663  0.1673 -0.2517 -0.1715
20287W        W33701  12.004  15.759  14.178  0.2587 -0.1656 -0.0694
20288W        W33702   6.040  10.657  12.139 -0.3706 -0.0045  0.3881
20289W        W33703   2.486   1.029  13.661  0.0352  0.0111  0.1751
20290W        W33704  15.003   2.564  13.412  0.0022  0.1524  0.0770
20291W        W33705   6.265  17.261  16.376 -0.2708  0.0401 -0.1316
20292W        W33706  10.038  14.047   5.934 -0.0459  0.3919 -0.0440
20293W        W33707   3.119   8.270  14.161 -0.0666 -0.0456 -0.2973
20294W        W33708  17.360   6.778   3.914 -0.1344  0.2156 -0.1197
20295W        W33709   3.247  17.476   5.190  0.1191  0.0987 -0.2180
20296W        W33710   8.748  15.537   1.856 -0.0395  0.1551 -0.0307
20297W        W33711   1.664   2.059  11.248  0.0219  0.0537 -0.1366
20298W        W33712   6.625  14.920  13.780 -0.1251  0.2432 -0.1106
20299W        W33713   2.573   6.234  15.404  0.2579 -0.1429  0.2191
20300W        W33714   0.801   8.880  16.234 -0.0106 -0.0104 -0.2011
20301W        W33715  10.995   7.027  10.975 -0.0157  0.0907 -0.1402
20302W        W33716  12.596  15.383  16.466  0.1288  0.0263  0.1428
20303W        W33717   8.472   9.395  10.979 -0.2272  0.1744  0.1152
20304W        W33718  13.137  11.666   1.792 -0.3166 -0.2497 -0.1982
20305W        W33719   7.751   2.523   2.696 -0.0332 -0.2496 -0.0040
20306W        W33720  18.002  12.223  13.432  0.0298  0.0774  0.0299
20307W        W33721   5.324  15.737  13.175  0.1712 -0.0721  0.0846
20308W        W33722   8.423   6.608  13.020 -0.2850  0.1819  0.3278
20309W        W33723   6.049   5.362   1.167  0.1140 -0.2511  0.0600
20310W        W33724   8.502  14.198   1.574  0.1312 -0.0501  0.1210
20311W        W33725   8.630   1.928  15.395  0.2306 -0.3223 -0.2335
20312W        W33726   9.326   7.810  14.396  0.2533  0.1573 -0.1397
20313W        W33727   4.572   8.474  13.561 -0.5119  0.1423 -0.2010
20314W        W33728  14.018   9.276  15.730 -0.0619  0.1931 -0.1605
20315W        W33729   9.641   6.801   5.274  0.2600  0.0973 -0.0045
20316W        W33730  16.361  16.017  12.148  0.1905  0.1404 -0.0923
20317W        W33731  16.150  14.602   1.118 -0.2551  0.0341  0.2218
20318W        W33732  15.577   7.870   2.536 -0.2946 -0.0285 -0.0241
20319W        W33733  14.757   3.609   0.064  0.1011 -0.1038 -0.0144
20320W        W33734  17.720   8.077  14.235 -0.0892 -0.2502 -0.0120
20321W        W33735   8.533   6.070   1.315  0.0810 -0.1681  0.3979
20322W        W33736   8.027   0.105   3.260 -0.0799 -0.0444 -0.0132
20323W        W33737  18.097   9.624   5.544  0.2510  0.0208 -0.1164
20324W        W33738  13.427   1.221  15.068  0.0050  0.2504 -0.2215
20325W        W33739   0.130  11.260   5.689 -0.0146  0.1912  0.0069
20326W        W33740   3.870  14.469   2.313  0.2702  0.1396  0.5490
20327W        W33741  11.617   9.796   2.048 -0.2397 -0.1455 -0.0668
20328W        W33742   0.062  10.791   1.936 -0.1711 -0.2095 -0.3490
20329W        W33743   7.541  16.266   5.492  0.0663 -0.2961  0.2348
20330W        W33744  16.100   9.265  15.905  0.4210 -0.1975 -0.0174
20331W        W33745   8.013   0.531   4.333 -0.1045 -0.3208 -0.0622
20332W        W33746   0.667   1.117  13.124  0.0233 -0.0570 -0.0662
20333W        W33747   5.334  13.045   1.527 -0.0410  0.1247  0.2063
20334W        W33748  11.974  17.673   4.498 -0.0441 -0.0688 -0.4971
20335W        W33749  16.809  14.999   4.019 -0.0036  0.1918  0.2429
20336W        W33750   7.705   7.596  13.851  0.0462 -0.0502 -0.1511
20337W        W33751  14.971  10.759   3.370 -0.0964  0.0492  0.1656
20338W        W33752   4.475  18.116   1.695 -0.0543 -0.1359  0.2388
20339W        W33753  14.297   0.101   1.810 -0.0590  0.1555 -0.1392
20340W        W33754   0.822   1.568   4.691  0.0234 -0.1419 -0.0642
20341W        W33755  15.043  15.135   1.437 -0.0083 -0.3524 -0.0219
20342W        W33756   5.186   6.393  15.433 -0.1087  0.0769  0.3373
20343W        W33757   7.216   5.197  14.006  0.0453 -0.3085 -0.0797
20344W        W33758   1.030  14.521  12.090 -0.2266  0.1094  0.3185
20345W        W33759   5.400   0.120   5.768  0.0389  0.1359 -0.3078
20346W        W33760   7.187  10.674  16.248  0.0089  0.2963 -0.0150
20347W        W33761  16.484  14.986   6.492  0.0764  0.1423 -0.0318
20348W        W33762   8.804  15.305   1.272 -0.0681  0.0398  0.0435
20349W        W33763   0.443  14.288  13.209  0.3231  0.1815  0.1207
20350W        W33764  11.896  13.364  14.906 -0.1852 -0.3660 -0.3871
20351W        W33765   6.554   1.461   5.251 -0.0143 -0.1339  0.1835
20352W        W33766   7.696  16.509   4.502 -0.3694 -0.1337  0.0587
20353W        W33767  17.794   3.666   1.151  0.0715  0.0105  0.0454
20354W        W33768  11.795  13.682   5.222  0.1568 -0.2937  0.2771
20355W        W33769   8.422   0.853   5.048 -0.0954  0.2420  0.1248
20356W        W33770  10.919   1.377   5.559  0.0673  0.0522 -0.1794
20357W        W33771  16.466   3.404   2.638 -0.1037 -0.0082  0.1040
20358W        W33772  11.100   0.614   4.417  0.0653 -0.0128  0.2755
20359W        W33773  17.767  13.813   3.551 -0.3378  0.2064  0.1928
20360W        W33774  16.173  12.089  13.472 -0.0239  0.0444 -0.0591
20361W        W33775   9.282   6.123  10.464  0.1819 -0.0188  0.0113
20362W        W33776  15.927   1.614   3.010 -0.0396  0.0224  0.1129
20363W        W33777   7.880  10.074  13.654  0.2223 -0.1247  0.0958
20364W        W33778   8.188   4.252  12.311 -0.0220 -0.4083 -0.0540
20365W        W33779   7.762  10.586  13.472 -0.1415  0.1477  0.0524
20366W        W33780   6.334   2.215   4.757  0.2197  0.0128 -0.1986
20367W        W33781  17.796  17.399  13.826 -0.0033  0.1288  0.1894
20368W        W33782  13.382   5.326   1.154  0.0003 -0.0310  0.1451
20369W        W33783   9.083   2.119  15.715  0.2320  0.1021 -0.0596
20370W        W33784  17.048  16.265   2.961 -0.0005  0.1284 -0.3677
20371W        W33785  12.617   6.852  13.715  0.1190 -0.0496  0.1103
20372W        W33786   0.813  16.232  11.395  0.0588 -0.2598  0.0635
20373W        W33787  11.378   0.878  10.074 -0.2470  0.1344 -0.1167
20374W        W33788   4.899  14.159  13.433  0.1065  0.1758 -0.2920
20375W        W33789  11.641   8.777  11.402 -0.1491  0.1131  0.1489
20376W        W33790   7.410   4.385   0.364  0.0486 -0.0969 -0.0366
20377W        W33791  15.348  13.390  15.733  0.0926  0.0219  0.4618
20378W        W33792   1.359  13.970  16.199 -0.0956 -0.0697  0.1279
20379W        W33793   0.985  11.245  12.565 -0.0411  0.0411 -0.1459
20380W        W33794   3.632  17.437  12.114  0.2018  0.1709 -0.1909
20381W        W33795  12.658  16.238   2.407 -0.0054 -0.1301  0.0870
20382W        W33796  10.902  18.120  12.896  0.0824  0.0966  0.1447
20383W        W33797  14.595   4.011   3.792  0.0469 -0.0317 -0.0458
20384W        W33798   2.968  12.189  12.742 -0.2347  0.0110 -0.1521
20385W        W33799  14.666   0.917   5.189  0.0552  0.1923 -0.0147
20386W        W33800  15.920  16.984   2.157  0.0810  0.2712  0.0663
20387W        W33801  18.096  10.218  12.302 -0.1304  0.5203 -0.3215
20388W        W33802   7.993  14.507   1.825 -0.0942  0.0678  0.1254
20389W        W33803  14.122   2.566  13.295  0.0218 -0.0937 -0.0216
20390W        W33804  13.247   9.126  10.851  0.0598  0.1502 -0.0912
20391W        W33805   5.111  14.369  14.651 -0.0140 -0.0313  0.1939
20392W        W33806   2.853  15.194   1.528 -0.0870 -0.0835 -0.1598
20393W        W33807  14.111  12.087  10.552 -0.2482  0.0085  0.1540
20394W        W33808  12.293   5.484   2.041 -0.1033  0.1778  0.0787
20395W        W33809   7.943   8.763   0.659 -0.0835 -0.3993  0.0442
20396W        W33810   5.865  11.406  12.929 -0.3830  0.0316  0.2824
20397W        W33811   0.235   4.881   0.083  0.1448  0.1216  0.0373
20398W        W33812   0.640   2.188   1.524 -0.2291 -0.1028 -0.1105
20399W        W33813  11.416   3.272   4.966  0.2385  0.2225  0.1327
20400W        W33814   5.901   5.389  14.241  0.2271  0.0972 -0.0137
20401W        W33815  15.200   4.703  14.436 -0.3054  0.2600  0.3108
20402W        W33816   8.559  11.186  14.494  0.1777  0.2098  0.1506
20403W        W33817  15.816  14.864  15.299  0.1674  0.1497  0.5258
20404W        W33818  17.719   6.532   3.628 -0.0998  0.1451  0.1756
20405W        W33819  13.358  13.589  10.564  0.1134  0.2559  0.1060
20406W        W33820   2.489  14.146   4.016  0.0288 -0.1936 -0.2134
20407W        W33821   3.243  14.660  11.001  0.1637  0.2752  0.0203
20408W        W33822   2.035   3.486   3.218  0.0923  0.0491  0.1329
20409W        W33823   7.775  13.230  12.258 -0.1520 -0.2984 -0.1734
20410W        W33824   6.778  15.503  12.411 -0.2514 -0.0380 -0.3540
20411W        W33825   1.820   4.768   5.693 -0.1921 -0.1760  0.0994
20412W        W33826  10.897   7.561   0.107 -0.0204  0.1887  0.2941
20413W        W33827  12.505   9.394   5.408  0.0209 -0.2968  0.0511
20414W        W33828   3.083   6.020  15.489  0.3803  0.5417  0.0347
20415W        W33829   3.337   7.247   4.221 -0.0752  0.0253 -0.1988
20416W        W33830  17.907   0.485   6.062 -0.0050  0.0163 -0.0126
20417W        W33831   0.722   7.898  14.195  0.0885 -0.0415 -0.1156
20418W        W33832  10.401  17.821  14.277  0.0798  0.0726  0.0540
20419W        W33833   8.077   1.148  14.276  0.1074 -0.1914 -0.1272
20420W        W33834  13.419  14.063   3.294  0.2686  0.0196  0.1207
20421W        W33835  11.245   1.071  11.740 -0.0960 -0.2477 -0.1206
20422W        W33836   6.518  13.711  12.473 -0.1067  0.0624  0.0930
20423W        W33837   6.815   8.823   5.204  0.1124  0.3663  0.1584
20424W        W33838   1.352   8.551   1.675 -0.2204 -0.1135 -0.2345
20425W        W33839   8.291  15.453  14.642 -0.0930  0.3454  0.1753
20426W        W33840  10.415   7.759   0.428  0.1892 -0.1132 -0.1491
20427W        W33841  10.630   3.482  16.320 -0.2166 -0.4886  0.0676
20428W        W33842   5.625   9.561  13.049 -0.1935 -0.0330 -0.0673
20429W        W33843   9.518  17.992  12.160 -0.2391 -0.1307 -0.1524
20430W        W33844   2.138  11.390   0.638 -0.1625 -0.0348 -0.2529
20431W        W33845   4.579  15.828   5.985  0.2039  0.3604  0.2348
20432W        W33846   1.023  13.081   1.381 -0.0765 -0.1306 -0.0547
20433W        W33847   6.261   8.624   5.191 -0.2646 -0.1882 -0.1075
20434W        W33848  16.238  10.186  15.144  0.0277  0.2131  0.3645
20435W        W33849   7.692   1.056   2.159 -0.2087  0.3002  0.0729
20436W        W33850  16.491   6.802   4.311 -0.2432 -0.2419  0.0098
20437W        W33851  16.187   3.177   3.000 -0.1669  0.1551  0.1906
20438W        W33852   3.973   0.576   1.720 -0.1069 -0.0593  0.0971
20439W        W33853   3.591   7.085   2.723 -0.0557 -0.1355  0.1768
20440W        W33854   1.866   2.884   0.999 -0.1903 -0.1115  0.2175
20441W        W33855   8.151   2.192   2.999 -0.1063  0.3193  0.0358
20442W        W33856  14.487   1.973  15.211 -0.2112 -0.0140  0.1279
20443W        W33857  12.177  15.500   1.089 -0.2682  0.1390  0.1461
20444W        W33858  11.292   7.105  14.697  0.1847 -0.0365  0.0408
20445W        W33859   8.044  10.566   1.368  0.4817 -0.2089 -0.3263
20446W        W33860   6.419   7.518   5.254  0.0848 -0.1296 -0.2661
20447W        W33861   6.196  11.446  16.229  0.1202 -0.0992 -0.3494
20448W        W33862   8.217  13.001   5.301 -0.2099  0.2934  0.0159
20449W        W33863   6.000   7.054  16.208  0.1986  0.1693 -0.1028
20450W        W33864  16.046   1.645   3.955 -0.0090 -0.0181  0.2933
20451W        W33865   8.997  13.868   4.728  0.1459 -0.2223  0.0073
20452W        W33866   3.255  13.753  12.034  0.3396 -0.0245 -0.1050
20453W        W33867  16.013   3.839   4.791  0.0571 -0.0295  0.1214
20454W        W33868   9.392   5.545  15.871  0.3795  0.2447 -0.1637
20455W        W33869  11.901   0.815   1.838  0.1005 -0.0320  0.4525
20456W        W33870  10.724   8.028   0.059  0.0548 -0.1576 -0.0448
20457W        W33871   1.442  16.070   3.514  0.0658  0.0100  0.0109
20458W        W33872   1.085  11.966  15.985 -0.1235  0.2237 -0.0944
20459W        W33873   2.047   2.124   3.701 -0.0446  0.1446 -0.1473
20460W        W33874  17.327  10.390   3.273  0.2805  0.0122  0.1716
20461W        W33875  17.227  16.673   2.603  0.0495  0.1930  0.0068
20462W        W33876   8.042   9.072  11.277  0.2231 -0.2140  0.0519
20463W        W33877  16.127  16.720  15.787  0.0125 -0.3631 -0.1702
20464W        W33878   9.818   4.343   5.351 -0.0569  0.0155  0.0277
20465W        W33879   5.993   1.255   4.032  0.0555 -0.1753  0.2726
20466W        W33880   5.023  15.260  16.120 -0.1596 -0.0953  0.1712
20467W        W33881   2.753   4.675  14.844  0.1215  0.1535 -0.1211
20468W        W33882   0.033   7.027  14.304 -0.4438 -0.1472  0.2019
20469W        W33883  15.850   8.051   2.117  0.0013 -0.0317  0.0674
20470W        W33884  17.460  10.901   0.681 -0.0011 -0.0453 -0.0998
20471W        W33885  13.233  12.861  14.462 -0.0599  0.1994  0.0812
20472W        W33886  10.891   0.483  10.693 -0.2810  0.0111 -0.1091
20473W        W33887  14.612   5.167   0.798  0.2873 -0.2169 -0.1149
20474W        W33888   1.828  15.252  12.971  0.1301 -0.0366 -0.1292
20475W        W33889   5.734  14.025   1.379  0.1698 -0.0135 -0.0854
20476W        W33890   5.759   5.492   2.310  0.1696  0.1262 -0.0156
20477W        W33891   4.328   6.098  15.537  0.2598 -0.0009  0.1408
20478W        W33892  10.621   5.821   4.222 -0.1918  0.0215  0.1200
20479W        W33893   7.427   5.407  13.648  0.0951  0.2336  0.1048
20480W        W33894  13.589  10.263   4.208  0.0741 -0.2211 -0.0582
20481W        W33895  16.584   3.085   1.282 -0.0316 -0.3104  0.0605
20482W        W33896   8.502   3.218  10.931  0.1854 -0.3156 -0.1367
20483W        W33897  17.088   9.663  13.370 -0.0182  0.1497  0.1707
20484W        W33898   7.914   6.432   0.289  0.0324  0.0063 -0.2609
20485W        W33899   3.041  16.163   0.777 -0.0304 -0.2305  0.1072
20486W        W33900  11.623   7.018   0.050 -0.1016 -0.1824  0.1950
20487W        W33901  12.621   2.779  16.094 -0.1852  0.0492 -0.0855
20488W        W33902   4.703   0.627   5.237 -0.0196  0.0132  0.2278
20489W        W33903  12.966   8.111  14.244  0.2961  0.2179 -0.0582
20490W        W33904  12.506   1.739   4.130  0.2257 -0.0043  0.0039
20491W        W33905   2.547   1.151   5.107 -0.2279  0.0663 -0.0072
20492W        W33906  11.103  14.803   3.505 -0.1892  0.0187 -0.3286
20493W        W33907   3.504   3.598  13.434  0.2298 -0.0032  0.2693
20494W        W33908   0.897   5.734   2.024  0.1585  0.1832 -0.2739
20495W        W33909   8.388   0.690   1.429 -0.0227  0.2778 -0.0402
20496W        W33910  12.629   2.118   2.882  0.2589  0.1441 -0.0407
20497W        W33911   2.927   0.519   3.482  0.0820  0.0798 -0.0604
20498W        W33912  10.639  14.581  14.907  0.1628  0.2402  0.2736
20499W        W33913  12.989  15.170   4.180  0.2057 -0.2148  0.4828
20500W        W33914  11.840   4.569   1.714  0.3348  0.0014 -0.3317
20501W        W33915  16.472  14.341  12.411 -0.0473 -0.0068 -0.1801
20502W        W33916   8.089   5.387   2.718  0.0978  0.0204 -0.0651
20503W        W33917   4.464   7.198  11.094  0.0179  0.2012  0.0334
20504W        W33918  17.563   6.924   3.385  0.0317 -0.3641  0.0737
20505W        W33919   2.325   8.426  13.461  0.1039  0.1277  0.0251
20506W        W33920  10.446  10.486   5.284  0.1319 -0.0741 -0.0421
20507W        W33921  10.511   3.857   0.250 -0.0592  0.0266 -0.2480
20508W        W33922   9.045   7.794   0.626  0.3770 -0.3275 -0.1490
20509W        W33923  14.949  16.257  12.773  0.0481 -0.0572 -0.0112
20510W        W33924   4.006   1.211  11.451  0.1393  0.1059  0.0604
20511W        W33925  16.355  16.960  15.399 -0.2295  0.0438 -0.1870
20512W        W33926   4.155   6.572  15.269 -0.3219  0.1797  0.0938
20513W        W33927   6.043   9.161   5.269 -0.1743 -0.1534  0.0352
20514W        W33928   3.574   0.805  11.418 -0.3361 -0.0938 -0.1244
20515W        W33929  14.239   2.748   3.518 -0.0522  0.0085  0.0253
20516W        W33930  12.306   8.833  16.357  0.1348 -0.1855  0.0339
20517W        W33931  12.215  10.086   1.400 -0.0338  0.0388  0.0483
20518W        W33932   7.721  16.932   0.492 -0.0878  0.1160 -0.0254
20519W        W33933   0.967   2.298   6.041 -0.1753  0.1013 -0.2371
20520W        W33934  10.041  11.930   5.838  0.2702 -0.0885 -0.3714
20521W        W33935  16.967   3.117   5.350 -0.0710 -0.1085 -0.0972
20522W        W33936  15.124  15.987  14.887  0.0073  0.0700 -0.1708
20523W        W33937  14.043  14.831   3.623  0.0859  0.1195 -0.0402
20524W        W33938   0.826   6.204  13.336 -0.0470  0.2679 -0.0070
20525W        W33939   3.294   6.778   0.234  0.1528  0.0445  0.1720
20526W        W33940  16.762  18.148   6.061  0.0926  0.0389  0.1351
20527W        W33941  14.491  16.318   0.602 -0.3027 -0.0158  0.1329
20528W        W33942  17.334   0.515  15.207 -0.0719 -0.0201 -0.1729
20529W        W33943   4.526  11.867  16.170  0.0078  0.0707 -0.0144
20530W        W33944   1.135  17.807   2.208  0.1246 -0.0751 -0.2310
20531W        W33945  15.749   2.792  10.759  0.0896  0.0896  0.1668
20532W        W33946  16.325   2.676  13.901 -0.1704 -0.0097  0.0911
20533W        W33947  12.255  16.023  14.801 -0.1211 -0.1358  0.2130
20534W        W33948  11.840  11.469  14.673  0.2122  0.0314 -0.1737
20535W        W33949  10.845   3.209   0.239  0.0136 -0.1722  0.0701
20536W        W33950   3.131  18.053   2.974  0.3144  0.0467  0.0954
20537W        W33951   0.091   5.318   4.072 -0.1409  0.0552  0.0543
20538W        W33952   8.759  16.028  13.508  0.0973  0.0960 -0.0578
20539W        W33953  18.114   7.427  15.349 -0.0943  0.3916 -0.0815
20540W        W33954  14.131  16.305   1.735 -0.1980 -0.0430  0.0939
20541W        W33955   5.950   4.572   0.943  0.1309 -0.0739  0.1152
20542W        W33956  11.580   2.957   6.055 -0.0068  0.1966  0.0009
20543W        W33957  17.191  12.081   0.036 -0.1780 -0.1504 -0.0954
20544W        W33958   0.469  12.285  11.657  0.1597  0.1118 -0.1576
20545W        W33959   3.095  14.557   4.560  0.0671 -0.0576 -0.2058
20546W        W33960   4.832  17.082   1.891 -0.2696  0.0898 -0.1155
20547W        W33961  13.506  13.589   4.517  0.3266  0.0092 -0.0639
20548W        W33962   8.424   4.547  10.289  0.0007 -0.1789  0.1570
20549W        W33963  16.444  15.880  10.991 -0.0884  0.0259  0.1641
20550W        W33964  11.067   3.516   3.036  0.1354 -0.1892  0.3509
20551W        W33965  11.369   0.233  15.808 -0.4458  0.1911 -0.0720
20552W        W33966   7.701   6.265  12.357 -0.1024  0.3304 -0.1795
20553W        W33967  13.891   1.264  11.385  0.1638 -0.0421  0.2775
20554W        W33968  15.739   9.134   2.960  0.3903 -0.1084  0.3579
20555W        W33969  12.423   7.469   5.321  0.2459  0.2060 -0.0487
20556W        W33970  16.401  14.696  13.283  0.2054 -0.0806  0.0268
20557W        W33971   0.007   5.021  10.884  0.0184  0.1147 -0.1136
20558W        W33972  14.072   7.895   5.099  0.1725  0.0473  0.0137
20559W        W33973   5.463   1.785   4.457  0.0403  0.0878 -0.0808
20560W        W33974   3.784  12.523  14.073  0.1788 -0.1853  0.2699
20561W        W33975  14.311   6.032   4.695  0.1324  0.0894  0.0160
20562W        W33976  18.225  10.999   4.723 -0.2341 -0.2858  0.1782
20563W        W33977   9.535   6.038  11.560 -0.0164 -0.2625 -0.1766
20564W        W33978  10.616  14.867   1.490 -0.0363 -0.3823  0.0808
20565W        W33979  12.813   4.737   1.235 -0.1561 -0.4440 -0.1109
20566W        W33980   0.112  11.329   5.129  0.1875  0.1381 -0.0430
20567W        W33981   3.698   6.229  11.514  0.1543  0.3651 -0.1359
20568W        W33982  16.705  16.066   2.132  0.0476 -0.2574 -0.1666
20569W        W33983  10.615   9.731   6.089 -0.3115  0.1888  0.0141
20570W        W33984  17.961  15.687  10.729  0.2244 -0.1136 -0.2242
20571W        W33985  15.972  16.086   1.596 -0.0073 -0.1628 -0.1740
20572W        W33986   4.025   9.701   3.962  0.0026  0.1775 -0.2324
20573W        W33987  13.541   8.453  11.592  0.0752  0.0932 -0.3045
20574W        W33988   5.189  16.192  13.352  0.0235 -0.3837  0.1490
20575W        W33989  14.883   5.007   3.191 -0.0253  0.1244  0.2395
20576W        W33990  14.849  15.505  11.000 -0.2859  0.1469  0.1357
20577W        W33991   9.661   1.701  12.188  0.1049  0.1030  0.1497
20578W        W33992  10.094  10.540   5.692  0.1096  0.2828  0.0527
20579W        W33993  16.946  11.713  14.022  0.3177 -0.3690 -0.2788
20580W        W33994   0.367  15.941   0.306 -0.0685 -0.1580  0.0069
20581W        W33995   6.415  14.076  11.620 -0.0296  0.2067  0.4301
20582W        W33996  15.170   1.718   6.232  0.0957 -0.0456  0.0746
20583W        W33997  13.992  10.450   0.460  0.0620 -0.1160 -0.2205
20584W        W33998  13.352   4.711   2.793 -0.1423 -0.1837 -0.0831
20585W        W33999  14.035  14.252  13.190  0.0553 -0.0102  0.2448
20586W        W34000   0.852  16.284  12.960  0.2412 -0.2903  0.2019
20587W        W34001   7.302   8.066  14.482  0.0373 -0.2286  0.1620
20588W        W34002  11.490   3.562  16.086  0.1122 -0.1111 -0.0252
20589W        W34003  17.018  14.090   6.379 -0.1462  0.0040 -0.1786
20590W        W34004   6.947  14.030   1.258 -0.1957 -0.0725 -0.1952
20591W        W34005   6.848   4.089  15.349  0.0684 -0.0311 -0.1338
20592W        W34006   8.676  17.053   0.261  0.1631  0.3453  0.3460
20593W        W34007  17.047   7.333  14.567  0.1018  0.0468 -0.1396
20594W        W34008   3.832   7.483  13.340  0.0041  0.0681 -0.1710
20595W        W34009   9.013  13.830  13.403  0.2684 -0.0186  0.0571
20596W        W34010  12.808  17.429  15.949  0.2328  0.3183  0.1115
20597W        W34011  17.643   3.856  11.352 -0.2630 -0.0232 -0.0974
20598W        W34012   0.537  18.186   0.985 -0.2023  0.0569 -0.0310
20599W        W34013   4.707  12.951   5.965  0.0184 -0.2402 -0.0293
20600W        W34014   2.910  15.889   4.671  0.1582  0.0607 -0.2208
20601W        W34015   5.264   6.609  13.293 -0.1445 -0.2206  0.2718
20602W        W34016   9.627   8.769  16.060  0.1918  0.2233  0.2373
20603W        W34017  16.454  16.566   6.181 -0.0333 -0.1713 -0.0565
20604W        W34018  16.067   0.216  12.989 -0.0467 -0.1585  0.2081
20605W        W34019   1.094  14.442  10.936  0.0216 -0.0651 -0.0949
20606W        W34020   1.633   7.972  14.233 -0.1526 -0.0684  0.0358
20607W        W34021   1.676  14.953  12.125 -0.2240 -0.0090  0.2387
20608W        W34022  15.407   7.844   4.096  0.2743  0.0772 -0.0663
20609W        W34023  14.572   4.672   0.643 -0.1780 -0.3530  0.3941
20610W        W34024   2.426   4.098  11.926  0.0276 -0.4861 -0.0502
20611W        W34025  18.191   7.346  13.568  0.2920 -0.0852 -0.2123
20612W        W34026  11.111   2.540   1.066  0.0999 -0.0699 -0.0343
20613W        W34027   8.749   8.828   5.043 -0.0365  0.0710  0.0110
20614W        W34028   9.030   8.399   2.438  0.0165 -0.2856 -0.3188
20615W        W34029  17.812  12.431  12.018 -0.0229  0.2295  0.3545
20616W        W34030  12.379  16.969  10.227  0.0606 -0.0998  0.1229
20617W        W34031   8.557  17.968  10.128 -0.0433  0.1933  0.0509
20618W        W34032   1.007  14.116  11.767  0.1807  0.1212 -0.0211
20619W        W34033  12.646   5.984  14.363  0.0360 -0.1612 -0.2007
20620W        W34034   2.979  13.577  11.685  0.1741  0.1670  0.2149
20621W        W34035   5.808   0.609  12.241  0.0059 -0.0865 -0.0011
20622W        W34036  16.941  11.339   3.997 -0.3502 -0.0443  0.1039
20623W        W34037   8.005   9.703   3.645 -0.2743  0.2070 -0.1823
20624W        W34038   9.588   3.424   0.948 -0.2882 -0.1299 -0.1143
20625W        W34039  10.199  12.282  13.261 -0.1363  0.1251  0.3838
20626W        W34040  10.618  10.235   1.101 -0.1565 -0.2352 -0.3415
20627W        W34041   2.525  16.710  14.775  0.3538  0.0048  0.4522
20628W        W34042  10.875   5.763  14.267  0.1376 -0.2884 -0.1202
20629W        W34043  13.956  16.381   2.229 -0.0564  0.2483  0.1259
20630W        W34044  15.999   1.406   6.295 -0.4414  0.2148  0.2729
20631W        W34045   5.563   8.736   1.845  0.3246  0.2213 -0.0760
20632W        W34046  17.202   4.856   3.615 -0.0946 -0.3490  0.2845
20633W        W34047   5.180  14.016   4.066 -0.1338 -0.1365 -0.1069
20634W        W34048   2.412   0.181   0.281  0.3032  0.1704 -0.3009
20635W        W34049   9.604   7.832  13.996  0.2904 -0.2161 -0.0686
20636W        W34050  18.090   6.742   5.382 -0.0199  0.0680  0.2175
20637W        W34051   5.852  11.962  12.215 -0.1160  0.0605  0.2416
20638W        W34052   8.496   3.689  14.796  0.2338 -0.1773  0.0552
20639W        W34053  14.093  13.367  14.656  0.2364  0.0849 -0.0040
20640W        W34054   4.539   8.705  12.139 -0.1378 -0.3246  0.2508
20641W        W34055   9.901  12.890  13.826  0.2412 -0.1011  0.1691
20642W        W34056   7.569  15.640   0.326  0.0557 -0.0105 -0.4625
20643W        W34057   5.673  11.221  15.553  0.1168  0.0885 -0.0014
20644W        W34058   1.858   9.690   5.435 -0.0059 -0.2021  0.0167
20645W        W34059   3.128  13.653  13.390 -0.3106  0.1550  0.2545
20646W        W34060  17.528  18.110  14.572 -0.1141  0.1772  0.1791
20647W        W34061  16.138   6.406   3.033 -0.0860 -0.2333 -0.1696
20648W        W34062   5.704  13.216  10.359 -0.0041  0.1672 -0.0806
20649W        W34063  11.068  16.206  13.357 -0.0414  0.0702 -0.1629
20650W        W34064   7.584   8.553   3.496 -0.1503 -0.0407  0.1797
20651W        W34065  13.300   2.876   3.083  0.0665 -0.3820 -0.1117
20652W        W34066  13.853  16.109   3.040  0.0320  0.0510  0.0878
20653W        W34067  16.383   0.597  13.007  0.0511  0.1602 -0.3736
20654W        W34068   8.177  14.131  13.804  0.0679  0.0469  0.0140
20655W        W34069   8.168  17.666   2.769  0.2440 -0.2390 -0.0964
20656W        W34070   9.881   5.807   0.865 -0.3240  0.2260 -0.0751
20657W        W34071  10.915   0.174   1.886  0.2414  0.0315 -0.2583
20658W        W34072  14.453   7.943   4.598  0.1563 -0.1794 -0.1215
20659W        W34073  12.736  17.576  11.156  0.2185  0.0755  0.3552
20660W        W34074   9.509  10.636   2.612  0.2193 -0.0487 -0.1076
20661W        W34075   6.937   3.483  13.967  0.2307  0.0211 -0.0449
20662W        W34076  11.871  16.772  11.855 -0.0179 -0.0543  0.1046
20663W        W34077  17.591  15.453  11.467 -0.0655  0.2403 -0.2507
20664W        W34078   9.978   4.200  14.027  0.1187  0.2865 -0.2220
20665W        W34079   7.097   2.543  10.128 -0.0552 -0.0068 -0.1258
20666W        W34080  10.327  13.523   0.850 -0.0189 -0.2604  0.1104
20667W        W34081   2.182   1.485  15.708 -0.2789 -0.1415  0.0579
20668W        W34082  16.242  12.092  11.258  0.0987 -0.1773 -0.1236
20669W        W34083  16.674   6.217   2.429  0.0239  0.0595  0.0196
20670W        W34084  13.755   3.267  10.222 -0.4064 -0.0012  0.0982
20671W        W34085   1.279   0.615  15.369 -0.2422 -0.3097 -0.0814
20672W        W34086   7.104  12.386   4.535 -0.0751  0.0435 -0.3541
20673W        W34087  17.442   1.460   6.396 -0.1146 -0.0272 -0.0732
20674W        W34088  13.022   0.252   1.066 -0.0240 -0.1906 -0.3178
20675W        W34089  13.815   7.795   1.061 -0.0071  0.0038  0.0874
20676W        W34090   2.156  17.542  12.329 -0.1104  0.1154  0.1253
20677W        W34091   4.558   4.936   2.129  0.0593 -0.0521 -0.0915
20678W        W34092  15.229  11.090   1.048  0.1436 -0.0276  0.2666
20679W        W34093  13.238  12.894   5.731  0.1456 -0.0257  0.1369
20680W        W34094   1.600  13.682   4.738 -0.0059 -0.0034  0.0726
20681W        W34095   2.884  10.802  14.445  0.0435 -0.1388 -0.0849
20682W        W34096  15.965  11.374  10.119 -0.3394  0.4659 -0.1651
20683W        W34097  12.768  15.704  14.158  0.0830  0.1902 -0.1344
20684W        W34098   6.968  18.184   0.183  0.5498  0.0948  0.0216
20685W        W34099   4.077   2.231   4.096  0.3202 -0.2035 -0.0863
20686W        W34100   7.954   7.593  14.256  0.2633 -0.1938 -0.0420
20687W        W34101   6.537   8.298   3.664  0.1020 -0.0045 -0.0082
20688W        W34102  17.764  17.869  12.949 -0.0842 -0.2090  0.0988
20689W        W34103  13.416  15.346  11.110  0.2860 -0.0976 -0.1357
20690W        W34104  17.717   0.610  14.885  0.0474  0.0155 -0.1009
20691W        W34105   7.800   0.304  14.094 -0.0826  0.1379 -0.0593
20692W        W34106   5.784   4.011   3.122  0.1662 -0.0670  0.0231
20693W        W34107  10.117  16.981  15.444 -0.1153  0.0961 -0.0919
20694W        W34108   6.955   6.033   1.026 -0.0335 -0.0399  0.1055
20695W        W34109   9.652  14.855   5.612  0.1353 -0.0835  0.1433
20696W        W34110  16.970   2.328  12.724  0.1298  0.4439 -0.2012
20697W        W34111   0.638   8.272  13.393  0.1147  0.1598 -0.2614
20698W        W34112   9.647  14.716   6.102 -0.1336  0.0076  0.0812
20699W        W34113  10.930  15.208   0.582  0.0047 -0.3812 -0.4606
20700W        W34114  14.706   4.164  11.215 -0.0042  0.2124  0.1240
20701W        W34115  11.633  16.079   0.623  0.0520  0.3890 -0.2115
20702W        W34116  15.022   4.344   1.746 -0.0704 -0.2279  0.5203
20703W        W34117   2.936   1.873  10.769  0.1108 -0.0319 -0.2215
20704W        W34118  14.110  15.305  14.172  0.0218 -0.0479  0.0958
20705W        W34119   6.861  11.214  11.813  0.0194 -0.1027  0.0250
20706W        W34120   3.916  13.176  15.339  0.0321  0.3817  0.1210
20707W        W34121   2.751   0.568   1.043 -0.3002 -0.2772 -0.0603
20708W        W34122   3.624  16.418   0.016 -0.0047  0.2816  0.1860
20709W        W34123   1.777  17.336  12.590  0.1919  0.2086  0.1404
20710W        W34124   3.229  17.094  12.088  0.0962  0.3047 -0.0158
20711W        W34125  17.308  11.484  14.824 -0.0614  0.0095  0.0194
20712W        W34126   0.021   6.823  16.388 -0.1179  0.2176 -0.0664
20713W        W34127   0.168  13.884   4.478  0.0661  0.0059  0.2286
20714W        W34128  11.890  16.110   3.812 -0.0517 -0.4433  0.1962
20715W        W34129   7.722   4.031  15.338  0.3353 -0.0151  0.1041
20716W        W34130   2.066  12.877   5.663 -0.2093  0.2606 -0.1116
20717W        W34131  13.282  16.227  11.058 -0.1022 -0.0985 -0.0444
20718W        W34132   4.268   1.821  12.987 -0.2046 -0.2672  0.4299
20719W        W34133   4.789   1.174   4.657 -0.0753  0.0449  0.0087
20720W        W34134   6.381  17.342  14.869  0.2594 -0.1255 -0.2910
20721W        W34135   0.329   6.212  15.945 -0.1470 -0.0135 -0.3046
20722W        W34136  14.939   5.966   0.821  0.0759 -0.1384 -0.1103
20723W        W34137  16.497   8.020   5.915 -0.3336 -0.0522 -0.2638
20724W        W34138   1.963  14.530  11.011 -0.0085 -0.1210 -0.3189
20725W        W34139  11.652  17.831  15.992 -0.1331  0.1114 -0.0262
20726W        W34140   9.982  15.308  15.223  0.0457  0.3462 -0.0065
20727W        W34141  11.285   0.705  11.006 -0.0936 -0.0651  0.0358
20728W        W34142  17.301  11.827   1.062  0.1342  0.0327  0.1074
20729W        W34143   3.308  14.902  15.006  0.1384 -0.1353 -0.0218
20730W        W34144  12.195   1.396   3.254  0.0974  0.3300  0.3267
20731W        W34145   9.919  14.775  14.063 -0.3284  0.0239 -0.1166
20732W        W34146   5.621  10.345   2.124 -0.1326  0.1027  0.0189
20733W        W34147  11.149  16.210   2.779  0.1495 -0.1089 -0.3126
20734W        W34148  17.492  15.705   2.980  0.0924 -0.5547 -0.0021
20735W        W34149  12.716   8.202  16.024  0.0669  0.0698  0.0374
20736W        W34150  15.636   8.602   3.837  0.1185  0.0115 -0.0166
20737W        W34151   1.423   4.306  15.644  0.4060  0.1938  0.1355
20738W        W34152   8.012  13.206  13.636  0.0958  0.0248  0.4843
20739W        W34153   7.774   8.764  11.602 -0.0624 -0.1446  0.2620
20740W        W34154   0.329   6.620   5.489  0.0209  0.1634 -0.1258
20741W        W34155  12.570  12.522   3.950 -0.0622 -0.0248 -0.0859
20742W        W34156   4.948   8.687   1.340 -0.1601 -0.1149 -0.2642
20743W        W34157  10.437   1.654   0.778  0.2192  0.0703  0.0531
20744W        W34158  10.030  15.163   0.909  0.0319  0.3475 -0.2093
20745W        W34159  12.536   6.757  13.179 -0.1132  0.0751  0.3791
20746W        W34160   2.132  17.066  11.860 -0.2567  0.2043  0.2795
20747W        W34161   4.561   8.143   5.727 -0.1072  0.0265 -0.1182
20748W        W34162   7.579  12.347  13.955  0.3228  0.2939  0.0360
20749W        W34163  14.400   1.173   0.462 -0.0322  0.1737  0.2956
20750W        W34164   2.079   2.804  11.704 -0.1020 -0.2292 -0.1248
20751W        W34165  17.053   6.001   5.384 -0.1219  0.0456  0.2023
20752W        W34166   0.642   4.720   2.471 -0.1733 -0.0214  0.1669
20753W        W34167  15.475  18.126   5.062  0.3623 -0.2131 -0.1397
20754W        W34168  13.083   2.328   2.767 -0.0114  0.0831  0.2842
20755W        W34169  10.877   6.613  11.365 -0.0697 -0.1691 -0.1242
20756W        W34170   3.812  17.199  14.882  0.0232  0.2850  0.0381
20757W        W34171  13.835   8.972   4.468 -0.1628 -0.0315  0.1457
20758W        W34172   0.961   9.857  14.478 -0.2621 -0.1115  0.4379
20759W        W34173   8.648   5.909   3.044  0.0465 -0.2420 -0.0592
20760W        W34174   0.235   5.700  13.596 -0.0829  0.1799 -0.0369
20761W        W34175   3.980  14.809   3.269  0.3043  0.1308  0.1627
20762W        W34176  17.399   2.816   0.705  0.3311 -0.2816 -0.2308
20763W        W34177   2.433  10.362  11.859  0.0173  0.4663 -0.0495
20764W        W34178   4.622  11.414   0.255 -0.0866 -0.2764 -0.2271
20765W        W34179   7.629   5.526   5.993 -0.0114 -0.1533 -0.0697
20766W        W34180   1.552   4.342  10.892  0.0405 -0.0979  0.0123
20767W        W34181   3.056   5.872   3.103  0.0118 -0.1624 -0.3087
20768W        W34182   3.275  12.230  11.205  0.0862  0.1207 -0.2049
20769W        W34183  16.150   7.290  11.576  0.1328  0.0578  0.1421
20770W        W34184   2.707   2.976  14.891 -0.3464 -0.1200  0.1351
20771W        W34185   0.167   8.953   5.094  0.1030  0.2818  0.3716
20772W        W34186  11.760  14.444  13.045  0.0671  0.0827 -0.1564
20773W        W34187   5.782  17.133  15.548 -0.0760 -0.1818  0.0986
20774W        W34188   7.136  14.719   2.593 -0.0023 -0.0227 -0.1422
20775W        W34189   8.881   0.489   1.991  0.1327 -0.0087 -0.0065
20776W        W34190   1.133  16.746   2.214  0.3185 -0.1318 -0.2245
20777W        W34191  17.428   6.975  13.338  0.2600 -0.2380  0.0267
20778W        W34192  17.959   8.446   2.694 -0.2917  0.0037  0.2198
20779W        W34193   4.613  17.765   1.365  0.1338  0.2924 -0.0490
20780W        W34194  10.720   6.850  15.708 -0.0844  0.1165 -0.2209
20781W        W34195   5.139  10.453   0.794  0.0745 -0.2444  0.1155
20782W        W34196  18.001  16.184   2.408 -0.1040 -0.2068  0.0169
20783W        W34197   2.997   9.599  14.473 -0.3345 -0.2354 -0.0134
20784W        W34198  11.466  16.990   0.431 -0.2067  0.0527 -0.1059
20785W        W34199   0.209  12.802  15.291  0.0243 -0.0651  0.0111
20786W        W34200   8.747  15.683  15.846  0.0991 -0.0868  0.2035
20787W        W34201  15.900   8.929   1.528  0.1143  0.3799 -0.0393
20788W        W34202  11.846  17.099   0.796 -0.0781  0.1841  0.0558
20789W        W34203   1.330   6.909   0.144  0.2278 -0.0120  0.1236
20790W        W34204  11.043   0.413  12.601  0.0234 -0.0597  0.2870
20791W        W34205   3.597   1.123  10.704  0.1595  0.2163 -0.0381
20792W        W34206   5.844  13.729  13.053  0.1511 -0.0762 -0.3165
20793W        W34207  11.471  12.705   0.762 -0.0221  0.0349 -0.1014
20794W        W34208  12.482   7.982   1.435 -0.1225 -0.1753 -0.2644
20795W        W34209   8.615   5.525  10.420 -0.1626  0.2147  0.1095
20796W        W34210  11.430   2.497  15.160 -0.1073  0.0705  0.2593
20797W        W34211  14.455  15.815   0.644 -0.1746 -0.1437 -0.0008
20798W        W34212  17.289   0.336  11.377 -0.0405  0.2649 -0.1152
20799W        W34213   0.776  16.524   6.178  0.1285  0.1254  0.1269
20800W        W34214  16.647   9.588   0.457  0.0630  0.0836 -0.1832
20801W        W34215   9.640  11.185   3.255  0.0791 -0.2156 -0.0127
20802W        W34216   5.921  11.314  11.476  0.0693  0.0917  0.0539
20803W        W34217  13.353   0.368  11.822  0.0072 -0.2901 -0.0402
20804W        W34218   8.498   1.225  13.451  0.0115  0.1621 -0.1663
20805W        W34219  16.927   8.364  13.511 -0.1786 -0.2571 -0.0516
20806W        W34220  10.684  15.753   4.963 -0.1320  0.1570 -0.1632
20807W        W34221  10.842  13.729   4.751  0.0901  0.3450  0.2502
20808W        W34222   2.999   9.550  11.098  0.0641 -0.2994 -0.4338
20809W        W34223   4.095   6.874  14.060  0.0027 -0.2197 -0.1700
20810W        W34224  16.267   0.528  11.233  0.1810  0.2110 -0.0985
20811W        W34225   2.021   2.094   5.234 -0.0204  0.2202  0.3000
20812W        W34226   8.741   0.050  16.155 -0.2401 -0.3763  0.0232
20813W        W34227   2.028   2.201  13.057 -0.0232  0.2087  0.1956
20814W        W34228  13.598   9.402  11.912 -0.1241  0.2023 -0.1162
20815W        W34229  11.444   1.912  14.131 -0.2007 -0.2964 -0.2633
20816W        W34230  13.861   5.288   4.193  0.2616  0.0512 -0.3203
20817W        W34231  10.236  13.957   3.658 -0.2036 -0.1502 -0.0128
20818W        W34232  17.907   9.244  11.340  0.3092 -0.1858  0.3601
20819W        W34233  17.686  14.669   5.717 -0.1383 -0.1247  0.1233
20820W        W34234   1.672  18.148  12.128  0.3210  0.2147 -0.1187
20821W        W34235  10.455  15.841   5.527  0.1924  0.0552  0.2231
20822W        W34236   6.844   8.783  11.883  0.3485  0.3533  0.2356
20823W        W34237  12.252  13.425  12.574 -0.0828  0.2624  0.0072
20824W        W34238  10.002   7.189  15.283  0.0439  0.1035  0.0355
20825W        W34239   7.788  12.581  11.689 -0.0822 -0.1293 -0.0160
20826W        W34240  17.921   7.270   5.616  0.1030 -0.1199 -0.1092
20827W        W34241   7.286  13.908  12.262  0.0401 -0.0673 -0.1269
20828W        W34242   0.297   8.320  10.665  0.0330 -0.0111 -0.0127
20829W        W34243  15.137  12.460   5.449  0.0091  0.1632 -0.0342
20830W        W34244   7.606  17.376  12.755 -0.1772 -0.0983  0.2789
20831W        W34245   4.745  15.257  15.679  0.2506 -0.4749  0.1840
20832W        W34246   5.567  17.933   2.621  0.0776  0.5230  0.2967
20833W        W34247   6.894   5.170  14.917 -0.1276  0.2917 -0.1411
20834W        W34248   6.986   9.437   2.700 -0.0861  0.1505  0.1815
20835W        W34249   5.268   8.233  15.444 -0.0866 -0.2361 -0.0243
20836W        W34250  12.807   5.046  10.701  0.2680  0.1354 -0.1230
20837W        W34251  15.081   6.249  10.138 -0.0127  0.3514 -0.1413
20838W        W34252   2.252  15.250   6.045  0.3008  0.0176  0.3092
20839W        W34253   8.874   1.767   2.294  0.0362 -0.1005  0.0077
20840W        W34254  16.410   8.034   2.543  0.0361 -0.0283  0.0192
20841W        W34255  13.489   2.332  10.171  0.2065  0.0789  0.0030
20842W        W34256   1.322  13.431   5.557  0.0141 -0.1335  0.0144
20843W        W34257   5.987  13.852   3.829 -0.3226 -0.0765 -0.1395
20844W        W34258  11.106   8.047  10.945 -0.1557 -0.0724  0.0034
20845W        W34259  13.152   3.422  10.995 -0.0988  0.2924 -0.2777
20846W        W34260  15.640  18.215   1.695 -0.0498 -0.1261  0.0697
20847W        W34261   5.135  11.547   1.690 -0.0411 -0.2971 -0.1207
20848W        W34262   4.247   3.180  15.770  0.0576  0.0137  0.1108
20849W        W34263  14.776   4.794   0.084  0.0885 -0.1772  0.0526
20850W        W34264  11.740  10.339  13.364  0.0994 -0.0127 -0.0698
20851W        W34265   2.294  13.307  11.699 -0.2675 -0.1391 -0.1693
20852W        W34266  10.680  12.691   9.894  0.3199 -0.0796  0.0490
20853W        W34267   6.134  12.544  12.647 -0.0078 -0.1621 -0.2064
20854W        W34268  15.008  12.871   1.543  0.0725  0.0220  0.2898
20855W        W34269  10.218   5.340  11.224 -0.0731 -0.2509 -0.0956
20856W        W34270   2.598   4.432   5.582 -0.3017 -0.2445 -0.1730
20857W        W34271  15.254  16.994   2.329  0.1205 -0.0564 -0.1752
20858W        W34272  11.054  11.385   5.320  0.1386  0.0477 -0.1428
20859W        W34273  13.142  15.667   4.140 -0.2871  0.0815  0.1185
20860W        W34274   2.458   7.172  15.569 -0.0453 -0.2413  0.3474
20861W        W34275  18.098  11.912   2.724  0.0493 -0.2863  0.0521
20862W        W34276  17.827  17.444   0.350  0.0893  0.2439 -0.6169
20863W        W34277   3.375   4.372   1.798  0.2123  0.1189  0.2298
20864W        W34278  18.120  15.909   3.776  0.0864  0.3072 -0.1118
20865W        W34279  13.081   9.991   0.629  0.2355  0.1781 -0.0658
20866W        W34280  11.310   8.979  13.883  0.1375 -0.1025  0.1951
20867W        W34281  10.945   4.115  11.163  0.2407 -0.0290 -0.0510
20868W        W34282  14.232   0.419   1.086  0.1770  0.0233  0.3108
20869W        W34283   3.503   6.350   0.449 -0.1706  0.1443  0.2852
20870W        W34284   7.910  15.909   0.079 -0.1070  0.0920 -0.0081
20871W        W34285   8.291  15.547  11.632 -0.0951 -0.1166  0.0522
20872W        W34286   4.362  14.228   4.411 -0.3571  0.3774 -0.1188
20873W        W34287   0.325   9.563   1.680  0.2238 -0.2120  0.1796
20874W        W34288   5.381  12.496   5.534  0.0426 -0.1164  0.2657
20875W        W34289   0.320  11.909   0.724 -0.0603 -0.1987 -0.0552
20876W        W34290  16.781   3.128  12.248 -0.0693 -0.2144  0.1217
20877W        W34291   5.081  15.140   5.026  0.0756 -0.1484 -0.1406
20878W        W34292  17.323  18.125   2.933  0.0984  0.0107  0.0239
20879W        W34293   1.409   7.440   4.444  0.0092 -0.3359  0.0308
20880W        W34294   0.463  13.037   5.641 -0.2761  0.2313  0.0863
20881W        W34295  16.258  15.479  14.572 -0.2370  0.1846  0.0021
20882W        W34296  12.177  13.597  10.038  0.3089  0.0417 -0.2747
20883W        W34297   6.638  15.887  14.451 -0.0856 -0.2186  0.1537
20884W        W34298  12.777  12.933   4.190 -0.1540 -0.0917  0.1586
20885W        W34299   3.210   5.745   2.192 -0.2147 -0.3490 -0.1498
20886W        W34300   1.809  12.565   2.790 -0.0411  0.0170  0.1010
20887W        W34301  13.550   7.036  13.188 -0.0648  0.0794 -0.0964
20888W        W34302  11.521   0.575  16.262  0.0704  0.1244  0.0484
20889W        W34303   8.956  15.103   0.379  0.2500  0.0741 -0.0859
20890W        W34304   2.134   6.019   3.912 -0.1720 -0.0119  0.1679
20891W        W34305   8.808   3.217   0.574  0.3800 -0.0265  0.1541
20892W        W34306  12.507  14.640  11.707 -0.1929  0.0676  0.0822
20893W        W34307  14.626  11.452  16.239  0.1696  0.0459  0.2770
20894W        W34308  13.043  17.488  10.741  0.1212  0.1110  0.2450
20895W        W34309   0.883  11.094  13.758 -0.2974  0.2429  0.2309
20896W        W34310   4.318   0.153   2.230 -0.0683 -0.0148  0.0376
20897W        W34311   0.646   5.693  10.337  0.2480  0.0306 -0.1820
20898W        W34312   2.578   9.363   0.820  0.3304 -0.1960 -0.2277
20899W        W34313   7.937   4.666   4.563 -0.2113  0.0440 -0.2427
20900W        W34314  12.375   6.335  10.876  0.0653  0.1214  0.2752
20901W        W34315   1.314   9.402   6.412 -0.0188  0.1803  0.0024
20902W        W34316  18.183   0.446   4.699 -0.2317  0.0009 -0.0930
20903W        W34317   3.488  17.161   1.110  0.1764  0.0622  0.0357
20904W        W34318   5.680   7.275  11.076  0.2218 -0.0481 -0.0160
20905W        W34319   9.916   8.148  11.406 -0.3394 -0.0119  0.3392
20906W        W34320   9.268  12.287  13.599 -0.0832  0.2414 -0.0009
20907W        W34321   4.501   5.572  16.203 -0.0592 -0.1858  0.0990
20908W        W34322  17.570  16.936   4.709  0.0396 -0.2017  0.1247
20909W        W34323   0.802   3.592   3.613  0.0522 -0.1974  0.1165
20910W        W34324  10.545   5.600  12.495 -0.0316  0.2000 -0.1512
20911W        W34325   9.154   6.357  12.344  0.0410  0.1932 -0.1791
20912W        W34326  12.561  13.771   3.085 -0.2423  0.0101  0.3389
20913W        W34327  16.497   3.931  14.780  0.1827 -0.1601 -0.3001
20914W        W34328  14.924   4.112   4.127 -0.2976 -0.1012  0.1150
20915W        W34329  13.158   0.580   5.595  0.2182 -0.0944 -0.1712
20916W        W34330   7.954   7.968   2.827  0.1229 -0.0330 -0.0084
20917W        W34331   3.010  17.079  14.792  0.0229 -0.2675 -0.0672
20918W        W34332  10.990   0.686  15.716  0.0032 -0.1450 -0.0880
20919W        W34333   0.084   5.722  13.116  0.2548  0.1643  0.0602
20920W        W34334   2.261   7.949  15.819 -0.1010  0.0329 -0.2422
20921W        W34335   5.010  12.216   2.754  0.0478  0.2534  0.1790
20922W        W34336   8.379   8.385   4.030  0.0894 -0.2305  0.1362
20923W        W34337   2.345   4.777   3.506 -0.1765 -0.1585 -0.0510
20924W        W34338  16.363  16.386   2.167  0.0527 -0.0198 -0.1683
20925W        W34339  14.370  12.749   1.706 -0.2392 -0.2016  0.0891
20926W        W34340  13.508   6.613   4.065  0.0500  0.1169  0.1396
20927W        W34341   0.538   4.681  10.860 -0.2730 -0.0844 -0.3367
20928W        W34342   7.227   2.525  14.835 -0.2720  0.1231 -0.1343
20929W        W34343   6.233   2.754  16.343  0.1406 -0.0473 -0.3177
20930W        W34344  13.295  13.666  13.249  0.1752  0.0393 -0.0166
20931W        W34345   3.963   5.481  14.715 -0.0696 -0.0944  0.0685
20932W        W34346  10.717   4.158   5.228 -0.1771 -0.0026 -0.0922
20933W        W34347  15.164  14.820  16.023  0.1129  0.0871  0.5447
20934W        W34348   6.302   6.768  12.996 -0.1720  0.3784  0.0795
20935W        W34349   3.734  10.614  15.179 -0.2288 -0.1295  0.0717
20936W        W34350  16.252  13.478   0.348 -0.3377  0.1167 -0.1389
20937W        W34351   5.388  12.523  16.254 -0.1787 -0.0433  0.2126
20938W        W34352  17.635  16.065  14.134  0.2076  0.0248 -0.3253
20939W        W34353   8.157   1.454   4.452  0.1071  0.0071  0.2209
20940W        W34354  15.020   6.866   6.295  0.2954 -0.0752  0.0739
20941W        W34355  17.960  14.385  15.026  0.0138 -0.0685 -0.1463
20942W        W34356   2.978  14.144  13.535 -0.0483  0.2683  0.1063
20943W        W34357   9.223   7.063   5.713  0.0612  0.1324  0.1191
20944W        W34358  10.621  14.075   1.226 -0.0864  0.1193  0.0253
20945W        W34359  15.917   7.522  14.876  0.1746  0.2339 -0.0572
20946W        W34360  12.550   4.859  15.907 -0.1185  0.3883 -0.4375
20947W        W34361  10.682   7.504  14.801  0.2278 -0.2468  0.0450
20948W        W34362  15.719  10.491   2.667 -0.2392 -0.2000 -0.0501
20949W        W34363   2.870   5.666  11.362  0.2292  0.0315 -0.0480
20950W        W34364   6.937   1.883  14.762 -0.0782  0.0047  0.1029
20951W        W34365  11.774   5.860  14.242 -0.1624  0.1300  0.1714
20952W        W34366   0.065  13.585  12.176  0.1963 -0.1332  0.1522
20953W        W34367  10.244   9.810   0.247  0.0040 -0.0112  0.1907
20954W        W34368   4.561  16.408   5.443 -0.0044 -0.1769  0.0293
20955W        W34369   8.203  10.064  13.190  0.0986 -0.0096 -0.0573
20956W        W34370   5.105   5.085  14.946  0.1750  0.0484 -0.2849
20957W        W34371  12.301   2.448  11.343 -0.0476 -0.0914  0.1994
20958W        W34372   2.485   8.866  11.130 -0.2586  0.0513  0.2288
20959W        W34373  12.996   0.815  11.592  0.0251 -0.0359 -0.0622
20960W        W34374  12.098   9.880  16.470 -0.0178 -0.2630  0.1223
20961W        W34375  18.071  12.841  15.687  0.2567  0.0339 -0.0362
20962W        W34376   2.552  15.247   6.847 -0.3516 -0.0006 -0.0826
20963W        W34377  10.598   1.991  11.763 -0.1485 -0.1447  0.1333
20964W        W34378   1.743  11.723   2.928 -0.3486  0.2860  0.3253
20965W        W34379  12.755  17.474   2.886  0.1723  0.2025  0.1757
20966W        W34380   6.662   8.145   2.805  0.3079 -0.0194  0.0822
20967W        W34381   3.665  10.855  11.410 -0.0668  0.1751 -0.3451
20968W        W34382   1.624   4.444   3.468 -0.0289  0.2306 -0.1420
20969W        W34383  16.697   3.611  15.905 -0.0433  0.2023 -0.1346
20970W        W34384   0.840   2.408   2.372 -0.1107 -0.1086 -0.0104
20971W        W34385   5.486   9.751   2.833 -0.1803  0.0322 -0.1548
20972W        W34386   4.493  12.898  15.440  0.0741 -0.0479 -0.2384
20973W        W34387   3.624   0.890   4.418 -0.4289  0.1263 -0.2549
20974W        W34388   2.411  12.274  11.314  0.0568  0.1977  0.0320
20975W        W34389   2.099   4.270   5.505 -0.2802  0.0539  0.4585
20976W        W34390  16.020  12.256  11.705 -0.0185  0.0923  0.2942
20977W        W34391   9.852   0.958   1.604 -0.4078 -0.1797  0.0413
20978W        W34392  14.991   0.037   4.455  0.2432 -0.0945  0.0244
20979W        W34393   2.059  12.821   0.735  0.4932  0.2803  0.2399
20980W        W34394   5.357   1.019  14.301 -0.2803  0.0797 -0.2787
20981W        W34395  14.919  15.317  13.026 -0.1144  0.0409 -0.2145
20982W        W34396   3.969  11.570  15.218 -0.3670  0.0537 -0.0886
20983W        W34397   7.928   1.674   2.682  0.0789  0.1272  0.1799
20984W        W34398  14.776  16.552  16.118 -0.1200 -0.0995  0.0333
20985W        W34399   7.927  13.366   3.008  0.0301 -0.0526 -0.2482
20986W        W34400   6.005  11.188  13.754  0.0275  0.1478  0.4357
20987W        W34401   9.494   1.847  15.589  0.3702 -0.0196  0.1838
20988W        W34402   8.572  13.114  15.375  0.0020  0.2235  0.0394
20989W        W34403   3.914   4.179   2.668  0.1322 -0.3495 -0.0706
20990W        W34404   5.213   6.930   5.070  0.0507  0.3488  0.2138
20991W        W34405  10.543   5.526  10.832 -0.0119  0.0806  0.0764
20992W        W34406  14.057   8.588   2.769 -0.0473 -0.0634 -0.0296
20993W        W34407  13.642  16.977   2.138  0.0924  0.3385  0.2005
20994W        W34408  17.943   3.832  14.563  0.1304  0.0002 -0.1529
20995W        W34409   0.725  10.303   1.096  0.1435  0.0729 -0.1025
20996W        W34410   0.491   3.019  12.677 -0.1743 -0.3070  0.0165
20997W        W34411   7.168   5.522   1.328 -0.1253 -0.2951 -0.1804
20998W        W34412  11.196  12.951   3.718 -0.1896 -0.1546  0.2097
20999W        W34413  11.061  16.476   5.091 -0.0750 -0.2227  0.0198
21000W        W34414   5.692  11.714  11.193 -0.0182 -0.1306  0.1723
21001W        W34415   7.050  13.636   1.624  0.4403 -0.4595  0.1095
21002W        W34416  17.537   8.530   1.978  0.0948  0.1607 -0.0944
21003W        W34417  11.009  16.590  13.007 -0.0226  0.1172 -0.1027
21004W        W34418   0.510   7.018   4.127 -0.0040 -0.0390  0.0883
21005W        W34419  12.512   4.034  12.065 -0.1467  0.0550 -0.0136
21006W        W34420   0.233   3.724  15.797 -0.0460 -0.0860  0.0381
21007W        W34421   6.385   0.300  14.207  0.0200 -0.3470 -0.0685
21008W        W34422  13.117   0.582   4.712  0.1853 -0.2918 -0.0876
21009W        W34423  15.624   7.922  13.263  0.0868  0.2721  0.1119
21010W        W34424  14.942  12.995  12.146  0.1102 -0.3544 -0.0864
21011W        W34425   8.858   0.899   0.649  0.2722  0.2447 -0.0742
21012W        W34426  15.259   8.670  14.959  0.0933  0.0843 -0.1131
21013W        W34427   9.426   5.044  14.188  0.0615  0.0445  0.0081
21014W        W34428  16.345  12.702   2.451  0.1451 -0.1510 -0.0377
21015W        W34429   6.022   6.446  10.919  0.1630  0.0768 -0.2527
21016W        W34430   3.686  14.238   5.104  0.3322 -0.0264 -0.4135
21017W        W34431   9.930   8.038   1.748  0.4034  0.0893  0.0848
21018W        W34432  16.305   9.905   1.623  0.0288  0.3504  0.0647
21019W        W34433   7.410  12.773  13.076 -0.3236 -0.0186  0.1592
21020W        W34434  17.892  17.471   4.052 -0.3403  0.2105  0.2265
21021W        W34435   5.080   9.188   4.860 -0.4632 -0.1360 -0.2382
21022W        W34436   1.658   3.495   0.487  0.0698  0.2201 -0.2410
21023W        W34437  16.380   4.620   5.324 -0.0779 -0.0116  0.1872
21024W        W34438  13.834  12.685  13.324 -0.1100 -0.0666  0.2549
21025W        W34439  11.540   6.130  10.333 -0.0360 -0.0118  0.2509
21026W        W34440   1.935   1.673   3.010  0.1904  0.0029 -0.0052
21027W        W34441   8.867  12.535  13.673  0.0523  0.1066  0.1589
21028W        W34442   3.540  11.833   4.003 -0.0282  0.3382  0.1127
21029W        W34443  15.710  14.281  10.728  0.0313  0.1399  0.0756
21030W        W34444   8.260   5.969  16.187 -0.1847  0.0492  0.1209
21031W        W34445  10.769   4.754   1.946  0.1024  0.1451  0.2947
21032W        W34446   1.327   6.684  14.914 -0.1353  0.0321 -0.1296
21033W        W34447  17.770   1.706  11.635 -0.0674  0.3157  0.1168
21034W        W34448  14.466   0.207  14.205  0.0912 -0.5188 -0.1531
21035W        W34449   7.478   1.861  10.275  0.3363  0.4667 -0.0118
21036W        W34450   9.143  17.300  11.603 -0.1486  0.0682  0.1250
21037W        W34451   7.674  15.125   3.381  0.0029  0.3549 -0.4148
21038W        W34452   1.198   3.917  11.662  0.0714 -0.1441 -0.0437
21039W        W34453  14.292  12.431   2.880 -0.0260  0.0822 -0.0466
21040W        W34454   9.792  10.177   0.306 -0.0168  0.2039  0.3586
21041W        W34455  12.932  12.148  11.879 -0.1404  0.5343 -0.3251
21042W        W34456   4.614   6.226  14.482 -0.1627 -0.0603 -0.2217
21043W        W34457  10.559  12.971  12.153 -0.2941  0.2788  0.2625
21044W        W34458   5.945  11.547  13.441  0.0743  0.0087  0.1070
21045W        W34459   2.689  12.528  13.531 -0.1044 -0.0278  0.1555
21046W        W34460   3.840   3.857   4.062 -0.0633 -0.1319  0.0686
21047W        W34461   1.659  11.811  10.787  0.0607  0.0820  0.1268
21048W        W34462  11.394   3.773  15.049 -0.0462 -0.3378  0.0344
21049W        W34463  16.831   2.804  15.654  0.1195 -0.1974  0.1140
21050W        W34464  12.994  15.827  11.016  0.1367 -0.0967  0.0180
21051W        W34465   1.992  13.921  15.594 -0.2840 -0.0548  0.0218
21052W        W34466   1.572   8.210   1.407 -0.1676 -0.2797  0.1906
21053W        W34467  12.652   5.689   1.768  0.1777  0.0433 -0.0781
21054W        W34468   2.336  14.951   6.444  0.1244  0.2207  0.1537
21055W        W34469  16.288   6.942  15.237  0.0900 -0.0596  0.1258
21056W        W34470   2.428   1.828   0.009  0.0785  0.2405 -0.2373
21057W        W34471   2.971  15.258  11.181  0.1887  0.0228  0.2227
21058W        W34472  18.031   2.409  14.809  0.1038 -0.2658  0.0414
21059W        W34473  10.759   2.741   9.975 -0.1508 -0.2802  0.0114
21060W        W34474  17.931   9.744   5.067 -0.2843  0.0018  0.1920
21061W        W34475  15.986  12.779  14.262  0.0196  0.4787 -0.0939
21062W        W34476   9.225  12.278   3.946 -0.4881  0.0061  0.0639
21063W        W34477  14.650  10.707  12.481 -0.2019  0.4251 -0.1981
21064W        W34478  14.794   0.955   1.718  0.0410 -0.2502 -0.1197
21065W        W34479   1.024   6.609   1.828 -0.0462  0.1791 -0.1920
21066W        W34480   0.131  12.854   2.766  0.0727  0.0475 -0.1521
21067W        W34481   8.341   8.355   0.819  0.1047  0.1733 -0.0965
21068W        W34482  16.091   1.007   3.207  0.1563  0.2656 -0.1755
21069W        W34483  12.470   7.544  11.599  0.2665 -0.0240  0.2248
21070W        W34484   1.211  12.430   3.612  0.1721 -0.1039  0.0358
21071W        W34485  10.594  11.897   4.952 -0.3699 -0.2334 -0.0842
21072W        W34486  10.810   2.253  15.221  0.0269  0.0058 -0.0464
21073W        W34487  10.432  14.710  11.872 -0.1260  0.3097 -0.1519
21074W        W34488   3.933  12.869   1.440  0.2233 -0.1099  0.1459
21075W        W34489  16.674   0.676   1.185  0.0590 -0.0943 -0.0714
21076W        W34490   7.159   8.642   3.313 -0.2481 -0.0424 -0.3394
21077W        W34491   8.470   1.702  13.703 -0.0181  0.2344  0.4999
21078W        W34492  15.099   5.886  11.913 -0.0911  0.0285 -0.2208
21079W        W34493  12.339  15.920   2.749 -0.1511  0.0092  0.0325
21080W        W34494  17.888   9.076  15.548  0.2220  0.0873  0.0505
21081W        W34495   0.328   1.337   4.732 -0.1881  0.1669  0.1757
21082W        W34496   4.300   7.069   3.399 -0.0792 -0.0815 -0.0300
21083W        W34497  13.230   9.049  12.075  0.0061 -0.0204 -0.3164
21084W        W34498  14.487  17.472   5.535  0.1272 -0.2297 -0.2181
21085W        W34499  16.206  17.221   5.206 -0.0053 -0.6119  0.0590
21086W        W34500  14.737  17.567   0.170 -0.0459 -0.0653 -0.3280
21087W        W34501   4.833   1.312  13.619 -0.2667 -0.0380  0.0869
21088W        W34502  12.842   9.058  15.579 -0.1469  0.1143 -0.2324
21089W        W34503  10.104   3.233  13.575  0.0145  0.0121  0.0033
21090W        W34504   4.617   0.482  12.888  0.0764 -0.2284  0.0270
21091W        W34505   6.569  16.190  10.351 -0.0953  0.0178 -0.0973
21092W        W34506  17.482  12.010  14.926  0.1088  0.0538 -0.2694
21093W        W34507   5.670   8.313   3.341 -0.1610 -0.2491 -0.0852
21094W        W34508   5.886  15.798   2.645  0.0535  0.0208 -0.0152
21095W        W34509   9.395   8.921  13.800 -0.0582  0.3286  0.2041
21096W        W34510  15.320  13.178  14.900 -0.0965  0.0164 -0.3226
21097W        W34511  16.874  17.322   0.476  0.0386 -0.3424 -0.2336
21098W        W34512  13.374   5.289  14.365  0.0860 -0.0548  0.0687
21099W        W34513  12.262  10.950  13.020  0.2458 -0.1137 -0.0228
21100W        W34514  10.934  17.246   3.840  0.2514 -0.3673 -0.0351
21101W        W34515  17.243  10.226   1.565 -0.0153 -0.0079  0.1065
21102W        W34516  18.064   2.005  13.560  0.3372 -0.0698  0.0645
21103W        W34517  10.079   5.156  13.930  0.4052  0.1172  0.0570
21104W        W34518   8.681  18.182   4.901 -0.1090  0.4355 -0.0968
21105W        W34519   2.990  14.780   1.288 -0.0163  0.1306  0.0732
21106W        W34520   9.969   1.984   3.052 -0.0194  0.0570 -0.0462
21107W        W34521  14.290   3.432   3.779 -0.1606  0.0211  0.0767
21108W        W34522   7.778  12.110   0.918 -0.0722 -0.0836  0.2099
21109W        W34523  16.140  11.915  12.317 -0.2385  0.2571  0.1080
21110W        W34524  11.315  10.232   4.658  0.0309  0.0697 -0.0602
21111W        W34525  16.352   7.659  11.258  0.0644  0.1552 -0.1169
21112W        W34526   7.454   5.906  12.123  0.0607  0.2385 -0.2726
21113W        W34527   3.328  14.290   1.790 -0.0717 -0.2096 -0.2738
21114W        W34528   8.947   3.434  13.635  0.0071  0.2315  0.4377
21115W        W34529   5.727  16.334   3.623 -0.1286  0.0465 -0.1272
21116W        W34530  17.699  10.419   1.576 -0.0697 -0.0825 -0.1858
21117W        W34531  12.056   8.585  14.619  0.1387 -0.0145 -0.3993
21118W        W34532   6.150  14.762   3.614 -0.1417  0.0008  0.1322
21119W        W34533  10.931   9.628   5.158  0.2773  0.3269 -0.0927
21120W        W34534   2.807   6.183   6.397 -0.3786 -0.0279  0.0379
21121W        W34535  15.453  15.001   1.015  0.0855 -0.0682 -0.2136
21122W        W34536   1.163   7.746   3.630  0.1082  0.1007  0.0648
21123W        W34537  13.911   0.910   4.726 -0.0355  0.1540 -0.0500
21124W        W34538   6.235   7.590  16.465  0.1630  0.0638 -0.4943
21125W        W34539   7.180   6.485  16.313  0.0487 -0.0211 -0.1923
21126W        W34540   1.421   9.777  15.270 -0.2887  0.0536  0.1190
21127W        W34541  15.099  13.847  14.201  0.0462 -0.2051  0.3982
21128W        W34542  13.820   7.532  11.465 -0.0776 -0.1462 -0.1214
21129W        W34543   3.105   3.845   2.865  0.1031 -0.0999 -0.2990
21130W        W34544  14.065  18.111   4.899  0.0684 -0.1479 -0.0560
21131W        W34545   1.615   4.392   4.392  0.0541 -0.0662 -0.0225
21132W        W34546   2.189   6.913  12.729 -0.0859  0.1366 -0.2626
21133W        W34547   1.305  17.385   1.757  0.0780  0.0125  0.2001
21134W        W34548   4.016   4.985   1.992  0.2067 -0.0231 -0.2501
21135W        W34549  16.310  11.033  15.261 -0.4977 -0.2125 -0.1597
21136W        W34550   7.279   7.937  11.333  0.2180 -0.0951  0.2249
21137W        W34551   6.066   5.421  16.117  0.1051  0.0252 -0.3267
21138W        W34552   6.370  13.384  13.046 -0.2465 -0.1043  0.1756
21139W        W34553  13.586  16.337   5.501  0.2910 -0.1954 -0.0654
21140W        W34554  11.480   9.760  10.448 -0.0596 -0.3354  0.2527
21141W        W34555   6.499   3.445  12.195 -0.1087 -0.1397  0.1377
21142W        W34556  16.747   8.583  11.077 -0.0658 -0.0915 -0.1337
21143W        W34557   6.470   4.401  13.183 -0.1993  0.0932 -0.2010
21144W        W34558   2.975  16.426  12.670 -0.2431 -0.1336 -0.1785
21145W        W34559   5.129  12.929  12.899 -0.1586  0.0206 -0.0955
21146W        W34560   7.423  14.505   1.904 -0.0808 -0.0216 -0.0361
21147W        W34561   6.701   2.645  14.959  0.1232 -0.2832  0.3134
21148W        W34562  13.047  10.266  15.851 -0.1194  0.1763 -0.0891
21149W        W34563   1.638   4.943  14.794  0.1630  0.1634 -0.3950
21150W        W34564   0.733   7.379   3.730  0.2266  0.1052  0.0600
21151W        W34565  12.562  14.698   2.088 -0.3279 -0.3807 -0.2429
21152W        W34566  17.830   9.694   1.058  0.0809 -0.1093 -0.2720
21153W        W34567  11.232  16.574  15.280  0.0512 -0.3929 -0.1059
21154W        W34568  12.665  11.513  15.698  0.1122 -0.0554 -0.0636
21155W        W34569   1.951   5.112  15.735  0.0302 -0.1100 -0.0010
21156W        W34570  15.179   9.586   1.156 -0.0252  0.0378 -0.2634
21157W        W34571   2.100  16.980   5.358 -0.0112 -0.1776  0.1029
21158W        W34572  13.953   7.411   5.137  0.1302  0.0402  0.0057
21159W        W34573   4.004   3.357  14.905  0.1457  0.1351 -0.2832
21160W        W34574   4.089   4.793  16.053  0.0762  0.3780  0.3516
21161W        W34575   6.144   7.733  13.404  0.0758  0.0474  0.1591
21162W        W34576   9.354  10.464  13.393  0.0898 -0.0816  0.1286
21163W        W34577   8.560   3.315   3.450 -0.0452  0.0447 -0.0259
21164W        W34578  17.465  12.576   0.450  0.0989 -0.1247 -0.1166
21165W        W34579   6.454  16.382   2.993  0.3171  0.1929 -0.0279
21166W        W34580   4.476   2.559  12.312  0.0054  0.0038  0.1225
21167W        W34581  16.757   1.915  12.788  0.1337 -0.3898 -0.1066
21168W        W34582  18.121   7.122  12.570 -0.0823  0.0011  0.0682
21169W        W34583   3.249   3.191  10.913 -0.0919  0.0310 -0.0912
21170W        W34584   1.653   8.771   5.743 -0.0581  0.1511  0.3166
21171W        W34585   1.538  11.549  15.309 -0.1627  0.0551  0.2406
21172W        W34586  12.988  15.827   0.162  0.0616 -0.1139  0.0584
21173W        W34587   5.660  12.660   0.910  0.2355  0.1548 -0.1830
21174W        W34588  10.565   7.120  15.147 -0.2505  0.0450 -0.1282
21175W        W34589  12.195   6.475  12.223 -0.0160 -0.0513 -0.2861
21176W        W34590   9.939   7.670   0.208  0.4074  0.3208 -0.2367
21177W        W34591  11.793  11.829  15.970  0.0705 -0.1384 -0.0340
21178W        W34592  17.242  17.561   0.763 -0.1706  0.3484  0.0245
21179W        W34593   2.982   3.028  12.652  0.3438 -0.1440  0.0895
21180W        W34594   9.250   4.391  14.610  0.1350 -0.0983 -0.3750
21181W        W34595   7.904  11.347   4.089  0.1248  0.0549 -0.0235
21182W        W34596   0.216  16.438  14.096  0.1690 -0.0937 -0.2243
21183W        W34597  11.175   4.078  11.972  0.1677 -0.0528 -0.1886
21184W        W34598  11.513   7.417  11.686 -0.0214  0.0552 -0.2005
21185W        W34599  12.756  10.388   3.430  0.0219  0.0715  0.2882
21186W        W34600   3.969  13.432  13.803  0.0638 -0.0904  0.1888
21187W        W34601   4.882  17.373  16.452  0.0327  0.2901  0.2126
21188W        W34602  11.044  12.439  15.900  0.1624  0.1458 -0.2364
21189W        W34603  14.740  14.769  16.361  0.1257 -0.2356  0.2114
21190W        W34604   5.571  13.888   5.345 -0.0015  0.1875  0.1570
21191W        W34605   0.015  11.382  10.869 -0.0874  0.0114  0.0042
21192W        W34606   9.462   2.054   4.032 -0.0454 -0.0315 -0.0329
21193W        W34607  16.433   3.207  12.657 -0.0659  0.0608  0.0325
21194W        W34608   6.926   6.887  15.999 -0.0599  0.1639 -0.0658
21195W        W34609  13.955  17.759  14.528 -0.2876 -0.1111  0.5005
21196W        W34610  15.542   3.087   3.612  0.0056 -0.2900 -0.1651
21197W        W34611  17.075   7.085   6.698  0.1164 -0.0444  0.2750
21198W        W34612  10.680  17.935  15.589 -0.4391  0.0539  0.0042
21199W        W34613   4.446  13.501  10.827  0.2209  0.0326  0.4686
21200W        W34614   1.664   0.117   5.202 -0.2916 -0.0792 -0.2736
21201W        W34615  14.697   6.211  10.437  0.3754 -0.1445 -0.0661
21202W        W34616  10.585   5.619  13.285 -0.2227 -0.5395 -0.0571
21203W        W34617   3.843  17.749   2.127 -0.1401  0.3666 -0.0489
21204W        W34618   6.476   5.390  14.860  0.0389  0.3468 -0.1108
21205W        W34619  12.904  15.398  14.830 -0.2137 -0.1645 -0.0214
21206W        W34620   1.553  13.391   2.548  0.1473 -0.1582  0.1786
21207W        W34621   8.762  17.351  13.618 -0.1110 -0.2259  0.0621
21208W        W34622  18.252  15.230   2.828  0.1266 -0.2935  0.0923
21209W        W34623  12.787   3.638   6.181 -0.3766  0.1668 -0.1093
21210W        W34624  17.489  13.020   3.536  0.2955  0.0571  0.1685
21211W        W34625  14.608  16.511   5.185 -0.1811 -0.0201 -0.2615
21212W        W34626   8.676  11.106   3.574 -0.1482 -0.2274 -0.0543
21213W        W34627   7.849   0.052   1.104  0.0045 -0.0168  0.1085
21214W        W34628   5.448   3.313  13.235  0.2563  0.1428  0.2143
21215W        W34629   1.058  10.704   1.348  0.2742  0.0068  0.2686
21216W        W34630  16.614  15.030  11.367  0.0761  0.0412 -0.0975
21217W        W34631   3.852  14.697   1.858 -0.1475 -0.1140 -0.1201
21218W        W34632  13.844   4.889   0.029  0.1921 -0.2210  0.1312
21219W        W34633  10.730   3.749  12.691 -0.5267  0.0899  0.1300
21220W        W34634   3.449   9.094   6.242 -0.3453 -0.1676 -0.0808
21221W        W34635   1.482  12.746  14.572 -0.0352  0.1746  0.2223
21222W        W34636  11.666   4.639  13.937  0.0127 -0.1549  0.0732
21223W        W34637   2.711  12.811   4.279 -0.1920 -0.3135 -0.1757
21224W        W34638   1.835   1.252  12.606 -0.1442  0.0060  0.0177
21225W        W34639   6.667  13.203   3.077 -0.3325  0.0423 -0.1657
21226W        W34640  10.423  16.174  11.865  0.0674  0.1723  0.2122
21227W        W34641   0.505   6.933  11.937 -0.0889 -0.0466 -0.2886
21228W        W34642  17.370  14.962   2.851 -0.1838 -0.0738  0.0420
21229W        W34643   8.862   7.559   6.375 -0.1741 -0.2393 -0.0675
21230W        W34644  17.869  11.085   5.875  0.0695 -0.1794 -0.0658
21231W        W34645  15.226  15.294   1.980  0.0076 -0.1639 -0.1501
21232W        W34646   5.041  16.569   3.881  0.2740  0.0524  0.1597
21233W        W34647   6.580  18.140   0.967  0.1301 -0.2401 -0.1207
21234W        W34648  13.822  13.317  14.160 -0.1161  0.0774 -0.3749
21235W        W34649  16.822   0.165   1.714  0.3095 -0.0561 -0.0930
21236W        W34650   4.953  12.088  15.143  0.1813  0.4093 -0.1918
21237W        W34651  10.884   0.797   2.978 -0.0184  0.1141 -0.0080
21238W        W34652   0.722   9.469  14.728  0.3945 -0.0374 -0.0123
21239W        W34653  11.293   2.419   4.815 -0.0941  0.1598  0.1729
21240W        W34654  12.333   6.308  16.153  0.0713  0.0983  0.0378
21241W        W34655  15.005  12.522   0.736  0.2670  0.0834 -0.2942
21242W        W34656  13.393  15.766   2.904  0.0998  0.0527  0.2109
21243W        W34657  14.676  10.403  13.429  0.1355  0.0080  0.2814
21244W        W34658  12.606   0.707  16.131  0.1100  0.0312  0.0968
21245W        W34659   4.281   5.883   3.043 -0.1581 -0.1045  0.0018
21246W        W34660  13.762  12.892   5.555  0.1736  0.0131  0.0583
21247W        W34661   1.247  12.011   0.773  0.2822 -0.1394  0.1318
21248W        W34662   7.581   4.749   2.104 -0.1391  0.2857  0.1600
21249W        W34663   4.484   6.752  14.980  0.1024  0.1203  0.4756
21250W        W34664  18.043  15.348  16.384 -0.2778  0.0517 -0.3218
21251W        W34665  11.451   8.489   2.456 -0.0904 -0.0498  0.1195
21252W        W34666  15.690  13.679   4.416  0.2847 -0.0700  0.2261
21253W        W34667  12.781  16.177  10.732  0.0264 -0.2221  0.3176
21254W        W34668  10.057  18.250  10.370  0.2119 -0.1380  0.1091
21255W        W34669   9.101  13.675  11.271  0.0618 -0.3742  0.0511
21256W        W34670   0.582   3.806   1.528 -0.3101 -0.2468 -0.1812
21257W        W34671  17.238   5.970   0.747  0.1884 -0.0880  0.1534
21258W        W34672  14.646   9.735   4.915 -0.2128  0.2385  0.1918
21259W        W34673   3.342   9.330   3.219 -0.0875  0.1397 -0.1492
21260W        W34674   6.206  12.845  16.067  0.0469  0.2651  0.0841
21261W        W34675  17.608  15.779   5.626  0.2592  0.2827 -0.1277
21262W        W34676  17.528  15.649  12.811 -0.0081  0.1804 -0.3175
21263W        W34677   4.327   6.380   3.983 -0.1252  0.0140 -0.0834
21264W        W34678  10.592   5.568   5.234 -0.2248  0.2320 -0.0567
21265W        W34679  11.134  14.007   0.558 -0.1360 -0.0614  0.4022
21266W        W34680  10.952   8.434   0.303  0.0523 -0.0394 -0.0965
21267W        W34681   7.321   6.105   2.788 -0.0146  0.2716 -0.0995
21268W        W34682  14.942   2.207   3.762  0.5728 -0.1023  0.1307
21269W        W34683   2.698   5.266  14.100 -0.1647  0.4425 -0.2376
21270W        W34684  13.616   8.444  16.053 -0.0141 -0.2304  0.1847
21271W        W34685  16.082   4.601  15.162  0.0274  0.2348 -0.3801
21272W        W34686  13.494   9.488   3.591 -0.2729 -0.3837  0.0627
21273W        W34687   6.031  16.842   3.428  0.1488  0.0262  0.0601
21274W        W34688   4.279   2.126   1.955  0.2169  0.3379 -0.0449
21275W        W34689   5.153  10.543  13.141 -0.1101 -0.2299  0.0887
21276W        W34690  13.848   9.717  10.637  0.0434  0.0477 -0.3604
21277W        W34691   4.261  10.460   5.474  0.0721  0.1090  0.0765
21278W        W34692   2.771  10.533  10.314  0.1230 -0.0249  0.2149
21279W        W34693  17.895   2.202  14.064 -0.0480 -0.0134  0.1870
21280W        W34694  15.189   4.170  14.762  0.0358  0.0025 -0.2105
21281W        W34695   8.261  17.373   5.489  0.1019  0.0681  0.1973
21282W        W34696   3.954  11.198   0.944  0.0642  0.0115 -0.0704
21283W        W34697  12.620  11.095   3.697 -0.0451 -0.3672 -0.0968
21284W        W34698  13.689   2.809  10.254  0.0184  0.1920  0.2505
21285W        W34699   5.601   3.012   3.772 -0.0761  0.0089  0.0766
21286W        W34700  16.477   9.530  16.286 -0.0308  0.1231  0.3166
21287W        W34701  16.484  15.157  12.606  0.0587 -0.0636  0.0709
21288W        W34702  17.768   5.012  15.669  0.0169  0.0100 -0.0211
21289W        W34703  16.696   4.313  10.991 -0.3478 -0.1926  0.1292
21290W        W34704  16.756   9.049  15.570 -0.0816 -0.0302  0.0186
21291W        W34705  16.662   8.781   0.018  0.0577 -0.1914 -0.0656
21292W        W34706   1.101   3.833  14.881 -0.1940 -0.0569  0.1328
21293W        W34707   9.834   7.941  12.918  0.0736 -0.0385 -0.1920
21294W        W34708   3.912  13.077  13.326 -0.0597  0.3377 -0.0862
21295W        W34709  14.348   7.092  15.313 -0.1895 -0.1000 -0.0811
21296W        W34710  15.177  11.745  14.959 -0.2222 -0.0318  0.2196
21297W        W34711   1.384   2.608   2.835 -0.0745  0.0330  0.1929
21298W        W34712   2.309   7.890   1.109  0.1699  0.0038  0.0661
21299W        W34713   9.872   6.802  13.386  0.3710 -0.1287 -0.4296
21300W        W34714  13.835   2.466  14.983 -0.0306  0.2734 -0.0860
21301W        W34715  17.817   2.720   3.033  0.0098  0.1284 -0.0111
21302W        W34716   4.034   4.434   3.152  0.0940 -0.0972 -0.0609
21303W        W34717   9.232  10.767  15.059 -0.0272  0.1024 -0.0133
21304W        W34718   7.415  18.021   4.182 -0.1012  0.1507  0.1343
21305W        W34719   1.392   4.800  13.891 -0.2367  0.0468  0.1975
21306W        W34720  17.951   7.108  11.198  0.0669 -0.3633  0.0918
21307W        W34721  16.562  13.380  16.484 -0.0728 -0.2693  0.1554
21308W        W34722   7.389   9.257   6.235 -0.1098  0.4595 -0.3077
21309W        W34723   8.823   1.068  12.641 -0.2595 -0.0896  0.0027
21310W        W34724   0.721   0.041  13.523 -0.0730  0.3019  0.0320
21311W        W34725   2.358  11.359  15.233 -0.3307 -0.0539  0.0230
21312W        W34726  13.615   6.251   0.071  0.0458 -0.1183  0.0116
21313W        W34727   8.617   7.036   1.003  0.2945 -0.1540  0.0917
21314W        W34728   1.525  14.243   0.118 -0.1019  0.1718  0.4074
21315W        W34729  13.369   8.809   4.203  0.1935  0.0694 -0.1930
21316W        W34730  16.855   9.274   6.292  0.1089  0.0560 -0.0828
21317W        W34731   7.177   7.489  13.701  0.0990  0.2443 -0.0527
21318W        W34732  11.898   7.352   1.536  0.0914  0.3180 -0.2172
21319W        W34733   4.291  15.144   1.901  0.1058  0.0138 -0.2810
21320W        W34734   7.912   5.491  13.254  0.1480 -0.2436 -0.0598
21321W        W34735  15.662   6.604   1.830 -0.1281  0.0290 -0.1624
21322W        W34736  16.148  14.561   1.618  0.2973 -0.2472  0.0679
21323W        W34737   0.756  15.867   5.842  0.2356  0.1802  0.2335
21324W        W34738   8.959  14.019   1.534  0.1159 -0.1909  0.2020
21325W        W34739   7.737   8.668   2.296  0.1089 -0.2874  0.1158
21326W        W34740   7.289  11.485  12.996  0.3100 -0.1880 -0.0065
21327W        W34741  10.572  12.176   5.775  0.1766  0.2222  0.1496
21328W        W34742   4.812   4.046  13.026 -0.1902 -0.3767 -0.3482
21329W        W34743  16.033  14.201  14.536 -0.2639 -0.3727 -0.0820
21330W        W34744  14.963   9.046   1.880 -0.3813 -0.1718 -0.1670
21331W        W34745   3.526   7.108  11.932 -0.1856  0.1512 -0.0950
21332W        W34746  16.321   5.539   0.737 -0.0374 -0.0201  0.2903
21333W        W34747  16.102   6.198   1.213 -0.2567 -0.1895 -0.3333
21334W        W34748  14.756  16.696   1.146  0.0159 -0.1884  0.0904
21335W        W34749  12.922  16.724  13.808  0.1982 -0.1368  0.4084
21336W        W34750   4.647  14.166   0.725 -0.0467 -0.1584 -0.1094
21337W        W34751  13.539   7.034   6.096 -0.0090 -0.2699 -0.4160
21338W        W34752  17.063   3.722  13.922  0.0945  0.0079  0.1412
21339W        W34753   2.659  13.972  11.089 -0.1438  0.0215  0.0804
21340W        W34754  13.755  17.181   2.617  0.0036  0.1467  0.0163
21341W        W34755   7.479   5.546   4.896  0.1596 -0.0820 -0.1705
21342W        W34756  16.549   3.717  13.419 -0.0428 -0.0965 -0.0691
21343W        W34757   9.293  17.831  14.946  0.1852  0.0906 -0.0778
21344W        W34758  11.942  12.901   0.836  0.1674  0.0801 -0.4457
21345W        W34759   2.375  13.627  11.300  0.0339  0.2667  0.0740
21346W        W34760   8.008   8.938   1.908  0.1073  0.2424 -0.2478
21347W        W34761  17.744  16.509   4.443  0.1514 -0.3291 -0.0378
21348W        W34762  13.393   0.999   4.700  0.3090  0.1312 -0.0942
21349W        W34763   7.505   8.772   5.848  0.0984  0.2493  0.0220
21350W        W34764   8.275   9.932  11.124 -0.0370 -0.2159  0.1581
21351W        W34765   8.920  11.435  12.699  0.0092  0.1876  0.2247
21352W        W34766   7.882  17.813   0.275 -0.4231  0.0778 -0.4587
21353W        W34767  13.153   5.551   4.916  0.0126  0.0506  0.3544
21354W        W34768   4.525   4.171  10.397 -0.0761 -0.3027  0.1329
21355W        W34769  16.665  11.116   3.571 -0.0162  0.3692  0.3823
21356W        W34770   8.108   0.198  10.580  0.1146 -0.0685 -0.0658
21357W        W34771  10.790   7.188  13.983 -0.2298  0.0520  0.1713
21358W        W34772  13.757   3.223   3.157 -0.1797 -0.3088  0.0024
21359W        W34773   1.136   8.342  13.396  0.1806  0.0282  0.2084
21360W        W34774  12.111  13.728   1.197 -0.2668  0.0626  0.3343
21361W        W34775  13.699  12.049   1.218 -0.4651  0.1159  0.1841
21362W        W34776  16.146   0.485   3.357 -0.3326 -0.3528 -0.1294
21363W        W34777   5.473  17.196   0.913 -0.0567 -0.1302 -0.2016
21364W        W34778   6.832  15.115   1.876 -0.0079  0.0640 -0.1862
21365W        W34779   4.331  17.597  12.537 -0.0761  0.1405 -0.0230
21366W        W34780  11.188  15.679  16.308 -0.2312  0.1266  0.1883
21367W        W34781  13.056  17.133   1.361 -0.0663  0.0913 -0.0151
21368W        W34782   0.720   8.109   4.472  0.0236 -0.1122  0.1873
21369W        W34783  12.518  15.878  11.173 -0.4748  0.2161  0.0900
21370W        W34784  14.268   7.880   2.689 -0.3052 -0.0489 -0.1101
21371W        W34785  13.274  16.831   2.721  0.1243  0.1429 -0.0392
21372W        W34786  12.873   0.929   5.412  0.1695  0.1661  0.2224
21373W        W34787  17.485   2.573  11.713 -0.1530  0.1453 -0.2596
21374W        W34788  14.402   1.062  13.628  0.1318 -0.1121  0.3525
21375W        W34789   9.213  10.310  15.214 -0.0974  0.0433  0.0792
21376W        W34790  15.508  17.252  15.075  0.1352  0.1084 -0.1203
21377W        W34791  14.599  17.013   2.235 -0.1421  0.0666  0.0772
21378W        W34792   6.832   8.797   1.120 -0.2529  0.0350 -0.3300
21379W        W34793   1.672   5.934   4.081  0.0082  0.1254 -0.1682
21380W        W34794  16.825   6.404  13.124 -0.0817  0.2047 -0.1207
21381W        W34795   2.123  10.079  14.622 -0.0947 -0.2452 -0.0148
21382W        W34796  10.769  16.471   4.181 -0.1189  0.1035 -0.2903
21383W        W34797   1.935   0.693  16.139  0.2290  0.1612 -0.0192
21384W        W34798   0.724  13.454   0.899  0.0163 -0.1900 -0.2863
21385W        W34799  16.257   2.457   0.014  0.2148 -0.0454 -0.1515
21386W        W34800  10.300   1.876  13.600 -0.2759 -0.2386  0.1525
21387W        W34801   1.819  15.317  13.512 -0.2709  0.0127 -0.0272
21388W        W34802   2.643   4.093  16.114 -0.1210 -0.0408  0.2572
21389W        W34803   8.664   7.596   1.101 -0.0487 -0.1838  0.1030
21390W        W34804   7.861   6.807   3.466 -0.3358  0.2726  0.1427
21391W        W34805   2.784  12.116  10.412 -0.0645 -0.1321 -0.1364
21392W        W34806   8.358  15.829  14.172 -0.4086 -0.0661 -0.0253
21393W        W34807  11.941  11.553  12.915  0.1149  0.2653 -0.3253
21394W        W34808   3.788   2.596  15.243 -0.0735 -0.1259 -0.0893
21395W        W34809  17.563   9.950  16.238  0.3190 -0.0523  0.2133
21396W        W34810   3.452   2.903  12.450  0.0410 -0.1656 -0.0062
21397W        W34811   3.324   9.843   4.869  0.0975 -0.1086 -0.0571
21398W        W34812   7.136   7.228   2.193  0.2381 -0.0431 -0.1769
21399W        W34813   2.639   6.320  16.245 -0.0070 -0.1474 -0.1312
21400W        W34814  17.974   5.113  13.799  0.1843 -0.0042 -0.3732
21401W        W34815   8.987  16.993  16.295  0.1487  0.2618  0.0540
21402W        W34816   4.794  12.350   0.376  0.5462 -0.1378  0.0623
21403W        W34817  10.392   3.044   9.774  0.0834 -0.1662  0.0398
21404W        W34818   8.253   3.394  16.261 -0.2325  0.2401  0.0736
21405W        W34819  12.952  13.704  15.241  0.0254  0.0023  0.1317
21406W        W34820   9.675   8.923   5.988  0.1719  0.2091  0.2561
21407W        W34821   4.269   5.710   3.510  0.1854  0.0502 -0.0413
21408W        W34822   6.483  10.852   3.546 -0.1454  0.1288 -0.1893
21409W        W34823  16.351   9.321  15.477 -0.0636 -0.1212  0.5697
21410W        W34824   9.666   0.833  13.812 -0.2793  0.2068  0.0031
21411W        W34825   1.729   1.416   6.583 -0.0526 -0.1685 -0.0836
21412W        W34826   3.449   7.334  11.111 -0.2688 -0.1518 -0.0292
21413W        W34827  12.985  10.766  15.038  0.1177 -0.1694  0.0047
21414W        W34828  11.399   8.163   3.408 -0.0114 -0.0228 -0.2789
21415W        W34829   9.556  13.636   3.029 -0.1633 -0.0841  0.1893
21416W        W34830  17.184  17.757  10.890  0.1574 -0.0355  0.0197
21417W        W34831   7.755  12.563   0.615  0.3091 -0.2289  0.2579
21418W        W34832   4.857   9.637  10.783 -0.0721 -0.0816 -0.1455
21419W        W34833  12.020   3.648  14.091  0.1165 -0.0219  0.0431
21420W        W34834   0.966  13.422  15.166 -0.3010 -0.1998 -0.0909
21421W        W34835   3.886  16.538  10.956 -0.4757  0.1256  0.0235
21422W        W34836  10.561  18.141  12.490 -0.1383 -0.3142 -0.2580
21423W        W34837  13.157   8.324   4.237 -0.2312 -0.0830 -0.2655
21424W        W34838   9.786   3.393  11.230  0.1989 -0.2657  0.4016
21425W        W34839  14.344   2.607  11.976  0.0617  0.0074 -0.0563
21426W        W34840   8.280   8.626   2.171  0.1617 -0.0129 -0.0092
21427W        W34841  12.672   7.854  13.909 -0.0948 -0.0791 -0.0586
21428W        W34842   7.248  12.595  10.797 -0.0512 -0.1493 -0.0041
21429W        W34843  16.794  12.381  15.406  0.0653  0.3217  0.1245
21430W        W34844   0.303  16.920   0.212  0.1487 -0.0396  0.1462
21431W        W34845   6.071   5.901   4.465 -0.1717 -0.1877  0.0759
21432W        W34846  14.858   6.410   2.803 -0.1278 -0.0100  0.1624
21433W        W34847   4.297  10.341   3.291 -0.1119 -0.1003 -0.1692
21434W        W34848   0.638  16.905  14.547 -0.0696 -0.1310 -0.0179
21435W        W34849   0.477   1.663   4.300 -0.1931 -0.0339 -0.3176
21436W        W34850   8.200   8.379   1.415  0.2837  0.0450  0.0038
21437W        W34851   4.424  11.348   0.927  0.1076  0.0198 -0.1153
21438W        W34852   2.694  15.405  11.600  0.1081 -0.2252 -0.0916
21439W        W34853   4.272  17.446   2.205 -0.0831  0.3093  0.2533
21440W        W34854  15.464   3.651   5.335 -0.0750 -0.0716  0.0319
21441W        W34855   6.554  12.553  16.456 -0.1037  0.1045  0.2358
21442W        W34856   6.137   7.266   1.694  0.0438  0.2407 -0.1753
21443W        W34857   9.119   8.123   3.042  0.0136 -0.0233  0.1724
21444W        W34858   2.012   7.881  11.340 -0.1527 -0.2235  0.0614
21445W        W34859  13.476   4.402  15.662  0.2856  0.0989 -0.1541
21446W        W34860   4.851  12.941  15.804  0.1560  0.2214  0.1598
21447W        W34861   4.709   0.964   4.136 -0.0915 -0.0687  0.0069
21448W        W34862   8.146  15.171  15.518  0.2608 -0.0008 -0.0739
21449W        W34863   6.990  16.540   1.763 -0.1483 -0.1819 -0.0671
21450W        W34864   2.267   1.942  13.433 -0.1784  0.0522  0.1148
21451W        W34865   5.484   8.335  13.603 -0.0372  0.0393 -0.1516
21452W        W34866  14.328   5.389  14.068  0.1896  0.0474 -0.0954
21453W        W34867   2.056  13.699   5.351 -0.0320  0.1726 -0.0540
21454W        W34868   7.337   3.258  13.276  0.1396 -0.0792  0.1938
21455W        W34869   1.579  14.310   5.337  0.0756 -0.3084 -0.0006
21456W        W34870   9.255  15.640  13.420 -0.0769 -0.2642 -0.0839
21457W        W34871   9.432  10.563   3.690 -0.0383  0.1264 -0.0256
21458W        W34872  13.428  11.283  15.297  0.1308  0.0057  0.0031
21459W        W34873  12.530  14.836  16.160 -0.1361 -0.3235 -0.0459
21460W        W34874   2.526  11.242   2.199  0.3604 -0.0232  0.5846
21461W        W34875   8.427   8.778  12.149 -0.2443 -0.2053 -0.0045
21462W        W34876   6.801   2.651   5.207  0.2066  0.0709  0.1040
21463W        W34877   7.489  15.778  16.279  0.2231  0.3287 -0.2254
21464W        W34878  14.210   3.822  14.840 -0.2536  0.0906  0.1776
21465W        W34879   9.689   6.198   0.564 -0.0682  0.0870  0.0654
21466W        W34880   6.104  10.255   2.271  0.0739  0.0242  0.0253
21467W        W34881   6.931   3.772   4.343 -0.1250  0.0821  0.0359
21468W        W34882   9.116  12.470   2.289  0.2980 -0.1150 -0.1346
21469W        W34883   4.480  15.136   1.438 -0.4398 -0.4428  0.3348
21470W        W34884   5.419   5.758   4.371 -0.0356  0.2758 -0.0611
21471W        W34885  18.193  17.109   0.560 -0.2059  0.1211 -0.2508
21472W        W34886   0.719   4.517  11.278 -0.1646 -0.1744 -0.5020
21473W        W34887   5.433  16.522  10.221  0.0625 -0.0567  0.3532
21474W        W34888  16.176   5.172  12.980 -0.0794  0.0840 -0.1958
21475W        W34889  10.555   0.017  13.771  0.4137  0.0714  0.0603
21476W        W34890  15.978   2.443  11.519 -0.1375  0.0665  0.0631
21477W        W34891   1.383   0.512  12.891 -0.1660 -0.0200 -0.1368
21478W        W34892   8.748   7.485  15.012  0.0971 -0.0890  0.2000
21479W        W34893  11.025   4.969   1.545 -0.1503  0.2774  0.1413
21480W        W34894   2.243   5.606  15.186 -0.0851 -0.2128  0.0191
21481W        W34895   1.148  11.544  14.027  0.0076  0.1433  0.2888
21482W        W34896  12.896   7.334  13.693  0.2658 -0.1507  0.1819
21483W        W34897   6.018   6.303  12.302  0.2325  0.1444 -0.1424
21484W        W34898  17.070  16.699   3.879 -0.0851 -0.0367 -0.2036
21485W        W34899  12.671   6.722  11.087 -0.1064 -0.0244 -0.0597
21486W        W34900   6.953   1.047  11.620  0.1182  0.1441  0.1320
21487W        W34901   5.712   6.001   2.186 -0.1193  0.3582  0.0774
21488W        W34902  16.452  15.903   4.154  0.0282  0.0159 -0.0268
21489W        W34903   9.194   6.394   0.300 -0.0370  0.1753 -0.0441
21490W        W34904  14.500   3.374  14.731 -0.2095 -0.0277  0.0915
21491W        W34905   6.318   9.033   4.826  0.2073  0.1693  0.1358
21492W        W34906   6.453   6.382  10.616 -0.0495  0.4508  0.0736
21493W        W34907   0.237   2.634  15.636 -0.1157  0.0872 -0.1509
21494W        W34908  10.414   9.766   1.122  0.2232  0.1728 -0.3088
21495W        W34909  13.209   5.718   5.454 -0.0256 -0.1428  0.1752
21496W        W34910  12.511   5.465  14.497 -0.1576 -0.1481  0.0421
21497W        W34911  10.219  15.372   5.644 -0.0526 -0.0550  0.2304
21498W        W34912   7.729  14.143   5.775 -0.1305  0.0113  0.1610
21499W        W34913   2.703  11.674  13.080  0.1255 -0.1423 -0.2554
21500W        W34914  16.537   8.295  16.304  0.0675 -0.1944  0.1655
21501W        W34915   8.829  12.267  12.617 -0.4932 -0.0431  0.0445
21502W        W34916   2.537  11.093  13.031  0.0272 -0.1962 -0.0039
21503W        W34917  12.096   1.393  10.576  0.0283 -0.4571 -0.0182
21504W        W34918   0.120   1.585  11.830  0.1310  0.0095  0.1056
21505W        W34919  13.392  17.258   5.126 -0.0579  0.0247 -0.0147
21506W        W34920   1.328   5.723   5.660  0.3612 -0.2905  0.0610
21507W        W34921   7.321   3.621   4.691  0.2047 -0.1978 -0.1618
21508W        W34922   5.179   9.833  13.912 -0.2203 -0.2397 -0.1173
21509W        W34923  16.970   1.662   3.860 -0.0373 -0.2190  0.0737
21510W        W34924   0.132  13.283   3.884  0.3010  0.1448 -0.0319
21511W        W34925   5.630  16.132  16.341  0.2830  0.0940 -0.1769
21512W        W34926   1.727  11.576   5.283 -0.0163  0.1546 -0.1877
21513W        W34927  10.197   5.029  10.733  0.2812 -0.2287 -0.0170
21514W        W34928   8.176  13.208  14.430  0.0333  0.2342 -0.0500
21515W        W34929   6.448  11.905  16.345  0.1413 -0.0510 -0.4584
21516W        W34930   5.211   8.105   3.148  0.0468 -0.0610  0.0653
21517W        W34931  15.767  12.982  14.853  0.0566 -0.1087 -0.1936
21518W        W34932  16.116   7.452  14.437  0.0343 -0.0022 -0.0974
21519W        W34933  14.199   2.830  15.398 -0.1277 -0.1591 -0.2176
21520W        W34934   1.598  10.457  14.224  0.1494  0.1050 -0.1143
21521W        W34935   6.431   9.825  12.022 -0.1589  0.1492 -0.0721
21522W        W34936  12.992   1.001   3.751  0.2288  0.0704  0.2201
21523W        W34937   8.074  16.214  16.133  0.1134  0.2176  0.2003
21524W        W34938   4.579  17.396  15.580 -0.1125  0.2960 -0.0604
21525W        W34939   8.990   0.744  12.902  0.4517 -0.0401  0.1314
21526W        W34940   9.874  14.791  11.965 -0.1060 -0.1791 -0.0054
21527W        W34941   5.686  10.145  15.738  0.1865 -0.3165  0.2148
21528W        W34942  14.796  11.297   0.792 -0.0326 -0.0013 -0.0271
21529W        W34943  15.899  15.852   0.714 -0.1234 -0.2198 -0.0889
21530W        W34944   4.764   7.582  11.265  0.1073  0.1167 -0.2696
21531W        W34945   1.024   3.847   2.314  0.0721  0.0902 -0.2248
21532W        W34946  15.024   2.114  13.692  0.2103  0.0438  0.3797
21533W        W34947  10.630   7.959  11.772 -0.0739 -0.3230  0.2255
21534W        W34948   6.329  17.655   0.864  0.1837  0.2171 -0.0158
21535W        W34949   9.740   6.576  12.949  0.0788  0.3360  0.3230
21536W        W34950   8.550   6.319   2.857 -0.0638  0.1763  0.0020
21537W        W34951   5.342   2.377   1.179 -0.5016 -0.1713 -0.1385
21538W        W34952   0.172   3.452  13.866  0.0212 -0.0308 -0.0874
21539W        W34953  16.154   0.349  15.966  0.0804  0.0071  0.0391
21540W        W34954   2.782  14.911  16.290 -0.0363 -0.1407  0.0145
21541W        W34955   0.891  17.006  15.945 -0.1207  0.2352  0.1307
21542W        W34956  13.770   5.344  16.207  0.0207 -0.0782  0.0173
21543W        W34957  15.739  15.300  12.029 -0.0083 -0.2685 -0.0788
21544W        W34958   6.113   8.815   0.879 -0.3371 -0.0630  0.0243
21545W        W34959  12.637  10.447   5.573  0.0202  0.2165 -0.2873
21546W        W34960   0.976  10.215   5.020 -0.2427  0.0722 -0.3811
21547W        W34961   7.709   2.039   2.892  0.0739 -0.2479  0.1649
21548W        W34962  13.742   3.796  12.841 -0.1852 -0.0908 -0.0723
21549W        W34963  16.173  17.575   3.483  0.2107 -0.3140  0.1729
21550W        W34964  10.892   4.916  15.360  0.2810 -0.2971 -0.0679
21551W        W34965   6.386  11.064   4.046  0.1143  0.2627 -0.0627
21552W        W34966  17.353   5.868   3.257  0.0047  0.0133 -0.0368
21553W        W34967  16.938   8.370   2.600 -0.0688  0.1235  0.1592
21554W        W34968  12.390   3.560   0.611  0.2324 -0.0917 -0.2850
21555W        W34969   6.804   9.995   6.389  0.1292 -0.0087  0.3490
21556W        W34970   0.623   9.862   5.092 -0.1822 -0.0209 -0.3738
21557W        W34971  12.604  12.084  14.752 -0.1478 -0.0341 -0.2060
21558W        W34972  12.387   8.454  15.057  0.1381 -0.1269  0.2814
21559W        W34973  16.878   1.211   2.308  0.1973 -0.0527 -0.0503
21560W        W34974   5.122   1.495   4.814 -0.1149  0.0648 -0.0941
21561W        W34975   9.328  14.209  13.432  0.0243  0.1324 -0.4957
21562W        W34976  10.431  10.353  12.189 -0.0871 -0.0440  0.1553
21563W        W34977  12.486  12.438   5.803  0.0596 -0.1077 -0.0904
21564W        W34978   1.178   8.916   3.506  0.0079  0.1876 -0.1763
21565W        W34979   0.017   2.996   5.295  0.2975  0.0226  0.1911
21566W        W34980  14.670   3.301  16.166 -0.0941 -0.0750  0.0229
21567W        W34981   5.817  12.813  14.200 -0.2672 -0.0721  0.0719
21568W        W34982   6.243   5.252   6.169  0.4355 -0.0393 -0.0122
21569W        W34983   7.020  10.156  16.410  0.1063  0.3007  0.1311
21570W        W34984  16.850   9.225   1.628  0.1616  0.0631 -0.0270
21571W        W34985  15.805   2.455  13.870 -0.2347 -0.0724 -0.1043
21572W        W34986   4.874  18.009   2.882 -0.1652  0.1267  0.1461
21573W        W34987   5.145   0.776  12.936 -0.1020  0.0627  0.0390
21574W        W34988  11.001  14.834   0.967 -0.0137 -0.1184  0.0918
21575W        W34989  12.527  10.648   1.085  0.0157 -0.1252 -0.3870
21576W        W34990   7.919   4.464  10.230 -0.0116  0.0085  0.1980
21577W        W34991  16.069  13.926   4.506 -0.2259  0.2658 -0.0208
21578W        W34992   7.902  14.941  14.244  0.3420  0.1356  0.2113
21579W        W34993   1.172   5.646   0.965  0.0114  0.0287  0.2213
21580W        W34994   6.197   9.489   0.118  0.0303  0.1399 -0.3493
21581W        W34995  11.490   9.813   4.933  0.3286 -0.0986 -0.0286
21582W        W34996   3.703   1.475   6.429  0.4882 -0.0292 -0.2430
21583W        W34997   9.542   7.901  14.869 -0.0179  0.1213  0.1714
21584W        W34998   9.753   0.784   3.788  0.2662 -0.3599 -0.0504
21585W        W34999  16.753  14.385  13.196  0.4619  0.5030  0.1518
21586W        W35000  16.348  17.664   0.907  0.6012 -0.1180 -0.5062
21587W        W35001  13.188  13.601   1.443 -0.1350 -0.1597 -0.0277
21588W        W35002   9.431  13.475  12.695 -0.1156 -0.1779  0.3382
21589W        W35003  14.009  17.162   5.961  0.1862  0.0057 -0.0256
21590W        W35004  16.077   7.772   2.940  0.0458  0.1859  0.0707
21591W        W35005   4.282   9.729  13.228  0.2151  0.1207 -0.4482
21592W        W35006   6.074   8.027   0.249 -0.0429  0.1441 -0.3218
21593W        W35007  10.161   6.972   2.592 -0.1225 -0.1168  0.1404
21594W        W35008  17.607  17.274  14.491  0.0006  0.3392 -0.1538
21595W        W35009  15.345  11.030  11.043 -0.1370 -0.0050  0.0686
21596W        W35010  11.844  12.575  11.183 -0.2918 -0.1676 -0.0186
21597W        W35011  18.143   6.962   3.087  0.0115 -0.1824 -0.1594
21598W        W35012  10.411   2.954  11.702  0.2860 -0.0083  0.1562
21599W        W35013   2.918  16.855  11.763  0.0756 -0.4497  0.1931
21600W        W35014  15.215  16.689   1.377 -0.1415 -0.1721 -0.0676
21601W        W35015   8.737   6.285  11.138  0.1503 -0.4401 -0.2477
21602W        W35016   8.566  10.710  15.823  0.1120 -0.1354  0.2484
21603W        W35017   9.176   5.073  10.406 -0.1602  0.1377  0.0103
21604W        W35018  14.004   9.759   1.508 -0.4163 -0.2108  0.1178
21605W        W35019   3.269   7.953   1.696 -0.1686  0.1170 -0.1732
21606W        W35020  10.834   3.795   1.222  0.2302  0.2397  0.0131
21607W        W35021   8.374   4.160   0.921  0.2612  0.3095  0.2974
21608W        W35022  10.126  16.735   2.793 -0.3319 -0.2205  0.1623
21609W        W35023   3.329  15.790   0.952 -0.3536  0.2148  0.0224
21610W        W35024   3.379   9.825  10.560 -0.0382 -0.2067  0.0728
21611W        W35025   4.592  12.203  13.997  0.0417  0.1630  0.0538
21612W        W35026   3.647   0.439   1.281 -0.0591  0.2187  0.1686
21613W        W35027   3.848   6.756  13.040 -0.3513  0.0921 -0.0342
21614W        W35028   1.705  16.229  11.580  0.0224 -0.0890  0.1368
21615W        W35029   0.978   8.999  14.856 -0.1668  0.0244 -0.2651
21616W        W35030  16.911  10.123   3.238 -0.1154 -0.1187  0.6859
21617W        W35031   4.039   7.842  11.808 -0.2059 -0.0227  0.0630
21618W        W35032   2.259   8.060  12.661  0.1727 -0.1507  0.0638
21619W        W35033   2.053   7.978   1.601  0.2306  0.1280  0.1431
21620W        W35034  12.643  12.319   1.170 -0.1699 -0.3789  0.0165
21621W        W35035   2.849   3.211  11.346  0.0770 -0.1602  0.1523
21622W        W35036   6.718  15.454   3.179 -0.1008 -0.0523  0.1608
21623W        W35037   4.192   5.261   2.449  0.6044 -0.2549 -0.2459
21624W        W35038   8.662  15.841  10.754 -0.0770  0.1359 -0.2426
21625W        W35039  14.350  13.681   5.650  0.1063 -0.1652 -0.2731
21626W        W35040  11.105   2.067  13.326  0.2224  0.2120  0.1710
21627W        W35041  14.409  17.993  15.919  0.0839 -0.1502  0.0797
21628W        W35042  18.088   0.922  14.991  0.0169 -0.0702  0.1964
21629W        W35043   1.630   1.371   4.744 -0.1293  0.0352  0.0365
21630W        W35044   2.802   8.200  15.009 -0.2649 -0.0522 -0.1204
21631W        W35045   3.458  15.394   0.586  0.0233 -0.0842 -0.0188
21632W        W35046   5.005   6.234  13.928  0.1046 -0.1260 -0.0665
21633W        W35047  17.121  17.881   3.665 -0.0775  0.1262 -0.1286
21634W        W35048  17.196   4.404   3.412  0.2910  0.1522  0.4453
21635W        W35049   8.332   2.157  13.532 -0.1551  0.2359 -0.0870
21636W        W35050   2.427   2.345  12.124  0.1412  0.0604 -0.0578
21637W        W35051   9.470   5.434   0.258  0.0919 -0.0399  0.2735
21638W        W35052  13.381  16.273   1.522 -0.0932  0.0024  0.0867
21639W        W35053  16.580   7.125   5.250  0.0142  0.1174 -0.0958
21640W        W35054   8.430   8.014  15.306  0.5680  0.1770 -0.1060
21641W        W35055  16.042  12.273   3.370  0.1553  0.0223 -0.0376
21642W        W35056   5.898   2.474  16.041 -0.1997  0.2791 -0.1414
21643W        W35057   2.421  12.901  13.772 -0.1900  0.3566  0.1881
21644W        W35058   7.555   3.290  11.877  0.3226  0.0057 -0.2173
21645W        W35059   8.902   5.608  13.002 -0.1033 -0.0302  0.1870
21646W        W35060   6.361  13.647  14.249 -0.0938  0.1656  0.0441
21647W        W35061  13.101  12.033  13.400  0.0562  0.1273 -0.0270
21648W        W35062   2.320  10.253   4.295 -0.5496 -0.3863 -0.0361
21649W        W35063  12.355   8.609   5.775 -0.1079 -0.2065  0.0060
21650W        W35064  15.122   9.396  11.926  0.1544  0.3201 -0.2079
21651W        W35065  10.082   7.097   3.979 -0.0884  0.2573 -0.1567
21652W        W35066  11.923  18.011  10.783 -0.0209 -0.0140 -0.0845
21653W        W35067   9.642  10.720  10.554 -0.0729  0.0530  0.3777
21654W        W35068   1.679   0.939  15.418 -0.1196 -0.0811  0.0764
21655W        W35069  12.250   0.026   1.392  0.0683  0.4070 -0.0061
21656W        W35070  14.611  17.670   2.004  0.1498 -0.1410  0.3614
21657W        W35071  11.293   7.150  14.038 -0.0979  0.0308 -0.2181
21658W        W35072  13.732  13.693  14.613  0.0916 -0.0675  0.0560
21659W        W35073   8.711   3.747   2.543 -0.1167  0.1886 -0.2884
21660W        W35074   0.156  17.866  11.825 -0.2398 -0.4233 -0.0112
21661W        W35075  15.435  12.825  14.534  0.0535 -0.1517  0.1758
21662W        W35076  17.833   2.942  13.463  0.0805  0.0255 -0.0571
21663W        W35077  15.923  15.875   3.848 -0.0370  0.1630  0.0394
21664W        W35078  11.487  17.073   3.949 -0.1001  0.1730 -0.3921
21665W        W35079  10.598   0.810  16.067 -0.1372 -0.1311 -0.1792
21666W        W35080   1.731  16.451  12.498  0.0392  0.1806  0.4946
21667W        W35081   0.236   3.043   0.192 -0.0748  0.2208  0.1019
21668W        W35082   4.872   6.531   5.188  0.1990 -0.0308 -0.1929
21669W        W35083   8.838   9.091  13.860 -0.2135 -0.3408 -0.3893
21670W        W35084   3.145   4.535  15.162 -0.0600 -0.1252  0.0872
21671W        W35085   1.535   2.158   1.443 -0.1352  0.1417  0.1344
21672W        W35086   2.123   6.272   2.309 -0.1130  0.4788  0.2280
21673W        W35087  11.887   3.067   1.238 -0.1340 -0.1271 -0.1781
21674W        W35088  14.923   7.768   4.759 -0.0032 -0.1764  0.0471
21675W        W35089  15.489   8.836  11.608  0.1219 -0.1818  0.1400
21676W        W35090  10.859  12.335  12.856  0.0613  0.0180 -0.1391
21677W        W35091  12.676  16.213   1.194  0.0124 -0.1960  0.0994
21678W        W35092  17.867  17.850  12.030  0.1376 -0.2644 -0.1378
21679W        W35093   0.379   5.916   4.695 -0.1607 -0.3033 -0.0322
21680W        W35094   9.657  17.068   5.904  0.0207 -0.0935 -0.0216
21681W        W35095   1.542  12.901   4.742  0.3015  0.1564 -0.3673
21682W        W35096   6.390  13.112   3.561  0.0557 -0.0981 -0.1598
21683W        W35097  11.347  13.790   5.503 -0.1369  0.1299 -0.0025
21684W        W35098   2.957   7.307  15.534  0.1086  0.1597  0.3120
21685W        W35099   3.480  17.723  12.539  0.0161  0.1708  0.0723
21686W        W35100   4.416  17.961  12.887 -0.0589  0.3568  0.3051
21687W        W35101  16.370   2.228  12.002 -0.0546  0.0740  0.1152
21688W        W35102   0.534  10.056   6.060 -0.0653  0.0752  0.1648
21689W        W35103   3.916  13.868   1.072  0.0917  0.1257  0.1745
21690W        W35104  17.294   8.989  11.673 -0.0649  0.0532  0.2731
21691W        W35105   9.032   4.832   9.918 -0.1570  0.0108 -0.0041
21692W        W35106  10.853  16.818  11.190 -0.0112 -0.0871 -0.3485
21693W        W35107  12.993  10.400   6.140  0.0085  0.0549  0.1141
21694W        W35108   2.365   4.146  15.714 -0.0266  0.1533 -0.0904
21695W        W35109   4.330   6.583   3.487  0.0543 -0.0009  0.1282
21696W        W35110  12.142  17.833  15.769  0.2935 -0.0135  0.1888
21697W        W35111   4.452  11.880  15.248  0.2291 -0.1410 -0.0514
21698W        W35112   7.440   9.708  16.213  0.0297  0.1212  0.3395
21699W        W35113   5.294  13.610  16.057  0.1629 -0.2614 -0.0591
21700W        W35114   7.356   5.050  10.854 -0.1788 -0.1987 -0.0325
21701W        W35115  14.673  10.833  15.637  0.0865 -0.0622 -0.3054
21702W        W35116   3.769   1.876  13.023 -0.0167  0.1855  0.1064
21703W        W35117  17.342  14.202  14.816 -0.1440 -0.1786  0.1679
21704W        W35118  10.393   6.189   1.232  0.2730  0.1571  0.0599
21705W        W35119   2.234   6.885  11.290  0.0565 -0.0352  0.4469
21706W        W35120   9.971  14.852   1.266 -0.1793  0.0919 -0.0170
21707W        W35121   7.786  17.424   2.157  0.0717 -0.1581 -0.5912
21708W        W35122  11.974  12.746  15.539 -0.0841  0.3472  0.1511
21709W        W35123  15.910  16.783   3.833  0.1581  0.2523 -0.0022
21710W        W35124  10.141  17.953  15.726  0.1555  0.2037  0.0990
21711W        W35125  12.114   7.793  10.772  0.0079 -0.2008  0.0853
21712W        W35126   6.102   0.236  11.405 -0.0975 -0.0282  0.2926
21713W        W35127  12.443  14.423   3.881  0.1886  0.1703  0.1547
21714W        W35128  17.326   8.619  13.303 -0.0193  0.0909  0.2719
21715W        W35129   1.153  13.606   1.418  0.0806  0.1839  0.1445
21716W        W35130   0.520  13.217  15.074 -0.1079 -0.1211 -0.3052
21717W        W35131  18.254  14.699  16.142  0.3617 -0.0523 -0.0306
21718W        W35132  15.816  17.083  15.452 -0.0287  0.1374 -0.1417
21719W        W35133  11.763   0.220  12.040 -0.1179  0.3679 -0.0465
21720W        W35134   5.594  15.025  12.426  0.2301  0.2854  0.2314
21721W        W35135  12.596  13.762  10.397  0.1278  0.1714 -0.1711
21722W        W35136  11.981   6.645   0.955 -0.2790  0.0559  0.0857
21723W        W35137   6.532   3.124   0.953 -0.0872  0.0983 -0.1253
21724W        W35138   4.611  10.540  10.954  0.0468 -0.0039  0.1324
21725W        W35139  17.141  13.226  14.923  0.0491  0.0169 -0.0496
21726W        W35140  10.643  13.069   0.085  0.1190 -0.1950 -0.0095
21727W        W35141  12.023   0.882  10.611  0.0152 -0.2335  0.0236
21728W        W35142   0.166  17.153  14.867  0.1274  0.4239 -0.0050
21729W        W35143  18.026   6.493   0.915 -0.2446  0.4066 -0.0030
21730W        W35144  15.492  15.180   4.198 -0.0385  0.1817  0.0529
21731W        W35145  16.224   4.196  15.504  0.0370 -0.0111  0.1862
21732W        W35146   4.509   8.340   3.550 -0.0403 -0.3235  0.0206
21733W        W35147  13.806   8.192   1.972 -0.0911  0.3194  0.1328
21734W        W35148  14.749   9.593   3.087 -0.1082 -0.5308 -0.0546
21735W        W35149   3.248   2.025   5.064  0.3075  0.1028  0.1646
21736W        W35150   1.465   4.624  14.451 -0.0673  0.1000 -0.3662
21737W        W35151   6.263  16.571   4.374  0.0159 -0.0251 -0.1771
21738W        W35152  15.850   1.175   3.942  0.1194  0.0972  0.4854
21739W        W35153   5.465   3.561   2.080  0.0354 -0.0393  0.0088
21740W        W35154  11.298  17.031   4.999  0.2937 -0.1833 -0.2183
21741W        W35155   7.051  15.911   5.757  0.0605  0.3325  0.1890
21742W        W35156   6.541  11.274   0.686  0.1464 -0.0101 -0.2211
21743W        W35157   0.940   0.938   1.112 -0.1543  0.0568  0.1878
21744W        W35158  18.217   1.954   3.637  0.2568  0.0361  0.3863
21745W        W35159  12.441   1.089  16.403  0.2680  0.2024 -0.3769
21746W        W35160   8.661  15.108   0.847 -0.0002 -0.0068  0.0812
21747W        W35161   3.818   7.672   3.431 -0.0654  0.0770 -0.1023
21748W        W35162   7.504  17.761  13.674  0.0443  0.0749 -0.2289
21749W        W35163   8.577  11.958  10.656 -0.0779 -0.0998 -0.1525
21750W        W35164   1.272   6.187   3.168  0.1208  0.0702  0.1190
21751W        W35165   6.319  10.750  13.823  0.1610 -0.0282  0.0115
21752W        W35166   8.030   5.107  12.904 -0.2672  0.0809  0.1972
21753W        W35167  14.308   7.226  14.268  0.1205  0.1036  0.0556
21754W        W35168   3.744   6.793   6.462 -0.1560  0.0754 -0.1254
21755W        W35169  16.598   8.764  12.354  0.1418  0.3142  0.0984
21756W        W35170   8.287   9.678  12.155 -0.3504 -0.0774  0.2357
21757W        W35171   0.092  13.902  13.876  0.0328  0.2576  0.1485
21758W        W35172   2.880   8.053   1.156 -0.1300 -0.0585  0.1453
21759W        W35173   8.833   3.509  15.874  0.1167  0.1567  0.1564
21760W        W35174  16.468   3.610   4.391 -0.1693 -0.0229  0.0770
21761W        W35175   3.525   7.620  13.749  0.1752 -0.1458  0.1928
21762W        W35176   5.857  16.289   4.117 -0.0587 -0.1581 -0.1591
21763W        W35177  11.724   2.069   0.297 -0.4193 -0.4718  0.0478
21764W        W35178  16.671  13.465   3.649  0.0474  0.3527  0.0413
21765W        W35179  11.226   7.381   1.392  0.0384 -0.1925  0.2091
21766W        W35180   4.407   3.882  16.151 -0.1855  0.1437 -0.0878
21767W        W35181   5.676   6.034  15.570 -0.0186  0.0151  0.1840
21768W        W35182  15.636  10.561  13.041 -0.2778  0.0630  0.3126
21769W        W35183  10.772   4.216  12.916 -0.0647 -0.0967  0.1475
21770W        W35184   4.022   7.009  14.991  0.0061  0.0758  0.1841
21771W        W35185  13.092  14.533   0.761  0.0724 -0.1503  0.2141
21772W        W35186   8.876   5.805  11.748  0.1987  0.0113  0.0210
21773W        W35187  16.776   8.799   1.354 -0.0436  0.2306  0.1136
21774W        W35188  11.965  14.778  11.631  0.2420  0.0325 -0.0851
21775W        W35189   7.763   7.351  14.656  0.1034 -0.1894  0.1872
21776W        W35190   4.482   5.980   0.579  0.1915 -0.3541  0.0896
21777W        W35191   9.867   1.109  11.870 -0.0671 -0.3437 -0.4013
21778W        W35192   5.377   8.683  11.458 -0.2417  0.3112  0.1540
21779W        W35193   5.467   7.879   4.782  0.0568  0.1724 -0.1710
21780W        W35194   5.375   8.431   5.519  0.0518  0.3155  0.1121
21781W        W35195  16.850   1.497   1.526 -0.1424 -0.0424  0.2410
21782W        W35196   5.723  12.114   6.182 -0.0612 -0.2978  0.1884
21783W        W35197  14.285  15.559  15.732  0.2015 -0.0096 -0.1190
21784W        W35198  16.234   3.427   1.218  0.0256  0.1545  0.1156
21785W        W35199  16.868  11.117   5.364 -0.0381 -0.0744 -0.1906
21786W        W35200  12.046  17.623  14.471 -0.0024 -0.1263  0.0981
21787W        W35201   6.032   8.302   2.944  0.1585 -0.3613 -0.0407
21788W        W35202  14.940   6.908  10.967  0.1061  0.1831 -0.3107
21789W        W35203  16.518   5.718  14.978 -0.0011  0.0881 -0.2769
21790W        W35204   9.481   1.080   4.150  0.1493  0.0153 -0.0070
21791W        W35205   1.531  17.324   3.639  0.0914 -0.0169  0.3896
21792W        W35206   2.534   2.100  13.882  0.2511  0.1004 -0.1436
21793W        W35207   5.775  11.965   2.231 -0.0711 -0.1139 -0.1221
21794W        W35208   9.600  14.724   3.706  0.2214  0.0388  0.0746
21795W        W35209   2.609  14.802   5.989 -0.0361 -0.2950  0.0951
21796W        W35210  11.328  15.449   3.761  0.0167 -0.0057 -0.0223
21797W        W35211  12.541   1.146  15.868 -0.1129  0.0740 -0.1072
21798W        W35212   8.503   0.856  14.487  0.1522 -0.2054  0.2796
21799W        W35213   3.851  16.766  14.628  0.0144 -0.2412  0.0310
21800W        W35214  16.046  14.766   2.801  0.2078  0.1064 -0.2978
21801W        W35215   1.372  10.351  15.920  0.0467 -0.4451 -0.1653
21802W        W35216   2.383  17.095   4.962 -0.2032 -0.1690 -0.1346
21803W        W35217  11.311   7.698   2.408 -0.1106 -0.2177 -0.0583
21804W        W35218   9.846  17.901   1.957 -0.3246 -0.1644 -0.0746
21805W        W35219   5.350  11.942  13.448  0.1427  0.2181 -0.0656
21806W        W35220  13.425   0.183  12.295 -0.0098  0.1537 -0.1938
21807W        W35221   3.934   2.614  11.324 -0.1276 -0.2863  0.1470
21808W        W35222   5.971   4.174  10.643 -0.2507  0.0752 -0.1287
21809W        W35223  10.185  17.018  13.208 -0.0045 -0.0972  0.0682
21810W        W35224   1.127   9.625   4.370  0.1253  0.1521 -0.1266
21811W        W35225   9.989   4.421  14.911  0.1780  0.0105 -0.0201
21812W        W35226   8.926   1.759   4.118 -0.2103  0.2395  0.1790
21813W        W35227   6.835  15.915  16.258 -0.2504  0.2875  0.2046
21814W        W35228   5.344   0.130  10.651  0.0715  0.0321 -0.0448
21815W        W35229  12.685   2.257  14.073  0.0623 -0.0334  0.0166
21816W        W35230  17.087   1.249  15.792  0.1901 -0.0514  0.2157
21817W        W35231   0.149   4.802   2.728  0.1586  0.2177 -0.1180
21818W        W35232  11.563   9.085   6.011  0.3463 -0.1601 -0.1283
21819W        W35233  13.728  13.538  10.931 -0.0918  0.0186  0.1062
21820W        W35234   0.025  17.582   1.647 -0.0781  0.4599  0.1014
21821W        W35235  17.776   1.871  14.460  0.3123 -0.1211  0.2801
21822W        W35236   2.661   3.602   4.507  0.0914 -0.0464  0.0242
21823W        W35237   4.700  17.979   5.786 -0.0108 -0.2878 -0.0690
21824W        W35238   1.261   6.049  15.944  0.0709 -0.1317  0.2945
21825W        W35239   3.652  15.552  14.272  0.1007  0.2925  0.0438
21826W        W35240   8.489  10.178  15.732  0.2078  0.1663  0.0137
21827W        W35241   0.978  11.620   4.803  0.1838 -0.3211 -0.2343
21828W        W35242   8.980   2.871   3.565 -0.2275 -0.1751 -0.2811
21829W        W35243   6.683  17.710   1.277 -0.1674  0.0114  0.0809
21830W        W35244   6.080  12.688   3.593  0.0158  0.1517  0.0363
21831W        W35245   1.676   7.087  13.664  0.1672 -0.2039 -0.3930
21832W        W35246  14.697  15.346  15.974  0.0787 -0.1885 -0.1382
21833W        W35247  17.386   4.761  10.359  0.0207 -0.0411 -0.0528
21834W        W35248   4.111   1.288   5.806 -0.2333  0.0575  0.0580
21835W        W35249  13.459   7.580  11.847  0.2122  0.2478 -0.2645
21836W        W35250  16.639   4.122   4.109  0.0878 -0.1086 -0.1288
21837W        W35251  17.917   3.310  11.461 -0.3020 -0.0664  0.0745
21838W        W35252   2.379   2.859   0.922 -0.0833  0.0623 -0.3490
21839W        W35253   7.849   9.019  13.928  0.2334  0.1977 -0.0184
21840W        W35254   9.246  14.129  15.817 -0.1493  0.1914  0.0356
21841W        W35255   9.484   0.859  13.296 -0.6046  0.2125 -0.1851
21842W        W35256   3.834  10.519   0.852  0.0284  0.0935  0.1293
21843W        W35257  10.956  18.032   0.486 -0.2470  0.0428  0.3164
21844W        W35258  13.549  13.410   0.303  0.0426 -0.3493 -0.0431
21845W        W35259  11.060  17.403   1.263  0.0191  0.0748  0.0295
21846W        W35260  12.816  13.217  15.286  0.1107 -0.4406 -0.0963
21847W        W35261  14.969  15.237   4.132 -0.0010 -0.0216 -0.1773
21848W        W35262   8.164   7.965   0.234 -0.0790 -0.0892  0.2190
21849W        W35263  12.678  15.945  15.785 -0.0981  0.0153  0.2160
21850W        W35264   0.106   6.822   2.113  0.1821  0.2202 -0.2278
21851W        W35265  11.383   7.924  14.302  0.0539  0.2058 -0.1390
21852W        W35266   3.931  10.489   1.349 -0.1020  0.3142  0.0173
21853W        W35267   0.225   1.259  12.902 -0.1877 -0.1378  0.1784
21854W        W35268   2.066   8.336   1.274 -0.1000 -0.1412 -0.0115
21855W        W35269  15.663  10.032   5.323  0.0642  0.0570 -0.1220
21856W        W35270   5.780  14.206  13.192  0.3009 -0.1472 -0.0456
21857W        W35271  11.524   0.786   2.543  0.1372 -0.2353 -0.2075
21858W        W35272  17.527   9.346   2.663 -0.3269 -0.0106  0.2392
21859W        W35273  14.331  11.433  13.417 -0.1591  0.1447  0.1565
21860W        W35274   5.025  10.711  15.123  0.1629 -0.1659 -0.2850
21861W        W35275   6.233  15.560  14.372 -0.1875  0.0881 -0.1978
21862W        W35276  17.439   5.160  13.782  0.1032 -0.1132  0.0755
21863W        W35277   9.290  13.947   4.229 -0.2176  0.1130 -0.1337
21864W        W35278   2.428   5.515   1.877 -0.0293 -0.3211  0.1061
21865W        W35279   0.177   5.629   5.918 -0.0802  0.1469 -0.1329
21866W        W35280   6.269  12.630  15.045 -0.1012  0.2206 -0.0941
21867W        W35281   7.512   2.090   4.233 -0.1350  0.1797  0.0954
21868W        W35282   7.310  17.546  13.108 -0.2324 -0.0318  0.0860
21869W        W35283  14.939  10.826  12.026 -0.1101 -0.2188 -0.0827
21870W        W35284   8.725   2.383   0.473  0.1760  0.3394  0.1681
21871W        W35285  14.440   6.517   0.120 -0.1272 -0.0069  0.0295
21872W        W35286  17.740   2.174   3.622 -0.1002  0.0307  0.2432
21873W        W35287  14.672   8.275  13.161 -0.1488  0.0042 -0.0281
21874W        W35288   1.613   5.508   0.505  0.0527  0.0497  0.1506
21875W        W35289   8.237   7.616  11.042  0.0287  0.1824  0.0298
21876W        W35290   6.111  12.292  16.346  0.1747  0.2126  0.0797
21877W        W35291   0.910  11.218  11.108 -0.3138 -0.0182  0.2117
21878W        W35292  16.556   3.516  11.983  0.1360  0.1421  0.1265
21879W        W35293   6.104  11.153   3.490  0.0407  0.2331 -0.0451
21880W        W35294  14.021  11.779   2.380 -0.0699 -0.2400 -0.1765
21881W        W35295  15.501  14.039   3.336  0.0705  0.3318  0.1192
21882W        W35296   0.707  10.001  11.040 -0.1371  0.1488  0.2556
21883W        W35297   9.073   8.813  11.309  0.0027 -0.0191  0.1528
21884W        W35298  11.981  10.734  15.680 -0.0539 -0.0395  0.0529
21885W        W35299   8.167   0.637  15.625  0.1213  0.0635  0.0087
21886W        W35300   5.860  11.230   0.948 -0.1430 -0.2456 -0.3713
21887W        W35301   8.054  12.224   5.069  0.4046  0.0646  0.1347
21888W        W35302   9.389   4.996   0.698  0.0284  0.0369 -0.0257
21889W        W35303  12.611  13.934   0.789  0.1955 -0.0964 -0.2867
21890W        W35304  10.163   1.546   3.817  0.2682 -0.0917  0.0558
21891W        W35305  11.987   6.679   4.573  0.1095 -0.0322 -0.1562
21892W        W35306   5.638   6.674   4.576  0.1001  0.3492 -0.0017
21893W        W35307  14.578  15.512  14.274  0.0189 -0.1572  0.0337
21894W        W35308   4.243  17.677   5.657  0.1057  0.0227 -0.2798
21895W        W35309   3.996  18.192   1.819  0.0638  0.0390  0.2265
21896W        W35310   4.797  16.512   0.240 -0.2334 -0.3267 -0.2619
21897W        W35311  10.138   3.811   0.592  0.0674  0.0894 -0.2938
21898W        W35312   0.350  13.087   0.034 -0.3348  0.1835 -0.1146
21899W        W35313   7.032   5.463  16.241  0.1871 -0.1463  0.0873
21900W        W35314   2.448   8.893   3.160  0.1025 -0.0502 -0.2063
21901W        W35315   6.819  10.763  15.753  0.0439 -0.0054  0.0616
21902W        W35316  10.869   5.819  12.854 -0.1378 -0.0963  0.0882
21903W        W35317   9.809  13.914  12.581 -0.0947  0.0505  0.0632
21904W        W35318   6.812  17.118   2.746  0.0734 -0.0245  0.0804
21905W        W35319  15.395   3.584  13.477 -0.1542 -0.0081 -0.0915
21906W        W35320  10.284   3.503  15.594 -0.1515 -0.1045 -0.1040
21907W        W35321  13.592  12.530   2.330 -0.0674  0.0520  0.0692
21908W        W35322  13.529  10.868   4.019 -0.1482 -0.1136 -0.2367
21909W        W35323  15.739   8.945   4.321 -0.0840 -0.0314  0.1528
21910W        W35324  11.173   3.619   4.615 -0.1703  0.1771  0.1806
21911W        W35325  14.142  14.272   5.312  0.3844  0.1168 -0.0277
21912W        W35326   2.160   8.962   2.545  0.6415 -0.1086 -0.1502
21913W        W35327  12.253   8.244  10.867 -0.3691 -0.1238 -0.0156
21914W        W35328  11.836  14.425   6.139  0.0121  0.3501 -0.1383
21915W        W35329  14.143   0.259  14.575  0.2550 -0.1087  0.0602
21916W        W35330   0.441   7.443  14.242 -0.1630  0.0467 -0.0885
21917W        W35331  17.491  16.531  13.975 -0.3649 -0.2308 -0.1797
21918W        W35332   5.145  17.046   1.310  0.1337  0.0070  0.1053
21919W        W35333  17.156  13.513   2.929  0.0450  0.1115 -0.1880
21920W        W35334   7.433  15.170   1.316 -0.1243  0.0553  0.1505
21921W        W35335  13.914   8.843   0.780  0.1311 -0.0002 -0.0577
21922W        W35336  14.278   9.029  13.856  0.2927 -0.0088  0.2641
21923W        W35337  16.819   6.256  10.305  0.0929  0.0974  0.1848
21924W        W35338   3.261  16.006  15.936 -0.3402  0.0495  0.1825
21925W        W35339   1.945  16.328   3.644  0.0629  0.3463  0.3668
21926W        W35340  16.315   4.997   1.914  0.2124  0.0037  0.1453
21927W        W35341  13.259   2.903  11.001 -0.0786 -0.0101  0.1814
21928W        W35342   4.802   5.968  15.196 -0.0337  0.3080 -0.1331
21929W        W35343  13.626  12.630  16.237 -0.1570 -0.0933 -0.1857
21930W        W35344  11.486   1.404   4.775  0.1511  0.1333 -0.1776
21931W        W35345   9.229   7.740  12.183  0.1109  0.0116 -0.1092
21932W        W35346  15.515   0.851   0.929 -0.0531  0.1545 -0.1440
21933W        W35347   6.180   3.847  10.309 -0.1086  0.1495 -0.2258
21934W        W35348   8.873  17.945  11.961 -0.0418  0.0095 -0.1430
21935W        W35349   9.517   2.322  15.602 -0.1313 -0.0870  0.1339
21936W        W35350  16.437  16.341  11.187 -0.1127  0.0799 -0.1201
21937W        W35351  11.262  15.204  14.725 -0.0934  0.1250  0.0988
21938W        W35352   0.450  11.635   3.957 -0.1258  0.1876 -0.1043
21939W        W35353  11.242  16.982   3.541  0.0896  0.0915  0.0420
21940W        W35354   5.476  11.366  13.258  0.0249 -0.1803 -0.0558
21941W        W35355   6.683   7.610   6.390  0.0323  0.1458 -0.0478
21942W        W35356  13.683   0.755  13.866  0.1996  0.5571  0.3067
21943W        W35357  16.718   1.858  11.459  0.3336 -0.0880  0.2370
21944W        W35358   9.240  13.400   1.977 -0.0487  0.0086 -0.2148
21945W        W35359   3.328   0.227  14.177  0.4348  0.0018  0.2001
21946W        W35360   1.099  11.858   0.234 -0.0042  0.0317  0.1635
21947W        W35361   1.257  12.971  12.517 -0.1190  0.0827  0.0209
21948W        W35362  11.922   8.755   5.997 -0.1485  0.3135  0.0618
21949W        W35363   1.305  12.214  16.380 -0.0702 -0.0242  0.1222
21950W        W35364  10.782  15.650  14.520  0.1762  0.1035 -0.0845
21951W        W35365   9.774  13.060  12.783 -0.1473 -0.0550  0.1124
21952W        W35366   7.938   2.532   3.327  0.0659 -0.0473  0.4253
21953W        W35367   1.603  15.436   0.820 -0.1879  0.1335  0.0237
21954W        W35368   8.595   8.490  15.098 -0.1330  0.2675 -0.0309
21955W        W35369   9.447  16.901   9.689 -0.1107  0.1575 -0.0358
21956W        W35370  12.616   5.084   4.462  0.1575 -0.1342  0.0586
21957W        W35371  14.684  16.539   4.441  0.3177  0.0620  0.1201
21958W        W35372   1.270   3.158   2.780  0.2124 -0.0171  0.0111
21959W        W35373  11.482  12.288  13.778  0.3456  0.1852  0.0036
21960W        W35374   7.768   3.367   2.417 -0.0099 -0.1982  0.0394
21961W        W35375  16.486  11.000   1.684 -0.0263 -0.1473 -0.2090
21962W        W35376   5.384  12.745  13.809 -0.1597 -0.1263 -0.2243
21963W        W35377   1.729   8.994   4.286 -0.2843 -0.0415  0.3645
21964W        W35378   0.410  11.240  15.140 -0.0771  0.3628 -0.1380
21965W        W35379   3.619  17.931  12.072  0.0033 -0.3263  0.0009
21966W        W35380  17.354   0.909   3.864 -0.0488 -0.1773 -0.2451
21967W        W35381  13.755  10.107   1.214  0.2728  0.1554  0.0867
21968W        W35382   7.896   3.982  13.597  0.0243 -0.1446  0.2976
21969W        W35383   1.766  11.129   4.528  0.1115 -0.2884 -0.1857
21970W        W35384   1.805  16.447  13.047 -0.1638 -0.0531 -0.1931
21971W        W35385  11.359   1.864   2.745 -0.2330 -0.1743  0.1883
21972W        W35386   6.131   6.379   0.791  0.0580 -0.2024  0.0626
21973W        W35387   7.402  18.023  15.962 -0.0763 -0.1445 -0.2749
21974W        W35388   5.308   1.938  13.755 -0.0136  0.1380  0.0959
21975W        W35389  11.464   5.265   2.774  0.1637 -0.2163 -0.1011
21976W        W35390  13.563   7.585   3.725 -0.2596  0.0136  0.0327
21977W        W35391   8.213   3.659   1.203 -0.0321 -0.0258 -0.2411
21978W        W35392   1.119  14.957   0.001 -0.0001  0.0026  0.0006
21979W        W35393   8.133   7.914  12.167  0.1805 -0.0075 -0.0870
21980W        W35394   4.111   2.530   4.607 -0.1835 -0.1112  0.1795
21981W        W35395  17.166   5.686   6.215  0.4117  0.4647  0.1345
21982W        W35396   6.579   3.575  12.701  0.0518  0.1542  0.0534
21983W        W35397  14.674  14.412  13.927  0.1271  0.1579 -0.0445
21984W        W35398   4.993   5.949   1.439  0.1343  0.0418  0.0848
21985W        W35399  12.101  13.931  12.796 -0.2180 -0.2510 -0.4606
21986W        W35400   3.927   5.611  13.688  0.0468  0.3097  0.1084
21987W        W35401   3.838   1.356  15.133 -0.1902 -0.2228  0.3501
21988W        W35402   8.357  17.362  10.286 -0.0426  0.4198  0.0439
21989W        W35403  13.543   3.220  13.700 -0.1564 -0.2615 -0.1242
21990W        W35404   0.368   6.344  14.860 -0.3218  0.0705 -0.1083
21991W        W35405   3.968   5.939   1.393 -0.0428  0.0938  0.0155
21992W        W35406   3.057  13.585  11.155  0.1012 -0.2538  0.1561
21993W        W35407  17.916   1.218   4.598 -0.3140  0.2530  0.1843
21994W        W35408   2.307  13.222  13.415  0.1301 -0.2340  0.3668
21995W        W35409   8.745   7.670   4.852 -0.1609 -0.2400  0.1941
21996W        W35410   6.371   2.228  15.457 -0.2371 -0.0268  0.2350
21997W        W35411   4.465   6.485  12.098  0.0406 -0.2145 -0.0216
21998W        W35412  17.496  14.012   3.190 -0.2070  0.0475  0.3256
21999W        W35413  15.591  11.699   2.630  0.4149 -0.0319 -0.0409
22000W        W35414   1.033   6.113   0.602 -0.0626 -0.0414  0.0805
22001W        W35415  10.021  18.198   3.461  0.2157 -0.1493  0.0191
22002W        W35416   1.317   4.479  15.201 -0.0970 -0.0049  0.1314
22003W        W35417   2.212  11.092   4.890 -0.3735 -0.2313  0.0752
22004W        W35418   6.838  15.441  12.993 -0.0389 -0.0782  0.0901
22005W        W35419  16.974  12.094  14.875  0.1661  0.0279  0.0849
22006W        W35420   3.568  17.602   4.273  0.2806  0.2351  0.2174
22007W        W35421  14.815   2.508   5.398  0.0736 -0.0754 -0.3597
22008W        W35422   5.882  17.333  15.097  0.1550  0.1935 -0.0867
22009W        W35423  17.627  15.196  15.698  0.2880  0.3010 -0.0512
22010W        W35424   2.372   8.082  14.883 -0.0048  0.0213 -0.0444
22011W        W35425  16.881   3.859  10.071 -0.1516 -0.1905  0.2229
22012W        W35426  15.673   8.088   1.012  0.1053 -0.1243 -0.0485
22013W        W35427  11.911  17.175   0.288 -0.1430  0.1674 -0.1900
22014W        W35428  10.931  15.660   5.456 -0.0749  0.1390  0.0636
22015W        W35429  12.835  10.221   0.108  0.3695 -0.3544 -0.0988
22016W        W35430  11.689  14.138   4.663  0.0150  0.2888 -0.0008
22017W        W35431  10.033   9.707   5.921 -0.3617 -0.1143  0.1763
22018W        W35432   2.807   5.253  12.147  0.0170 -0.0581 -0.0363
22019W        W35433   2.756   0.471  12.812 -0.0009 -0.1423  0.1588
22020W        W35434  16.890   2.672   1.431 -0.0207  0.1600  0.3684
22021W        W35435   3.910   0.768   5.593 -0.2080 -0.0403  0.1112
22022W        W35436   6.051   3.167  15.571 -0.0776 -0.2828 -0.2097
22023W        W35437  14.703  10.896   9.993  0.1654 -0.1819 -0.1897
22024W        W35438   9.008  18.238  13.407 -0.3570 -0.0638 -0.2877
22025W        W35439  15.333   5.682   2.929  0.0146 -0.1692 -0.3304
22026W        W35440  10.249  10.538   0.767 -0.1372 -0.0012  0.0607
22027W        W35441   1.250  10.271   2.083 -0.0779  0.2605 -0.0688
22028W        W35442  18.213  14.879   4.544 -0.0122 -0.1799 -0.0542
22029W        W35443   3.978   5.479   2.076  0.2585  0.3826  0.0693
22030W        W35444   2.131   5.721  11.625  0.0265  0.1307 -0.1387
22031W        W35445   7.874  12.609  12.957 -0.2469  0.0839  0.0689
22032W        W35446   4.344  11.963  12.257  0.0896 -0.3270 -0.0378
22033W        W35447   0.267   1.310  11.315 -0.1076  0.1157  0.0068
22034W        W35448  10.982  11.565   0.010 -0.1966 -0.2168 -0.2829
22035W        W35449   5.756   8.722   5.520  0.1856 -0.2206 -0.3300
22036W        W35450   5.518   9.859   5.983 -0.2205  0.3013 -0.0654
22037W        W35451  14.728  17.556   3.762  0.0912  0.0047 -0.2664
22038W        W35452   2.267   4.540   6.453 -0.2047  0.2443 -0.3044
22039W        W35453   8.684  11.732   5.105  0.1503 -0.3602 -0.1056
22040W        W35454  15.426   0.071  10.693 -0.0795  0.0658  0.1397
22041W        W35455  13.219   7.544   3.296  0.1880 -0.2713  0.0409
22042W        W35456  12.482  13.912  15.304 -0.0117  0.2692 -0.0009
22043W        W35457   1.953   7.763  12.985  0.2357  0.2668  0.0355
22044W        W35458   4.659  12.800  16.337 -0.0457 -0.0413  0.3969
22045W        W35459  10.735   8.022   4.760  0.4001  0.0572 -0.0971
22046W        W35460  12.044  10.885   5.166  0.1634 -0.0902  0.2005
22047W        W35461   7.936   9.169  16.359 -0.1595 -0.0341  0.2473
22048W        W35462   1.784   7.640   4.744  0.0558  0.1155  0.0058
22049W        W35463   9.416  13.071   0.421 -0.3438 -0.0268  0.0768
22050W        W35464   8.294   8.770  11.603 -0.2208 -0.1420 -0.4138
22051W        W35465   4.730   1.860  11.492  0.2448 -0.0177 -0.1263
22052W        W35466   2.751   3.030   0.144 -0.0314  0.1252 -0.0949
22053W        W35467  16.509  10.217   4.568  0.0429 -0.0463 -0.2800
22054W        W35468   0.397   2.625   5.242 -0.4233  0.0023  0.1827
22055W        W35469   8.094  13.169   4.348 -0.0512  0.0004 -0.2347
22056W        W35470   5.823   5.008  12.861 -0.1875  0.1844  0.2701
22057W        W35471   3.962  10.939   2.867 -0.1792 -0.0963  0.1881
22058W        W35472  17.342   7.384  13.644 -0.0035 -0.0619 -0.0297
22059W        W35473   9.415  17.012   0.568  0.3353  0.1466 -0.2052
22060W        W35474  15.809   6.551  12.810  0.2617  0.1753  0.2526
22061W        W35475   4.269   4.150  11.522  0.1835 -0.1421  0.1918
22062W        W35476  16.990   5.114  13.684 -0.1553 -0.0326  0.1841
22063W        W35477  11.712  13.975   0.581 -0.0256  0.3654  0.0442
22064W        W35478  13.838  16.128   0.402  0.2123 -0.1468 -0.0328
22065W        W35479  17.147   7.210   3.452 -0.1543 -0.2786  0.2201
22066W        W35480   0.107   6.734   3.977  0.1590 -0.0807 -0.3455
22067W        W35481  11.845  17.881  10.247  0.1853  0.2218 -0.1805
22068W        W35482  11.900   6.417   6.100  0.1855 -0.0398  0.2794
22069W        W35483  15.039   9.168  12.877 -0.0370  0.1996  0.0743
22070W        W35484  12.640  16.931  13.018  0.3845  0.1364 -0.3015
22071W        W35485   0.923   7.315   5.889 -0.3301 -0.2787  0.0200
22072W        W35486  16.778   6.780   1.751  0.3215  0.2392  0.0946
22073W        W35487   1.122  13.907   4.706 -0.1194 -0.0296 -0.2161
22074W        W35488   6.704  15.472   0.414 -0.0959  0.1025 -0.3555
22075W        W35489  13.022   6.802   2.843  0.1833 -0.0455 -0.3584
22076W        W35490   4.941   6.740   4.714  0.1258  0.2884 -0.0994
22077W        W35491  10.486   3.054   1.787  0.2421  0.1166  0.1892
22078W        W35492  16.361   5.180   4.764 -0.1657  0.0326 -0.0532
22079W        W35493   8.449  15.705  11.190  0.0646  0.0219  0.2074
22080W        W35494   8.199  17.854  15.287 -0.1106 -0.1029  0.0358
22081W        W35495   4.036  10.070  12.754 -0.1547 -0.0202 -0.0933
22082W        W35496   1.542   8.661  10.660  0.0966  0.0505  0.0543
22083W        W35497  17.177  15.771  14.180 -0.0678  0.0989  0.0294
22084W        W35498   7.311  11.379   4.813 -0.1963 -0.0164 -0.3651
22085W        W35499   7.742   0.785  13.496  0.0170 -0.4134 -0.0388
22086W        W35500  10.875  14.564   5.361  0.3527 -0.1727  0.5008
22087W        W35501  12.104  16.893   3.766  0.4104  0.0895 -0.0495
22088W        W35502  14.508   5.360  10.025  0.2240 -0.1064 -0.0901
22089W        W35503   2.635   7.771  12.789  0.1053  0.1393  0.1873
22090W        W35504   1.433   5.217  11.510 -0.0286 -0.3910 -0.1968
22091W        W35505   2.804  14.441   3.748  0.1636  0.2210 -0.0790
22092W        W35506  13.502  11.060   2.643  0.3480  0.0370 -0.0077
22093W        W35507   8.452   3.108   4.801 -0.0466  0.1287  0.0306
22094W        W35508   1.659  17.258  13.286 -0.0654 -0.2364 -0.2272
22095W        W35509   8.748  14.042   0.620  0.1008 -0.3155 -0.0096
22096W        W35510   3.632  17.004   3.516  0.0990  0.1694  0.0182
22097W        W35511   7.525   3.239   0.426 -0.1560  0.0807  0.2399
22098W        W35512   6.859   4.153  10.650 -0.2006 -0.0482 -0.3316
22099W        W35513  12.026  17.962   2.491  0.0019 -0.0640 -0.1751
22100W        W35514  18.108   9.115  12.694  0.0769 -0.3104  0.1635
22101W        W35515  15.817   7.661   3.428 -0.2146 -0.1771  0.1745
22102W        W35516  13.937   8.132   4.581 -0.0604 -0.2302 -0.1423
22103W        W35517   5.142   9.922  15.643  0.0713  0.0011 -0.1092
22104W        W35518   0.837  15.730  16.164 -0.4719  0.2232 -0.1217
22105W        W35519  17.713  15.772   1.107  0.0804 -0.0437 -0.0196
22106W        W35520  16.066   3.377  15.444 -0.0804  0.1115  0.0082
22107W        W35521   3.940   6.836   3.751 -0.3835 -0.1796 -0.2131
22108W        W35522   2.879  16.913  13.373  0.0899  0.2617  0.1461
22109W        W35523   2.415  11.091  16.401  0.0038 -0.0452  0.0285
22110W        W35524   0.982   7.953  14.720 -0.0413  0.0735  0.0276
22111W        W35525   9.185   1.411  14.797  0.0244  0.0933 -0.0814
22112W        W35526  13.023  10.935  13.523 -0.0213  0.0302  0.0480
22113W        W35527  13.451  17.317  10.961  0.2002 -0.1966 -0.1982
22114W        W35528   1.987   1.830   0.193  0.0489  0.2263 -0.0555
22115W        W35529   9.253   8.238  10.607 -0.1641  0.0153 -0.0584
22116W        W35530   9.581   3.662  14.943  0.2455 -0.2011  0.1813
22117W        W35531  10.135   8.705   1.722 -0.3569 -0.0267  0.3948
22118W        W35532  16.274   2.553  15.647 -0.1034 -0.1353 -0.0279
22119W        W35533  10.145   1.333   1.523  0.1519 -0.1516 -0.0518
22120W        W35534   8.215  14.568  10.192 -0.0995  0.0530  0.2670
22121W        W35535   8.573   6.247  11.622  0.0424  0.3557 -0.1672
22122W        W35536  17.056   0.411   2.399  0.2470 -0.0208  0.0048
22123W        W35537   2.979  13.790   5.222  0.0950  0.1459  0.1709
22124W        W35538   4.190   0.847   2.905  0.0214 -0.0115  0.1975
22125W        W35539   6.762  11.619  13.234 -0.3989 -0.2766  0.0197
22126W        W35540   8.414  11.411   5.522 -0.1217  0.2345 -0.0021
22127W        W35541   6.673   4.830  14.016  0.1388  0.0344  0.2681
22128W        W35542   1.020  10.445   4.406 -0.3699  0.2545 -0.5440
22129W        W35543  12.766   5.190   2.082  0.2910 -0.1109  0.2479
22130W        W35544  17.567   4.182   5.243 -0.1558  0.0607  0.0891
22131W        W35545   9.982  17.072   4.258  0.0430  0.1716 -0.0472
22132W        W35546  15.987  10.799  15.845 -0.2264  0.1260  0.2050
22133W        W35547   1.972   5.256  14.072 -0.0067 -0.2126  0.3566
22134W        W35548   6.214  11.099  12.548 -0.1236 -0.1165  0.1250
22135W        W35549   4.373   9.034   4.685 -0.4889 -0.1814  0.0032
22136W        W35550   8.844   3.643  14.470  0.0896 -0.0360  0.0328
22137W        W35551   9.499   2.819   1.816  0.1344  0.7011  0.2426
22138W        W35552   5.890   6.258   3.649  0.0730 -0.2610  0.1902
22139W        W35553   3.836  13.155  16.409 -0.0847 -0.1084 -0.0741
22140W        W35554  16.173  15.615   6.125  0.2107 -0.0657  0.0851
22141W        W35555   9.774   6.074   2.860  0.1899  0.2434 -0.0606
22142W        W35556  10.121   1.254  14.844 -0.1435 -0.0790 -0.0557
22143W        W35557   4.620  15.536  15.222  0.0747 -0.2364  0.0952
22144W        W35558   5.528   4.431   3.264  0.1471  0.1355 -0.5634
22145W        W35559   2.200   3.008   2.923  0.1442 -0.1657 -0.1676
22146W        W35560   2.430  16.027  11.931 -0.1811 -0.0500 -0.1617
22147W        W35561   1.039   8.315  12.458 -0.3521 -0.1208  0.1168
22148W        W35562   3.152   4.934   0.088 -0.0462 -0.2064  0.0191
22149W        W35563  12.584   8.344  13.974 -0.2827 -0.0675 -0.1775
22150W        W35564   1.340   0.118  11.309 -0.1098 -0.2080  0.1192
22151W        W35565   8.099   0.710  10.567  0.0947 -0.6362  0.4075
22152W        W35566   3.115   0.655   4.366  0.1691  0.0119 -0.0917
22153W        W35567  14.029  15.215  13.193  0.0401 -0.3132  0.0664
22154W        W35568  10.199  11.573  16.128 -0.1743 -0.0452  0.1334
22155W        W35569   5.716   6.411   1.093  0.2756  0.1386 -0.2484
22156W        W35570   1.536   1.538   5.819  0.0623 -0.2537 -0.2371
22157W        W35571   9.910  15.451  10.967  0.1087 -0.0549  0.2129
22158W        W35572   3.265   0.136   0.289 -0.0593 -0.1898 -0.3166
22159W        W35573   6.844   9.100  12.381  0.0549  0.0836 -0.1516
22160W        W35574  11.096  11.067   4.941  0.0547 -0.2268  0.0820
22161W        W35575   4.658  13.959  15.685 -0.0970 -0.0113  0.1313
22162W        W35576   3.694   5.083   5.067 -0.0664  0.0155 -0.1155
22163W        W35577   2.743  17.131   4.557 -0.2505  0.1747 -0.0556
22164W        W35578  14.226  16.469  15.289  0.1209 -0.0085  0.0883
22165W        W35579   3.272   2.337  15.177  0.0287  0.0554 -0.3294
22166W        W35580   1.880   6.444  12.513 -0.2006 -0.3040 -0.0089
22167W        W35581  16.097  10.826   1.947  0.4696  0.3254  0.2821
22168W        W35582   9.768   3.443  15.653  0.3087  0.3217 -0.1995
22169W        W35583  17.513  16.661   3.068 -0.0827 -0.0739 -0.3685
22170W        W35584  16.470   6.073  12.302 -0.0427 -0.0268 -0.0754
22171W        W35585  10.054  11.683  11.465  0.1083 -0.2945 -0.0208
22172W        W35586   4.286  10.246   5.054  0.0942 -0.2782 -0.4129
22173W        W35587   1.443   9.526  10.532  0.4287 -0.2846  0.0877
22174W        W35588   7.740  11.642   5.941  0.1133  0.2273  0.3762
22175W        W35589   3.145   7.304   0.046 -0.0090  0.1707  0.0497
22176W        W35590  15.113   8.641   0.605 -0.3723  0.0767  0.1596
22177W        W35591  10.807   2.308  11.444 -0.1648 -0.3498 -0.0333
22178W        W35592   6.489   3.643   4.454  0.2163  0.1187 -0.1591
22179W        W35593   0.256   6.188   5.116 -0.1298 -0.2835 -0.0598
22180W        W35594   2.084  14.066  11.224  0.0619  0.2154  0.0255
22181W        W35595  16.211   8.808   5.527  0.0175 -0.1106 -0.0378
22182W        W35596   8.970   0.119   0.279  0.0032 -0.2984  0.1867
22183W        W35597  16.600   5.542  13.194  0.0893  0.4017 -0.0606
22184W        W35598   3.788   3.338  13.059 -0.0191 -0.0788  0.0968
22185W        W35599  10.689  17.331   2.264 -0.0810 -0.0616 -0.2227
22186W        W35600   0.576  13.104  13.487 -0.0037  0.0949  0.0292
22187W        W35601   2.815   0.205  11.584 -0.0296  0.4045 -0.2214
22188W        W35602   1.355  18.174   4.810 -0.0407  0.2530 -0.1567
22189W        W35603   9.689   5.317  11.898 -0.2232 -0.3788 -0.2342
22190W        W35604  13.874   0.926   2.144 -0.3010  0.1119 -0.0798
22191W        W35605   7.397  15.580   0.779  0.0130 -0.0319  0.0022
22192W        W35606   5.188  16.227   2.973 -0.2206 -0.0501 -0.1349
22193W        W35607  14.916   6.850   0.381  0.1477  0.3680 -0.0031
22194W        W35608   9.429  10.762  14.593  0.0941  0.0740 -0.1276
22195W        W35609  12.562  17.897  13.427 -0.4158 -0.4396  0.2985
22196W        W35610   3.635  17.611  10.497  0.1058  0.4015  0.3561
22197W        W35611  16.433   7.721  10.737 -0.0389 -0.3914 -0.0083
22198W        W35612  14.806  12.237  13.395 -0.1683 -0.2982 -0.0917
22199W        W35613  11.219   6.181  12.778  0.0259  0.0403  0.0724
22200W        W35614  16.015   6.995  12.061 -0.1178 -0.0658  0.2424
22201W        W35615   1.576   8.870  12.264 -0.0712 -0.2660 -0.2222
22202W        W35616  17.807   2.847  14.732 -0.2605 -0.0879 -0.2016
22203W        W35617   6.925  16.753   0.025 -0.0396  0.2396 -0.1705
22204W        W35618   3.199   1.151   0.355  0.0434 -0.0738  0.1286
22205W        W35619   1.455  12.137   1.651  0.3262  0.1019  0.0246
22206W        W35620  14.626   1.963   2.827 -0.1962  0.0128  0.0505
22207W        W35621   0.860   1.489   5.491 -0.0554 -0.2232  0.0552
22208W        W35622   9.028   3.634   0.303 -0.2589 -0.0968 -0.0773
22209W        W35623   0.798   8.509   0.724 -0.1356  0.3123 -0.0932
22210W        W35624   0.858  17.454  11.847 -0.0611  0.0461 -0.2782
22211W        W35625  11.327   3.608  13.413 -0.0576 -0.0963 -0.2815
22212W        W35626  13.944  13.213   3.593 -0.0608 -0.1281 -0.0213
22213W        W35627  16.229  12.422   1.507  0.2645 -0.2506  0.0754
22214W        W35628  14.390   7.185   1.140 -0.0581  0.0163 -0.2166
22215W        W35629  14.254   7.597   0.887  0.0326 -0.1414 -0.1188
22216W        W35630   5.925  16.787  10.843  0.1313  0.1173  0.3022
22217W        W35631  13.462   7.538   0.533 -0.1434  0.0965 -0.1799
22218W        W35632  14.550   9.260  12.032  0.0454  0.0504  0.1558
22219W        W35633   0.462   9.539   2.125  0.1188 -0.3395 -0.1447
22220W        W35634   4.328  15.760  15.648  0.0402  0.0555 -0.1137
22221W        W35635   5.156   3.497   1.208 -0.2522  0.0495 -0.2523
22222W        W35636  15.498   4.492   0.260  0.0132 -0.4398  0.2096
22223W        W35637  10.052   4.762   5.442  0.0646 -0.0595 -0.0998
22224W        W35638   9.119   1.278  11.400  0.3240 -0.1997  0.1217
22225W        W35639   6.459   0.200   4.807 -0.1851 -0.0762 -0.0634
22226W        W35640   7.243   2.709   0.352 -0.3380 -0.0509  0.1408
22227W        W35641   9.631   0.902   4.898 -0.0024 -0.1154  0.0151
22228W        W35642  10.351  14.346   1.512 -0.0559  0.3469  0.0779
22229W        W35643   8.313   2.630  10.581  0.1611 -0.0991 -0.1028
22230W        W35644  17.792   9.342   4.503  0.2974 -0.0373  0.0292
22231W        W35645  11.874   4.553   0.289 -0.1639  0.0983 -0.0406
22232W        W35646  13.303   1.441   3.587 -0.3183  0.3177  0.0160
22233W        W35647   6.216   5.190  12.501  0.2466 -0.3044  0.1640
22234W        W35648   5.855   4.882  16.071 -0.2189  0.2327  0.2280
22235W        W35649   0.911   6.834  16.421  0.1411  0.0790 -0.2538
22236W        W35650  14.922  14.142   2.590 -0.1059  0.1370 -0.2524
22237W        W35651   8.367  16.094  15.140 -0.0124 -0.0570 -0.2375
22238W        W35652  17.693   9.381  12.382 -0.0375 -0.3593  0.1122
22239W        W35653   3.745  13.307  14.668  0.0144  0.0171 -0.0383
22240W        W35654  11.900  10.868   0.641 -0.0162 -0.3954  0.0587
22241W        W35655   1.126   2.635  12.640  0.0760 -0.0262  0.0353
22242W        W35656   9.508  16.988  11.681 -0.2956 -0.0649  0.0330
22243W        W35657   4.744  13.117  11.128 -0.0682  0.2131  0.1921
22244W        W35658  14.431   0.040   4.412  0.1294  0.0126  0.0840
22245W        W35659  11.169   8.374  10.106 -0.0893 -0.2973  0.1052
22246W        W35660  11.544   3.245   4.478 -0.1960 -0.2459 -0.1288
22247W        W35661  10.330   4.554   5.810  0.2197  0.0506  0.0438
22248W        W35662   0.604   4.756  11.714  0.1735 -0.0873 -0.0170
22249W        W35663   3.902   6.296   5.662  0.0462 -0.0581 -0.1463
22250W        W35664  16.567  14.778   1.399 -0.1316 -0.0177  0.5268
22251W        W35665   6.883   9.767   4.006 -0.0375  0.0880 -0.1570
22252W        W35666   7.488  14.350  11.331 -0.1613  0.1202  0.2228
22253W        W35667  13.270  11.574   4.806  0.0277 -0.0487  0.3383
22254W        W35668  11.547  16.095  12.388 -0.0495  0.0958 -0.2485
22255W        W35669   2.834  12.704   1.570 -0.1133 -0.0342 -0.0881
22256W        W35670  16.678   1.334   0.887 -0.1858  0.6638  0.1289
22257W        W35671  17.770  16.971   2.769 -0.0597 -0.0281 -0.3260
22258W        W35672   2.435  16.878   6.105 -0.0550  0.2216  0.0345
22259W        W35673  12.295   7.147  12.246 -0.4441  0.1447 -0.2914
22260W        W35674  18.098   5.178   3.656 -0.0458 -0.1250 -0.1179
22261W        W35675   9.036  11.835  13.140  0.1694 -0.0800  0.1296
22262W        W35676  10.998   9.113   1.219  0.0580 -0.1501 -0.0590
22263W        W35677   9.617  15.539  14.170 -0.2093  0.0101 -0.2888
22264W        W35678   6.672   0.709   1.973 -0.0023 -0.3248  0.1785
22265W        W35679   0.064   0.574   6.432 -0.3515  0.1225 -0.1578
22266W        W35680   2.449   8.375   5.303  0.1460  0.2083 -0.1188
22267W        W35681   4.454   3.113   4.082 -0.2734 -0.1467  0.0858
22268W        W35682  17.384  10.386   2.006  0.1610 -0.3248  0.1349
22269W        W35683  12.990   2.228  10.231 -0.1431  0.0534 -0.0744
22270W        W35684   0.523  13.846  13.450  0.1423 -0.0603  0.0877
22271W        W35685  13.833  14.003  10.637  0.1258  0.1980 -0.0736
22272W        W35686  15.361  16.404  10.707 -0.1809 -0.0727 -0.1307
22273W        W35687   4.159   1.653  16.201  0.0664  0.2687  0.1442
22274W        W35688   8.706   1.625   3.250  0.0347 -0.0668 -0.3972
22275W        W35689   2.036   2.603   3.336  0.0778 -0.3711 -0.3628
22276W        W35690   4.890  10.443   2.600  0.4514 -0.2192 -0.0767
22277W        W35691   2.084  16.426   0.372 -0.2237 -0.2110  0.0405
22278W        W35692  10.752  11.438  13.183 -0.0710  0.1514 -0.0852
22279W        W35693   9.108   7.335   4.739 -0.2801  0.1609 -0.0728
22280W        W35694  10.045   0.497   4.237  0.0634 -0.2088  0.0789
22281W        W35695  14.670   2.187  11.956  0.3435 -0.2897 -0.4334
22282W        W35696   3.094  13.095   4.512  0.0331  0.0970 -0.1550
22283W        W35697   2.616   2.197   5.391  0.3319  0.3345 -0.0872
22284W        W35698  13.334   3.629   4.227 -0.2074  0.0024 -0.0821
22285W        W35699   6.588  14.976   5.809 -0.2534  0.0489 -0.0004
22286W        W35700  16.686  11.775  14.652  0.2326  0.2432  0.1777
22287W        W35701   1.414   1.630  14.771  0.0468 -0.0624 -0.0261
22288W        W35702  13.745   3.327   5.360  0.0634  0.0755  0.2453
22289W        W35703   2.581  11.875   6.230  0.1398 -0.0351  0.3724
22290W        W35704  10.285   3.299   0.085  0.1802  0.1060 -0.3857
22291W        W35705  12.995   3.176   3.796 -0.1532  0.3340  0.0698
22292W        W35706  13.226  10.299   5.128 -0.2087  0.1339 -0.2771
22293W        W35707  16.721  13.868  16.228 -0.1836 -0.1196 -0.0485
22294W        W35708   1.699   8.095  11.910  0.0849  0.0378  0.2481
22295W        W35709  15.035   2.687  10.027 -0.1392 -0.1543 -0.3002
22296W        W35710  12.077   5.486  15.289 -0.3641 -0.2020 -0.1444
22297W        W35711   5.436   6.822   1.289  0.0234 -0.1215  0.0416
22298W        W35712   6.684   1.230   0.285 -0.1054  0.2044 -0.2277
22299W        W35713   9.892  17.872   0.664  0.2232  0.1380 -0.4100
22300W        W35714  14.132  16.425   4.280 -0.0837 -0.0978 -0.0965
22301W        W35715   2.642   2.821  14.396  0.0171 -0.4043  0.1898
22302W        W35716   4.373   6.228   4.488 -0.1253  0.1620 -0.0819
22303W        W35717   5.376  15.697  11.786  0.4118 -0.1677 -0.0190
22304W        W35718   8.898   3.144  15.025  0.1584 -0.2812 -0.0129
22305W        W35719  11.533   1.480  13.753 -0.3408 -0.3089 -0.2316
22306W        W35720  16.064  16.106   2.830 -0.3291 -0.1946 -0.2795
22307W        W35721  10.491   9.332   2.278  0.2523  0.0439 -0.2170
22308W        W35722  14.783  17.452   2.447  0.1480 -0.0909  0.1579
22309W        W35723  14.210  15.312  13.673  0.1390 -0.3104 -0.0401
22310W        W35724  11.938  15.170   2.470  0.1623 -0.4938  0.0099
22311W        W35725   4.531   7.968   4.430  0.3348  0.0339  0.0778
22312W        W35726  10.097  14.316  15.757  0.0072 -0.1639 -0.0564
22313W        W35727   8.810   9.725  11.954 -0.1679 -0.0289 -0.1361
22314W        W35728  11.208   9.374  14.222 -0.2320  0.0502 -0.0538
22315W        W35729   4.530  14.583   6.125  0.1193  0.0213 -0.1565
22316W        W35730   2.805   8.388  13.406 -0.0399  0.0109  0.1072
22317W        W35731  16.466  11.994   1.724  0.0352  0.0751 -0.2719
22318W        W35732   2.222   2.138   5.667  0.0080 -0.0933 -0.1631
22319W        W35733  13.912   6.253  12.380  0.4092 -0.1972 -0.2294
22320W        W35734   5.494   4.580  15.629 -0.0846  0.1484  0.2520
22321W        W35735  14.282   5.883   5.533 -0.1577  0.0429  0.0188
22322W        W35736  13.699   2.761   2.138  0.0702  0.0102 -0.0277
22323W        W35737  15.463  12.082   3.609  0.1036  0.3991 -0.2108
22324W        W35738   5.542  13.210  14.232  0.1904 -0.0107 -0.1690
22325W        W35739  18.096  16.099   0.946 -0.1721  0.3800  0.3747
22326W        W35740  10.525  12.403  11.498 -0.1767 -0.1324  0.0346
22327W        W35741   1.874  10.017  13.302  0.0989  0.0621  0.0788
22328W        W35742   5.411   3.623  11.856 -0.0093  0.2281 -0.2298
22329W        W35743  15.681   8.410   3.332  0.1832 -0.0330 -0.2303
22330W        W35744   3.809  14.452  12.842  0.0706  0.2569  0.0518
22331W        W35745   5.465   1.905   2.953  0.1379  0.0535  0.2003
22332W        W35746   9.289   9.459  15.689 -0.1230  0.1620  0.0353
22333W        W35747   0.009   2.998   1.071  0.0404 -0.1093  0.2400
22334W        W35748  16.338  11.115  11.889 -0.1193  0.1229  0.0535
22335W        W35749   5.550  11.188   6.501  0.3865 -0.1629  0.1688
22336W        W35750   2.934  16.675  12.220 -0.1536 -0.0364 -0.0829
22337W        W35751   3.223   4.541   2.225  0.2158 -0.0289 -0.1035
22338W        W35752  17.868  14.438   5.302 -0.1697  0.4820 -0.2807
22339W        W35753  12.175  10.997  13.834 -0.1447 -0.0824 -0.1246
22340W        W35754  11.396   0.986   3.478 -0.0501  0.2108 -0.1545
22341W        W35755  15.029   0.823   0.721 -0.0535  0.0261 -0.0527
22342W        W35756  16.597   1.548  14.941 -0.0432  0.0511 -0.1206
22343W        W35757   8.092  10.375   2.310 -0.2450  0.1608  0.1311
22344W        W35758   9.406  17.623   0.440 -0.0647  0.1671 -0.0185
22345W        W35759   6.494   5.434   2.929  0.4226  0.3573 -0.0652
22346W        W35760   1.014  14.081   3.182  0.1497 -0.2476 -0.6039
22347W        W35761  10.775   0.863   1.196  0.2288  0.0369  0.2441
22348W        W35762  16.101  11.352   2.981 -0.0565 -0.0577 -0.0475
22349W        W35763   8.925  15.365   5.188 -0.3734  0.2107  0.1828
22350W        W35764  15.994   3.357  16.100 -0.0949 -0.0949  0.1744
22351W        W35765   9.923  17.857   4.315  0.1881 -0.1620 -0.0078
22352W        W35766  13.844  15.592   3.982  0.2330  0.1345  0.0277
22353W        W35767  11.713  17.294   4.342 -0.2117 -0.2802 -0.0490
22354W        W35768  14.505  14.147   2.890 -0.2248  0.2081 -0.0926
22355W        W35769   1.456   9.708  11.197  0.1247  0.1317 -0.1359
22356W        W35770   9.083   6.736   5.365 -0.2058 -0.0443  0.2706
22357W        W35771  10.191  12.968  11.519 -0.1363 -0.2385 -0.2541
22358W        W35772   7.525  12.343  12.693 -0.5321  0.0091 -0.0247
22359W        W35773  11.087  18.123  12.332 -0.0002  0.0061 -0.0779
22360W        W35774  14.101   7.205  14.757  0.0076  0.1759  0.2432
22361W        W35775  16.544   6.797  10.955  0.1246 -0.0432  0.0234
22362W        W35776  16.508   7.330  13.992 -0.3699  0.1892 -0.0886
22363W        W35777  10.099   6.261   3.560 -0.2372 -0.0271  0.0959
22364W        W35778  11.081   6.777  11.983  0.0848  0.0010  0.0682
22365W        W35779   2.566  14.774   1.520 -0.2427  0.0334  0.2130
22366W        W35780   0.415  10.939   4.959  0.4134  0.0500  0.0451
22367W        W35781  15.487  17.418   2.064  0.0380  0.0246  0.0815
22368W        W35782  15.207  15.250   2.460  0.1204  0.1246  0.1646
22369W        W35783   2.633  16.572  10.973 -0.2666  0.2941 -0.1591
22370W        W35784   5.951   8.431  16.003 -0.0013  0.0772 -0.3111
22371W        W35785  12.475   2.896  12.717 -0.3671 -0.4159 -0.1658
22372W        W35786  17.286  13.904  13.198  0.2168  0.0611 -0.0250
22373W        W35787   4.759  17.895  11.863 -0.3985  0.1177 -0.0772
22374W        W35788   3.484   6.548   5.685 -0.2619  0.0059  0.1526
22375W        W35789  10.041   3.374   1.227 -0.0953 -0.1192 -0.1123
22376W        W35790   0.418   6.407   2.702  0.0535  0.0832 -0.0724
22377W        W35791  15.764   6.537   4.822  0.0226  0.0073  0.2603
22378W        W35792   5.557  10.381   3.969 -0.1893 -0.3304 -0.2736
22379W        W35793   8.629  13.905   0.130  0.0937 -0.0184  0.0605
22380W        W35794  17.279   1.192  14.103 -0.1062  0.4764  0.1734
22381W        W35795   7.018  15.722  13.466  0.0970  0.2286  0.0437
22382W        W35796   6.769  12.868   2.299  0.0895  0.3511 -0.0753
22383W        W35797   4.282  16.740  16.011  0.1664  0.0602  0.5643
22384W        W35798   4.202   2.397   5.261 -0.3019  0.0493 -0.3594
22385W        W35799  10.677   0.882   2.401  0.1246 -0.0078 -0.0630
22386W        W35800  10.854  14.581   3.075  0.5025 -0.0084  0.0696
22387W        W35801  16.682   9.634   4.719 -0.1587 -0.0061  0.2281
22388W        W35802  13.399  16.765   1.190 -0.0412  0.1441 -0.4363
22389W        W35803   5.996  10.109   3.633 -0.2582 -0.2098  0.1742
22390W        W35804  12.035  17.400  14.064 -0.2035 -0.1509  0.0994
22391W        W35805  13.760   1.231   3.350  0.1998 -0.2580  0.1275
22392W        W35806   8.599   2.983  16.122  0.0322 -0.1478  0.0482
22393W        W35807   3.247   1.170   1.523  0.2556  0.1511 -0.2611
22394W        W35808   8.605  12.435   5.697 -0.1276  0.2594  0.3397
22395W        W35809  10.029  16.002  16.438 -0.1215 -0.3320 -0.0050
22396W        W35810  15.488  16.132  15.682  0.1083 -0.1750 -0.1118
22397W        W35811  16.529  16.597   3.026 -0.0980  0.0783  0.2757
22398W        W35812  12.787  12.512   2.702 -0.1118 -0.1218  0.1836
22399W        W35813   3.947  10.409   3.651  0.0994 -0.1385  0.1146
22400W        W35814   1.479  14.420   2.503 -0.2193 -0.0126  0.0644
22401W        W35815   9.102  13.229  11.073 -0.1893  0.0311  0.2113
22402W        W35816  11.443  14.234   2.534 -0.0353  0.0154  0.2327
22403W        W35817  16.681   4.830   6.094  0.0139 -0.0489  0.0015
22404W        W35818   5.807   1.949   4.747 -0.0422  0.2118 -0.1936
22405W        W35819  13.299  10.705  15.506  0.0788  0.1944 -0.1400
22406W        W35820  12.117   1.481  15.179 -0.2389 -0.2006  0.3080
22407W        W35821  15.607  16.058   3.378 -0.3061  0.0044 -0.2165
22408W        W35822   1.818   6.083   1.269 -0.1149 -0.2845  0.5380
22409W        W35823   2.005   2.244  12.538  0.0517 -0.1116 -0.1030
22410W        W35824  10.486   9.263  16.135  0.1401 -0.0659 -0.2870
22411W        W35825   1.800   7.497   2.991  0.1186 -0.0092 -0.1426
22412W        W35826   9.266  17.372  13.448  0.0364 -0.1899 -0.1406
22413W        W35827   2.119  12.167   4.218  0.0202 -0.1233  0.4579
22414W        W35828  17.421   5.659   4.117  0.0905 -0.0459  0.1979
22415W        W35829   5.706   2.644  12.150 -0.4821 -0.2429  0.0597
22416W        W35830   7.921  14.176  10.934 -0.2342  0.0176 -0.0024
22417W        W35831  10.278   0.017  12.918  0.1186 -0.1188  0.0580
22418W        W35832   3.425   3.528  15.492 -0.1731  0.2413  0.0045
22419W        W35833  15.486   8.998   1.162 -0.0618 -0.0195 -0.1943
22420W        W35834   8.328   4.049   2.413  0.1085 -0.2993  0.1612
22421W        W35835  13.923  17.881  11.805  0.0847  0.3176 -0.0741
22422W        W35836  14.605  16.556  14.125 -0.2504 -0.2823 -0.1966
22423W        W35837  11.689  10.194  11.887  0.1801  0.3559  0.1284
22424W        W35838   5.774   0.476  10.686 -0.3218  0.0376 -0.1244
22425W        W35839   1.121  14.891  11.299 -0.0311  0.1796  0.2450
22426W        W35840   6.755   5.837  12.605 -0.0844  0.1190  0.3453
22427W        W35841   1.263  13.915  12.746  0.2232  0.2129  0.0172
22428W        W35842  12.470   8.451   1.394 -0.1052 -0.0747 -0.0374
22429W        W35843  13.027   3.259  13.671 -0.0356 -0.2699 -0.0172
22430W        W35844   2.100  11.802   6.294 -0.0274 -0.4050 -0.1072
22431W        W35845   5.295  14.744  13.599  0.0325 -0.1974  0.1079
22432W        W35846   0.671  11.650  11.017  0.3636 -0.1057 -0.1864
22433W        W35847  15.409  12.139   4.126 -0.1527 -0.0153  0.1921
22434W        W35848   1.223   9.937  15.686 -0.0259  0.3353 -0.5923
22435W        W35849   3.065  10.405  12.033  0.1343  0.1753  0.0815
22436W        W35850   5.067  15.274  14.413 -0.0511 -0.0079  0.0865
22437W        W35851  15.862   8.680  11.283  0.0277 -0.1890 -0.0148
22438W        W35852   0.270   8.741   1.528 -0.3670 -0.2346  0.0929
22439W        W35853   1.020  10.741   1.868 -0.0857  0.1685  0.2505
22440W        W35854   5.464  16.705  11.933 -0.0417  0.1696  0.2576
22441W        W35855   4.831   6.386   0.147 -0.1858 -0.2632 -0.0407
22442W        W35856  14.923  16.944  13.928  0.0690 -0.0325  0.0214
22443W        W35857   1.894   4.843   2.969  0.1095  0.0082 -0.1069
22444W        W35858   0.276   7.967  14.470  0.0946  0.2034 -0.0353
22445W        W35859  12.928  12.700   3.183 -0.2716 -0.1385 -0.0994
22446W        W35860   2.252  11.873  11.582  0.1441  0.2998 -0.2794
22447W        W35861  13.846   0.905  11.776  0.1076 -0.0035  0.1211
22448W        W35862  13.110   4.913   0.810 -0.0483  0.0744  0.0625
22449W        W35863  11.094   1.325  15.907 -0.1291 -0.0606  0.0684
22450W        W35864   9.738  11.280   1.812  0.0356 -0.1523 -0.1297
22451W        W35865   7.964   1.599  10.975 -0.2094  0.3015 -0.0610
22452W        W35866  10.509   3.938  13.324 -0.2871  0.0753 -0.0790
22453W        W35867  12.243  17.984   5.531 -0.2443  0.3585  0.2120
22454W        W35868  11.600   7.568   5.298 -0.2727 -0.0133  0.1500
22455W        W35869  17.121  13.437   5.961 -0.5425  0.0338  0.2528
22456W        W35870   6.707   8.480   2.464 -0.1489  0.1383  0.0942
22457W        W35871  12.506   6.123   0.101  0.1397  0.1332 -0.1732
22458W        W35872  15.483  17.408   4.421  0.2850 -0.2804 -0.2008
22459W        W35873   8.118  14.384   3.058 -0.1305 -0.1266 -0.2654
22460W        W35874   1.673   3.600   3.593 -0.0489  0.1846  0.1976
22461W        W35875   8.166   0.659   5.457  0.1171 -0.0395  0.0101
22462W        W35876   0.247   2.169   4.358  0.0580 -0.0746 -0.0358
22463W        W35877  15.243  14.729   1.888  0.1472  0.0672 -0.0617
22464W        W35878   4.101  17.011  10.873  0.0672  0.0762 -0.0582
22465W        W35879   4.033   2.941  16.199  0.0750  0.1471 -0.1505
22466W        W35880   5.054   8.514   2.752 -0.1738  0.0356 -0.2201
22467W        W35881   3.267   7.841   0.188  0.0247  0.2252 -0.3078
22468W        W35882   5.488   0.330   5.381  0.0475  0.1609  0.0380
22469W        W35883   5.686   1.679   1.660 -0.1334 -0.3049 -0.0837
22470W        W35884   3.666   9.466   0.592 -0.3141 -0.0984  0.2067
22471W        W35885  10.952   5.777   1.865 -0.1257  0.0440 -0.0144
22472W        W35886  14.347  13.643  12.383  0.0660 -0.3388  0.0282
22473W        W35887   8.755  11.102  10.524  0.1732 -0.1912  0.2177
22474W        W35888   4.298  15.768  12.452 -0.5484 -0.0175  0.0850
22475W        W35889  15.222  12.710   2.800 -0.1280 -0.2219  0.0722
22476W        W35890   3.313  14.850  12.143 -0.1680  0.2439  0.1735
22477W        W35891  13.002  18.160  13.120  0.2998  0.1945  0.1859
22478W        W35892   3.128   1.668  13.649 -0.0156  0.1567 -0.0016
22479W        W35893   3.364   1.673  12.112  0.1318  0.2550 -0.0639
22480W        W35894   6.645   8.299  13.334  0.0923  0.1668 -0.1242
22481W        W35895   6.271   2.690  13.526 -0.2106 -0.0024  0.0643
22482W        W35896  12.866   6.883   0.449 -0.1435 -0.1391  0.0721
22483W        W35897   5.115   1.451   4.332 -0.0338  0.0572  0.3127
22484W        W35898   5.633   1.365   5.733 -0.0560 -0.0513  0.1958
22485W        W35899  16.486   6.013  13.199 -0.2586 -0.0339 -0.1751
22486W        W35900  13.277   0.757  13.045 -0.0236  0.0556  0.0886
22487W        W35901   6.521   6.820   2.082 -0.1247  0.0629 -0.3805
22488W        W35902  12.311  14.546  16.482 -0.1501 -0.1617 -0.2421
22489W        W35903   3.692  16.286  10.483 -0.1488  0.0380 -0.0217
22490W        W35904   4.622  11.375  16.262 -0.1083 -0.2067 -0.2032
22491W        W35905  15.792   4.305  15.860 -0.3233  0.0722  0.0568
22492W        W35906  11.502  10.046  13.720 -0.5270  0.1788 -0.1012
22493W        W35907   4.591  15.740   6.518  0.0152  0.0568 -0.0394
22494W        W35908   9.885   4.682  14.449  0.1951 -0.3504  0.1336
22495W        W35909   6.454  13.631  13.468 -0.1822 -0.2710  0.0059
22496W        W35910  16.119   0.491  13.433  0.3827  0.0317 -0.0521
22497W        W35911  15.414  16.906  13.256  0.0007  0.0066  0.1649
22498W        W35912   1.281   3.017  16.068  0.1792 -0.1329 -0.0234
22499W        W35913  12.400  17.073   2.337  0.1411 -0.2470 -0.0407
22500W        W35914  15.273   2.632   5.253  0.1511 -0.0902 -0.0232
22501W        W35915  11.969   2.183   0.730  0.0505 -0.0920 -0.1594
22502W        W35916   7.604   5.311  12.771 -0.1745  0.1334 -0.0433
22503W        W35917   3.306  17.175   3.891 -0.0615 -0.0236 -0.1475
22504W        W35918   0.946  17.977   3.300 -0.0178  0.1781 -0.1177
22505W        W35919   0.754   2.510   3.363 -0.0904 -0.2133 -0.0947
22506W        W35920   7.461   9.763   2.450 -0.1137  0.0226  0.0320
22507W        W35921   7.396  17.012   3.371 -0.0725  0.0728  0.2623
22508W        W35922   5.223   4.187   4.136 -0.1475  0.0187 -0.0056
22509W        W35923   4.208  10.468  15.255  0.0439  0.0546  0.1404
22510W        W35924  17.075  17.505   4.479  0.0663 -0.0180  0.2780
22511W        W35925   9.910  13.352   1.083 -0.1462  0.4015 -0.2456
22512W        W35926   5.229   0.550   6.054 -0.0747  0.1363  0.2306
22513W        W35927   0.226  10.823   5.417  0.2172  0.1401  0.2517
22514W        W35928   6.228   0.817  13.984 -0.0184  0.1424  0.0256
22515W        W35929   4.395  13.670  13.939  0.1540  0.1609  0.0544
22516W        W35930   9.465  10.619   0.428 -0.1558  0.1801 -0.2226
22517W        W35931  10.174  17.553  11.381  0.0550 -0.1110 -0.1317
22518W        W35932   5.989  16.423  13.003  0.0926 -0.1311  0.1105
22519W        W35933   1.644   7.270   4.014  0.0957 -0.0699 -0.1598
22520W        W35934   4.902  14.097  15.055  0.0474  0.1067 -0.1942
22521W        W35935   8.813  10.589   3.462 -0.3193  0.2566  0.0284
22522W        W35936  14.383   6.459   2.618  0.2788 -0.2496  0.2418
22523W        W35937  14.998  14.906  15.275  0.0529 -0.3106  0.2752
22524W        W35938   9.994   8.016   1.168  0.3887 -0.0707 -0.5296
22525W        W35939   3.924  15.299   3.754 -0.0342 -0.4003  0.2194
22526W        W35940  16.460   4.638  13.599 -0.0141 -0.0332 -0.2158
22527W        W35941  18.251   6.719   2.704 -0.1003 -0.1166  0.1952
22528W        W35942   3.281   0.659  13.151 -0.0354 -0.0674 -0.0697
22529W        W35943   1.954  17.575   5.109 -0.0476  0.3867  0.0783
22530W        W35944   6.060   5.051   2.618 -0.0415 -0.1520  0.1436
22531W        W35945  12.561  15.878  15.155  0.0807 -0.1651  0.1441
22532W        W35946   4.605  14.597  16.488  0.0432  0.1026 -0.0435
22533W        W35947   8.256   9.341   5.170 -0.1648 -0.0296  0.5172
22534W        W35948   8.098   4.947   5.077 -0.1902  0.2388  0.2801
22535W        W35949   7.746   2.498  12.941  0.0290 -0.2520 -0.0592
22536W        W35950  13.154  14.466  12.505 -0.1786  0.4533  0.3244
22537W        W35951  11.335   7.434  15.786 -0.0647 -0.0358 -0.1055
22538W        W35952   7.277  16.327   3.946 -0.0689 -0.0302 -0.1629
22539W        W35953   1.896   2.018  14.421  0.1386  0.0264 -0.1175
22540W        W35954  12.901   9.129  12.849  0.5957  0.2056  0.0184
22541W        W35955   1.851   8.591  11.983 -0.0720 -0.1338  0.2287
22542W        W35956  16.717   9.656   3.029 -0.0040 -0.0939 -0.2938
22543W        W35957   6.429   6.684  13.693 -0.1809 -0.1027  0.3479
22544W        W35958  17.843   4.112  13.167  0.0191  0.0735 -0.1893
22545W        W35959   2.395   5.961   5.619 -0.2396  0.0428 -0.0186
22546W        W35960   6.467  11.562   2.043 -0.0090 -0.2920 -0.0373
22547W        W35961   6.211   8.192  13.601  0.1245  0.0298  0.4093
22548W        W35962   0.519   9.869  12.896 -0.1701  0.0015  0.1273
22549W        W35963  12.955   8.956  14.595  0.0705  0.3320  0.0673
22550W        W35964  17.370   9.348   5.112 -0.1156  0.0364 -0.0675
22551W        W35965   8.035   2.865  14.461  0.1319  0.0547  0.4312
22552W        W35966  14.784  11.058   4.104 -0.1386  0.2449  0.0246
22553W        W35967   4.671  17.977  14.240  0.0553 -0.2135  0.1620
22554W        W35968  11.390  16.919  12.867  0.0179 -0.0398 -0.1186
22555W        W35969   4.399  17.814   4.221 -0.0314 -0.0291  0.3505
22556W        W35970   3.797   5.800  11.272  0.0808 -0.2234  0.0456
22557W        W35971   1.632   5.544   9.844 -0.1606  0.0092 -0.2262
22558W        W35972   1.069  13.273  16.060 -0.2182  0.0270 -0.2546
22559W        W35973   2.529   5.983  14.980  0.0598  0.0442  0.0439
22560W        W35974  14.034  10.037  15.589  0.1188 -0.0565 -0.0431
22561W        W35975  11.792   4.487  15.013 -0.0693  0.0189  0.0070
22562W        W35976   0.495   6.190  15.324  0.0511 -0.1303 -0.0456
22563W        W35977   4.294   4.434   4.559  0.1169 -0.0595  0.0084
22564W        W35978  17.311  10.326  14.182  0.0933 -0.2452  0.0310
22565W        W35979   9.228   3.254  11.551  0.1570  0.2723  0.0685
22566W        W35980  17.680   0.628  13.662 -0.2756  0.0754  0.0813
22567W        W35981  12.990   6.839  14.040  0.1288  0.1123 -0.3178
22568W        W35982  11.014  16.010   4.242  0.4103  0.4008 -0.3346
22569W        W35983   9.635  12.231   5.992  0.2383 -0.0850  0.0541
22570W        W35984   6.491   7.734   0.371  0.1500  0.0023 -0.0537
22571W        W35985  14.083  10.589   4.964  0.2170 -0.0044  0.0510
22572W        W35986   5.408  12.176   3.137 -0.1279  0.0301 -0.2378
22573W        W35987  10.905   3.303   4.905  0.2256  0.0743  0.0500
22574W        W35988   7.208   2.865  11.960 -0.2653 -0.0422 -0.0172
22575W        W35989  14.842  16.157  16.393  0.0209  0.1592  0.1519
22576W        W35990   9.513   8.123   2.199  0.0930  0.0020 -0.1320
22577W        W35991   6.750  14.721   0.810 -0.0207  0.0210 -0.1787
22578W        W35992   1.978  12.448  15.814  0.3311  0.1826 -0.2182
22579W        W35993  13.565  12.156   5.163  0.2381 -0.0214  0.0238
22580W        W35994  13.843   7.369   1.425 -0.1113 -0.1457  0.2723
22581W        W35995  17.189  17.975   5.394 -0.0100 -0.2121  0.2334
22582W        W35996  10.000   7.277   2.186  0.0323  0.2926  0.0202
22583W        W35997  15.216  16.958  15.328 -0.1192  0.2579 -0.0163
22584W        W35998   7.859   9.990  15.078 -0.0023 -0.0890 -0.0166
22585W        W35999  12.137  16.410  15.129 -0.1414  0.1512  0.2457
22586W        W36000   7.675   6.260  15.429  0.0811 -0.1220 -0.0831
22587W        W36001   2.882   2.935   2.361  0.1410  0.3151 -0.1799
22588W        W36002  11.044  15.984   9.976  0.1084  0.0621  0.3179
22589W        W36003   2.373  14.660   3.865  0.2779  0.0317 -0.0516
22590W        W36004  11.487  12.932  15.150  0.1750 -0.0177 -0.3500
22591W        W36005  14.540  18.132  15.169  0.3225  0.0933 -0.1818
22592W        W36006  12.771   9.860  14.031  0.1776 -0.3829  0.0068
22593W        W36007  17.899  12.033  14.055  0.0703  0.0249  0.1883
22594W        W36008   6.797   2.049   2.577  0.0001 -0.2550 -0.1079
22595W        W36009  17.819  11.348  16.255  0.4130 -0.0504 -0.1790
22596W        W36010   0.639  10.120   5.507 -0.4922  0.0162 -0.0993
22597W        W36011   6.923  11.127  13.185  0.1747  0.2593 -0.0584
22598W        W36012  17.388  12.325  12.466 -0.1326  0.0867  0.0917
22599W        W36013   1.103   0.571  14.039  0.0781  0.0356 -0.0724
22600W        W36014  15.125   5.648  15.481 -0.1044  0.1006  0.3321
22601W        W36015   2.534   4.829   5.042  0.1719 -0.1120 -0.4905
22602W        W36016   8.576  16.795   4.640  0.1001 -0.1559 -0.1182
22603W        W36017   1.289   9.297   0.502 -0.0788  0.1483  0.0429
22604W        W36018   7.255   6.778  15.579  0.2514 -0.0860 -0.1024
22605W        W36019  15.262  13.382   0.863  0.1944  0.0818 -0.3854
22606W        W36020  15.519   2.980   4.751  0.0033  0.1215  0.0427
22607W        W36021   1.510   9.282   5.574 -0.0037  0.0866  0.0454
22608W        W36022  15.170   9.582   4.914 -0.2136  0.2644 -0.4452
22609W        W36023   9.600   4.245   4.918 -0.2400 -0.1744  0.1064
22610W        W36024   0.750   9.080  13.927  0.1845  0.1337 -0.1616
22611W        W36025  13.376   4.910  11.857  0.2867 -0.1021  0.1162
22612W        W36026   4.674   6.905  13.276  0.1062 -0.3130 -0.0292
22613W        W36027  12.539   6.642  10.560  0.2072 -0.0802 -0.0948
22614W        W36028   7.257   2.372  15.469 -0.1271  0.0440  0.2002
22615W        W36029   4.446   7.144   2.766 -0.2462 -0.1165  0.0383
22616W        W36030   3.068   4.529  13.325 -0.0465 -0.0282  0.0828
22617W        W36031  15.554  15.526   3.340 -0.0858 -0.0371  0.0872
22618W        W36032  15.898  14.639  13.275  0.0418  0.0648 -0.1350
22619W        W36033   3.216  14.092  10.972  0.0341 -0.1009  0.0524
22620W        W36034  14.107   8.006  13.261 -0.1384  0.1197 -0.3924
22621W        W36035  12.877   5.550  13.136 -0.1143  0.0068  0.0209
22622W        W36036   2.689   6.658  11.192 -0.0036 -0.2376 -0.2337
22623W        W36037  11.640   2.615  10.507 -0.0455  0.1077  0.1101
22624W        W36038   0.919  12.850  16.424  0.0907  0.0427 -0.0022
22625W        W36039   5.272  13.478   0.717 -0.1234 -0.1079  0.1833
22626W        W36040   9.292  12.305  10.971  0.1299 -0.1373 -0.0111
22627W        W36041   5.159  15.538  11.196  0.1847 -0.1194  0.1628
22628W        W36042   6.161   2.629  12.459  0.2140  0.1706  0.2020
22629W        W36043   6.178  15.587  13.415  0.0987  0.0349 -0.2143
22630W        W36044   1.205  15.858  13.983 -0.5056  0.0392 -0.2154
22631W        W36045   1.018   8.934  15.358 -0.1736 -0.0543  0.0021
22632W        W36046   5.873  17.125   0.132 -0.1396  0.1798  0.0288
22633W        W36047  14.210  15.267   1.437  0.3367  0.1902  0.1089
22634W        W36048   6.545  14.395   1.388  0.1632  0.1919  0.2566
22635W        W36049   3.189   4.484  14.039 -0.0171 -0.0443  0.1881
22636W        W36050  11.742  13.752  16.091 -0.0322 -0.1205 -0.0578
22637W        W36051   0.513   8.709   2.434  0.2681  0.1735  0.4886
22638W        W36052  12.330  17.853   3.756  0.2560  0.0624  0.2067
22639W        W36053  14.315   2.408  10.651  0.0142 -0.0506  0.0345
22640W        W36054   7.860  11.934  14.393  0.0007  0.0625 -0.1312
22641W        W36055   0.970   0.049  14.161  0.2958 -0.2328 -0.1211
22642W        W36056   1.507  12.113  13.591  0.2513  0.0076  0.0164
22643W        W36057   1.593   0.750  12.018  0.0953 -0.2583 -0.1409
22644W        W36058  11.411  14.707  11.620  0.1467  0.3238 -0.1000
22645W        W36059   9.280   5.484  10.865 -0.1159  0.0785  0.0838
22646W        W36060  10.678   7.713   1.339  0.3793  0.1804 -0.3216
22647W        W36061   3.515  17.813   2.723 -0.0299  0.0854 -0.2380
22648W        W36062  14.649   1.482  15.362  0.3347  0.1958  0.1227
22649W        W36063  16.949   7.167  16.302  0.1071 -0.0697 -0.0107
22650W        W36064  12.312  12.642   2.563 -0.2418 -0.3097  0.2328
22651W        W36065   1.274  15.073   5.048 -0.1179 -0.0382 -0.2351
22652W        W36066   0.715   0.053  12.084 -0.1728  0.0790  0.1149
22653W        W36067   3.813  17.748  11.556 -0.0583 -0.2574 -0.0578
22654W        W36068   6.348  13.246   2.008  0.3327 -0.0879  0.2421
22655W        W36069  12.151  12.691  12.119 -0.1254 -0.0863 -0.2109
22656W        W36070   6.283   4.659  15.886 -0.2730  0.0416  0.1452
22657W        W36071   5.822   0.881   3.413  0.1050  0.0045  0.2007
22658W        W36072  16.907  15.311  14.788 -0.0629  0.2706  0.0125
22659W        W36073  15.426   2.330  14.406 -0.1915 -0.0747  0.1590
22660W        W36074  16.087   6.458  12.398 -0.1563 -0.3346  0.2053
22661W        W36075  10.312   7.213  12.469 -0.3467 -0.2925 -0.2317
22662W        W36076   2.775   4.597  13.758  0.1414  0.1738 -0.0175
22663W        W36077  14.767  14.320   5.104 -0.2468  0.3521  0.4597
22664W        W36078   3.155  11.521   5.446 -0.1170 -0.2737 -0.2171
22665W        W36079   5.027   4.045   4.659  0.1275 -0.0046  0.1544
22666W        W36080   2.599  13.052   4.695 -0.0074  0.1619  0.1562
22667W        W36081  13.314  15.400   1.960  0.4001  0.1676  0.0225
22668W        W36082   4.684  14.534  14.917  0.0753  0.1543 -0.2114
22669W        W36083  13.802   5.172  15.600 -0.2703 -0.3607  0.2112
22670W        W36084   5.347  17.212  16.340 -0.2915 -0.1877  0.0813
22671W        W36085  16.660   3.282   1.761  0.3348 -0.1668 -0.1694
22672W        W36086   8.702   0.215   4.292 -0.0826 -0.2296  0.0836
22673W        W36087  17.577   9.589  11.217  0.1664 -0.0772  0.3017
22674W        W36088  13.453  11.403  11.760 -0.2203  0.0096  0.2141
22675W        W36089   2.054   9.236   5.265 -0.1992 -0.1288 -0.3411
22676W        W36090  11.646   3.743   0.470  0.0617 -0.1149 -0.3012
22677W        W36091   8.751   1.794   4.963 -0.0630 -0.0110  0.0413
22678W        W36092  13.463   1.827   1.984  0.0625 -0.1861  0.0016
22679W        W36093   2.165  16.101   1.247 -0.2181  0.0884 -0.3394
22680W        W36094   6.467  17.662   2.236 -0.1933  0.1314  0.3559
22681W        W36095  13.685   1.065   0.127  0.1037 -0.0358  0.2102
22682W        W36096  11.544   4.872  11.572  0.1355  0.1193  0.2383
22683W        W36097   4.683   3.749   3.452 -0.0831  0.1210  0.0221
22684W        W36098   9.410  12.058   2.380  0.0290 -0.1702 -0.1231
22685W        W36099  16.756   4.934  16.170 -0.1425  0.1283  0.2003
22686W        W36100   1.724  12.234  14.111 -0.0428  0.1911  0.0279
22687W        W36101   2.581   3.309   6.263  0.1350  0.0665  0.1544
22688W        W36102  17.212   4.788   0.670  0.3575  0.0072  0.0259
22689W        W36103   3.846  17.419   4.740 -0.1928 -0.2321 -0.0941
22690W        W36104   9.854  17.765  11.109 -0.0810  0.1687  0.0183
22691W        W36105  16.175   4.518   4.221 -0.3676  0.1864 -0.0019
22692W        W36106   8.420  17.453   4.169  0.1882 -0.0875 -0.1657
22693W        W36107   8.588   5.861   3.510  0.1793  0.2882 -0.0141
22694W        W36108   0.436   0.836   1.127  0.1773 -0.3156 -0.3942
22695W        W36109   3.528   1.492  13.466  0.2707 -0.0283 -0.3065
22696W        W36110   9.679   5.453   4.204 -0.0994 -0.0397  0.1268
22697W        W36111  15.249  10.786   4.344 -0.2761  0.0110 -0.0396
22698W        W36112   4.902   1.988   0.227  0.2771  0.1012 -0.0697
22699W        W36113  15.307   2.518  13.900 -0.0323  0.1881  0.0648
22700W        W36114   8.985   8.638   3.310 -0.1139 -0.0248  0.0124
22701W        W36115  11.896  10.843  13.417 -0.0061 -0.0468  0.1219
22702W        W36116   5.771   7.886  13.668 -0.1622  0.0191  0.1589
22703W        W36117  13.387  11.659  14.959 -0.0347 -0.0926  0.0002
22704W        W36118  10.831  12.776   3.085  0.1623 -0.2819  0.2063
22705W        W36119   7.030   8.662  12.395  0.0694  0.0630 -0.0134
22706W        W36120   5.356   5.106   1.670 -0.0674  0.4304 -0.1008
22707W        W36121   2.628  16.008   1.066 -0.2254  0.3247  0.2107
22708W        W36122  15.539   8.691  14.519 -0.0463  0.0246 -0.1600
22709W        W36123   5.024   9.497  12.020  0.0687  0.2419 -0.2357
22710W        W36124   3.840   2.413  14.803  0.2118 -0.3639  0.0313
22711W        W36125  18.144  15.425  12.574 -0.0170 -0.1724  0.3244
22712W        W36126   7.354  10.401   0.671 -0.2852  0.0979 -0.1392
22713W        W36127  16.270   4.133   6.033  0.0525 -0.0645  0.1351
22714W        W36128  17.622  10.710  15.184  0.2864 -0.1359 -0.0942
22715W        W36129  10.244  16.698  15.059 -0.2809  0.2073  0.1343
22716W        W36130  17.113   2.865  11.906 -0.0174  0.2271  0.0225
22717W        W36131  12.180   8.572  10.207 -0.3241 -0.1582  0.0742
22718W        W36132  14.259   2.446   5.259  0.0388 -0.0273  0.2126
22719W        W36133  11.264  13.621  16.189 -0.0727  0.0365 -0.1916
22720W        W36134  18.190   3.403   4.194  0.0967 -0.1627  0.0405
22721W        W36135   7.170   1.693   3.208 -0.2709  0.3616  0.0574
22722W        W36136   1.736   6.532   3.288  0.0962  0.0911 -0.0567
22723W        W36137   2.927  10.422  14.752  0.3201 -0.0387  0.1961
22724W        W36138  10.712   3.897  12.159 -0.0085 -0.0072  0.0867
22725W        W36139   3.662   9.678   3.507  0.3720 -0.0618 -0.0895
22726W        W36140   7.472  18.246   3.743  0.1194  0.0975 -0.1524
22727W        W36141   6.467   8.839   5.654  0.2104  0.1881 -0.0010
22728W        W36142  14.622  12.158   0.755  0.0496 -0.1872  0.0258
22729W        W36143   3.491   9.774   2.984 -0.1987 -0.0834  0.2691
22730W        W36144   8.877  16.721  15.863  0.1116 -0.0949 -0.0844
22731W        W36145  15.209  14.334  13.966 -0.1292 -0.2627  0.0902
22732W        W36146  15.864  17.170  15.947  0.5297  0.1161  0.2096
22733W        W36147   3.360   7.776  14.196 -0.1086  0.1580 -0.0379
22734W        W36148   8.699   9.281   3.192  0.1041 -0.1823  0.4003
22735W        W36149   2.881  16.595   5.378 -0.0263 -0.0047 -0.0733
22736W        W36150  13.114   7.175  14.945  0.3141  0.0678 -0.4536
22737W        W36151  14.936   3.564   2.165  0.2355 -0.5694 -0.3580
22738W        W36152   8.201  12.797  10.523  0.1254 -0.0658 -0.0708
22739W        W36153   8.149  12.407   0.072  0.2365  0.0916  0.1595
22740W        W36154   5.501  15.928  11.300  0.2057  0.0820 -0.4399
22741W        W36155  11.138  13.801  11.876 -0.1954  0.0913 -0.2252
22742W        W36156   3.914  12.108   1.321  0.0235 -0.0451  0.0857
22743W        W36157   3.060  11.152   4.458 -0.1848 -0.2631 -0.0864
22744W        W36158  17.673   2.510  15.116  0.0414  0.1274  0.1998
22745W        W36159   9.829   6.204   1.302 -0.0086 -0.1802 -0.0510
22746W        W36160   7.450   9.338  10.899  0.0857  0.3073  0.1607
22747W        W36161   4.101  14.769  14.163  0.2425 -0.0302 -0.2643
22748W        W36162   8.687  12.392   3.017  0.2161  0.2813  0.1097
22749W        W36163  17.845   7.217   4.398 -0.2230 -0.0589 -0.1452
22750W        W36164   7.496   9.974  15.743 -0.2983 -0.1008  0.2468
22751W        W36165  18.136  17.334   2.839  0.2096 -0.2448  0.2384
22752W        W36166   2.911   2.170  15.647 -0.0992  0.0173  0.0184
22753W        W36167   3.071  16.465  15.975  0.1076  0.1030  0.0168
22754W        W36168   5.908   7.436  15.546 -0.5036 -0.4974  0.1366
22755W        W36169   5.868   2.904   0.299  0.2445 -0.2153  0.0409
22756W        W36170  15.315   4.039  11.151 -0.4148 -0.1890 -0.3613
22757W        W36171   9.365  12.232  13.057 -0.2927 -0.0810  0.2153
22758W        W36172  17.950   1.426  12.218  0.0805 -0.2379 -0.1664
22759W        W36173  15.598  10.509  15.704  0.2543 -0.0489  0.0968
22760W        W36174  15.237   4.734  12.978  0.2403 -0.0666  0.1333
22761W        W36175  12.222  12.505  12.621  0.1364 -0.1741  0.2687
22762W        W36176  17.305   7.819   4.209 -0.1641  0.0551  0.0175
22763W        W36177   1.934   3.248  10.699 -0.3002 -0.5927 -0.0479
22764W        W36178   7.340   2.816  15.224 -0.0161 -0.1284  0.0683
22765W        W36179   4.877  17.798   4.450 -0.2806 -0.1594  0.4142
22766W        W36180   7.390  14.897  15.180 -0.0203 -0.1297 -0.3136
22767W        W36181  10.232  17.664   4.772 -0.1074  0.1439  0.1309
22768W        W36182   3.466   4.026   5.310 -0.0484  0.3942 -0.2261
22769W        W36183   1.689   6.856   0.556  0.1172 -0.0949  0.1356
22770W        W36184   2.172   5.903  13.397  0.0928 -0.0864 -0.1232
22771W        W36185   5.880  10.030   4.146 -0.2149 -0.1241 -0.0553
22772W        W36186  14.919   1.999   1.813  0.1491 -0.1043  0.0839
22773W        W36187   3.579   5.151  15.450  0.1474  0.2083  0.0221
22774W        W36188  11.354  10.179  15.241  0.2612 -0.1817 -0.0027
22775W        W36189   0.209   4.678   5.272 -0.0120 -0.2542  0.0851
22776W        W36190   8.945  10.826  12.288 -0.0117  0.0172 -0.1415
22777W        W36191   7.357   9.078  12.369 -0.0489  0.3219 -0.3438
22778W        W36192  17.359   3.810  13.117 -0.0211 -0.0617  0.1080
22779W        W36193   5.618   8.260   0.062  0.0012  0.1515  0.0469
22780W        W36194  11.479   8.029  10.474  0.1253 -0.0968 -0.0948
22781W        W36195   4.618   2.292  14.240 -0.2811  0.2588  0.0257
22782W        W36196  14.457  13.895   5.074 -0.0694  0.2487 -0.1563
22783W        W36197   4.833   3.107   4.915 -0.2010  0.1812  0.1250
22784W        W36198   1.760  13.681   2.936  0.3768 -0.4396 -0.0613
22785W        W36199   7.217   2.232   5.187 -0.0023 -0.1016  0.2349
22786W        W36200  12.031   1.103   0.216 -0.0940  0.0601 -0.1292
22787W        W36201   5.952  13.989  14.893  0.3189  0.2124 -0.1693
22788W        W36202   3.733  16.097   2.237  0.2106  0.3180  0.0075
22789W        W36203  12.468  10.550  10.834  0.0891  0.0792 -0.0331
22790W        W36204  13.832  15.007   2.164 -0.1186  0.1083  0.2278
22791W        W36205   7.018   5.088  15.419 -0.4713 -0.1448  0.0238
22792W        W36206   3.780  12.541   6.439 -0.0374  0.1448 -0.1299
22793W        W36207   7.296  17.078  11.347 -0.3526  0.2355  0.1073
22794W        W36208   1.463  10.801  11.888  0.0304  0.2054 -0.3501
22795W        W36209  13.442  17.025  12.580  0.3166 -0.1723  0.1800
22796W        W36210   4.174   9.911   0.601 -0.0504 -0.0683  0.0230
22797W        W36211  15.950  18.127  11.981  0.0548 -0.0634 -0.0981
22798W        W36212   3.292   5.078   5.364  0.5184  0.4148 -0.1092
22799W        W36213  10.392   2.464   0.449  0.0039  0.1885  0.1567
22800W        W36214   8.025  12.708  16.188  0.4157  0.1430 -0.0111
22801W        W36215   9.573   1.480   0.645 -0.0954  0.0895  0.1611
22802W        W36216   6.659   6.126  11.821  0.0993 -0.1674  0.1449
22803W        W36217  10.735  13.609   1.093 -0.0022  0.1288 -0.0680
22804W        W36218   5.871   1.264   5.290 -0.1385  0.0367 -0.0317
22805W        W36219  11.874   6.396   2.780 -0.1279  0.1393 -0.2451
22806W        W36220  13.966   2.546   5.612  0.2647 -0.1210 -0.0056
22807W        W36221  10.070  14.578   4.359 -0.0408 -0.1511  0.1675
22808W        W36222   7.940  13.716  15.378  0.0238 -0.2328  0.1479
22809W        W36223  13.151   0.956  10.281 -0.0384  0.4081  0.1652
22810W        W36224  17.535  14.246  15.826  0.0092 -0.2005  0.2555
22811W        W36225   9.842   7.523   1.734 -0.1989 -0.0338 -0.1778
22812W        W36226   4.142   3.797  15.088 -0.3437 -0.0047 -0.0545
22813W        W36227   8.358   7.110   0.499 -0.0299 -0.2197 -0.0849
22814W        W36228  16.902   7.647  16.166  0.0029  0.0985 -0.1219
22815W        W36229   4.881   3.573  15.948 -0.0968  0.0453  0.1639
22816W        W36230  17.179  16.967   1.260 -0.1075  0.2021 -0.1027
22817W        W36231   8.871  14.978   1.705  0.0393  0.1646 -0.1021
22818W        W36232   7.623  14.779   2.429  0.0427 -0.2314 -0.3423
22819W        W36233  11.534  14.212  11.025  0.1198  0.0061  0.1135
22820W        W36234   6.465   3.347  15.707 -0.2796 -0.1178  0.1465
22821W        W36235  12.167   5.686   1.605 -0.2815  0.0470  0.0480
22822W        W36236   7.129  11.337  12.245 -0.3289  0.0497 -0.1568
22823W        W36237   0.649  12.324   1.129  0.2344 -0.0164  0.2750
22824W        W36238  13.532   8.456   2.758  0.2501  0.1962  0.0635
22825W        W36239   3.240   8.337  11.724  0.0156  0.1053  0.0453
22826W        W36240   3.167  17.440   1.326  0.0253  0.0821 -0.1414
22827W        W36241   8.740   5.420  12.079 -0.0963 -0.1976 -0.2686
22828W        W36242  15.429   1.051   2.000  0.1670  0.0804  0.0003
22829W        W36243  10.928  10.239   1.961 -0.0875  0.0592 -0.1341
22830W        W36244   0.197  12.277   4.059 -0.4283  0.0658 -0.1330
22831W        W36245  15.058  14.838  13.128 -0.0441  0.2857  0.0034
22832W        W36246  16.012   4.625   6.099 -0.0379 -0.2204 -0.0670
22833W        W36247   1.858  13.591  15.134 -0.1875 -0.0383  0.0359
22834W        W36248   2.370   5.034  13.797 -0.1676 -0.0828  0.3622
22835W        W36249   2.673  15.592  15.860  0.0452 -0.0087  0.1189
22836W        W36250  10.620  13.233   2.284  0.0555  0.0553 -0.0897
22837W        W36251   2.954   7.507  11.193  0.0690  0.3798 -0.0721
22838W        W36252  13.508  11.391   3.910 -0.0307 -0.1455  0.3048
22839W        W36253  15.627   1.561   4.377  0.0200 -0.0775  0.3873
22840W        W36254   8.601   1.791  10.700 -0.0867  0.1244 -0.0548
22841W        W36255  10.755  11.740  13.656  0.3040  0.2107 -0.1703
22842W        W36256  16.157   1.559  14.693  0.0410  0.1199  0.1273
22843W        W36257  10.104   2.535   0.818  0.1996 -0.0630  0.2961
22844W        W36258  16.564  10.280   4.081  0.2504 -0.3782 -0.0658
22845W        W36259  15.741   4.969  12.422  0.0858 -0.2708 -0.2807
22846W        W36260  11.726   9.539   3.934  0.3909  0.3137  0.0507
22847W        W36261  17.873   0.111  12.770 -0.3088 -0.0012  0.2402
22848W        W36262   9.048   5.322  15.499 -0.1516  0.1229  0.0392
22849W        W36263  16.146   2.018  10.609  0.0281  0.2456 -0.3530
22850W        W36264  15.144   3.215   3.970 -0.2066  0.0859  0.2920
22851W        W36265   6.640  13.094  12.159  0.1327  0.1950 -0.1634
22852W        W36266  11.016  12.700  12.267  0.1842 -0.1856  0.0712
22853W        W36267   9.465  17.375   0.881  0.2355 -0.2706 -0.3896
22854W        W36268  10.829   8.551  15.102  0.2185  0.0731 -0.0493
22855W        W36269   5.316   1.033  13.774  0.1048 -0.1243  0.1643
22856W        W36270   4.448   8.932   0.680 -0.0177 -0.3653 -0.2082
22857W        W36271   2.595   0.788  15.342  0.1450  0.1687 -0.1536
22858W        W36272   4.474  16.528   6.086 -0.1246 -0.1380  0.0482
22859W        W36273  10.025  14.625  11.504 -0.1274 -0.2240  0.0104
22860W        W36274  17.880   1.189  15.490 -0.0887 -0.0135  0.0333
22861W        W36275  14.574  13.086   5.355 -0.0118  0.3799 -0.0076
22862W        W36276   6.307   3.906  12.216 -0.0041 -0.0261 -0.2286
22863W        W36277  12.139   3.881   0.909  0.1636  0.1375  0.0429
22864W        W36278   8.245   0.625  14.060  0.0916  0.0239  0.0313
22865W        W36279   7.579  16.055  10.537 -0.0854 -0.0903 -0.1130
22866W        W36280   1.417   9.161  14.689  0.0503  0.1939  0.1440
22867W        W36281  17.566   7.933  14.812 -0.2016  0.1163  0.0491
22868W        W36282  16.270   4.476   3.633 -0.1720 -0.1087  0.0788
22869W        W36283   7.572   1.273  13.471 -0.0299 -0.0562  0.2714
22870W        W36284  12.851   2.369   0.361 -0.0789 -0.2298  0.2720
22871W        W36285  11.320   3.705  13.959 -0.0034 -0.1315  0.2628
22872W        W36286  11.704  10.181   3.243  0.0799 -0.2121 -0.0641
22873W        W36287   2.445  10.853  10.804  0.2679  0.2183  0.1451
22874W        W36288   3.302  13.939  15.460  0.0090 -0.0716  0.0113
22875W        W36289  10.319   7.684   4.259 -0.1004  0.3377  0.0218
22876W        W36290  17.222   4.243   0.630  0.1653  0.1103 -0.0296
22877W        W36291  11.642   1.140   6.283 -0.4033 -0.2108 -0.1479
22878W        W36292   6.954   0.919   1.057  0.2113 -0.1477 -0.0674
22879W        W36293  11.912   7.915   1.371 -0.0679  0.0869 -0.0202
22880W        W36294  12.187   9.520   0.341 -0.3403  0.2293  0.0826
22881W        W36295   2.086   5.151  12.825 -0.0985 -0.2487 -0.1470
22882W        W36296   5.169   0.545  10.511  0.0214  0.3006  0.0563
22883W        W36297   6.061   5.980   5.063  0.2707 -0.0178  0.2388
22884W        W36298   4.565  16.068  15.262 -0.2613  0.1909  0.1055
22885W        W36299   9.117   4.189   4.684  0.1726  0.0108 -0.0104
22886W        W36300   9.080   3.796  16.219 -0.1303 -0.0918  0.0048
22887W        W36301   5.700   7.488  12.726 -0.0319 -0.0316  0.1544
22888W        W36302  14.273   0.452   2.414 -0.1634 -0.3768 -0.3623
22889W        W36303   0.908   7.411  14.365  0.1009  0.0898 -0.1370
22890W        W36304   1.073  12.064  14.846 -0.0623 -0.1965  0.0378
22891W        W36305  12.873   2.679   3.332  0.0097  0.2309  0.1688
22892W        W36306  17.776   6.646  14.672  0.1019 -0.0461 -0.3074
22893W        W36307   9.416  12.376  12.569  0.1496 -0.4060  0.1547
22894W        W36308   0.219   7.062  13.184 -0.0153  0.1152  0.1839
22895W        W36309  17.189   7.420  15.417  0.0514 -0.1603  0.0369
22896W        W36310   9.964   6.939   5.709  0.2190 -0.0971  0.0943
22897W        W36311  16.012   0.091  11.402 -0.2362  0.1008  0.3556
22898W        W36312  14.279   9.520   5.135  0.2336 -0.1270 -0.0982
22899W        W36313   5.070  10.008   5.919  0.0034 -0.1675  0.1157
22900W        W36314  11.253  17.290   3.144 -0.0057 -0.0291 -0.2641
22901W        W36315   2.498  17.920   5.549  0.1147 -0.1828 -0.0005
22902W        W36316   7.761   1.209   4.282 -0.0208 -0.0714 -0.1484
22903W        W36317   0.726   1.427   3.112  0.0271 -0.3036 -0.1929
22904W        W36318   2.318   7.057   5.702  0.0092 -0.0007 -0.1218
22905W        W36319  13.160   6.702   5.160 -0.3225  0.0217  0.2153
22906W        W36320  16.595   1.902  13.327  0.1329  0.0467  0.0320
22907W        W36321   8.316   2.305  12.026 -0.2227 -0.0333  0.2163
22908W        W36322   1.494   4.654  16.254 -0.2967 -0.0381  0.1311
22909W        W36323  12.854   6.365   4.890 -0.0707 -0.1181 -0.0339
22910W        W36324   1.689   2.970   3.136  0.0427 -0.0243  0.0773
22911W        W36325   5.863  11.489   0.538  0.0524  0.0586 -0.0253
22912W        W36326   4.434   2.952   0.859 -0.4068  0.0729 -0.3408
22913W        W36327   2.215  11.718   2.207 -0.1830  0.2978 -0.0844
22914W        W36328  13.077  16.429   3.816  0.0270  0.0359 -0.1280
22915W        W36329  14.107   0.756   0.400 -0.3400 -0.0564  0.1048
22916W        W36330   3.178   5.914   5.160 -0.2043 -0.2255  0.1015
22917W        W36331  11.811   6.093   5.097 -0.1925 -0.1311 -0.2469
22918W        W36332   6.164  16.035   2.979  0.1770  0.0572  0.0538
22919W        W36333  13.593  17.146   0.003 -0.4834 -0.0362 -0.0735
22920W        W36334  14.508  16.681  12.899  0.0141  0.0264  0.4370
22921W        W36335   4.665  15.142  10.754  0.2306 -0.0869  0.2017
22922W        W36336   9.228   6.455  10.885 -0.0466  0.0201 -0.0321
22923W        W36337  14.880   2.080   0.694  0.3479  0.0310 -0.0375
22924W        W36338   8.619  14.525   3.089 -0.1385  0.0265  0.0359
22925W        W36339  17.396   7.458   5.708 -0.0267 -0.2537  0.0044
22926W        W36340  17.250   0.975   2.550 -0.1921 -0.0167 -0.2789
22927W        W36341   9.697   7.499  12.201  0.1389  0.0664  0.0033
22928W        W36342   9.850   5.655  11.452 -0.0647 -0.0828  0.4752
22929W        W36343   1.208   6.547   5.366  0.1896 -0.2931  0.0940
22930W        W36344  17.872   0.226  14.625 -0.1111 -0.1845 -0.5003
22931W        W36345   1.369  11.271  13.030 -0.0175 -0.1477  0.2423
22932W        W36346  14.595   5.889   2.993 -0.2333 -0.0869 -0.1751
22933W        W36347   5.302  10.713   3.117  0.1240  0.1233 -0.2124
22934W        W36348  15.549  13.788  16.021 -0.0388  0.0718 -0.0338
22935W        W36349   6.298  10.091   6.309  0.0379  0.1238 -0.2197
22936W        W36350   8.799  14.985  11.551  0.0712 -0.2534  0.0158
22937W        W36351  12.327  16.149  12.977  0.0469  0.0628 -0.1365
22938W        W36352   0.490  10.035   3.021  0.1342 -0.3834 -0.1017
22939W        W36353   2.148  16.614  16.413  0.4176  0.0552 -0.1857
22940W        W36354  10.449  17.732   0.702  0.2485  0.1655  0.0176
22941W        W36355  11.013   7.068   2.233  0.0396  0.1799  0.0494
22942W        W36356   5.326  16.892   1.815 -0.0569  0.0052  0.2014
22943W        W36357   5.052  14.523  11.772  0.1785 -0.2796 -0.2493
22944W        W36358  16.822  11.819   4.030 -0.0203  0.1929 -0.1637
22945W        W36359  11.558  17.737   0.001 -0.0657 -0.0682  0.2131
22946W        W36360   6.822   9.083  13.727  0.0820 -0.0285 -0.0347
22947W        W36361  14.292   8.236   4.228 -0.2150  0.1024  0.0589
22948W        W36362   1.891  15.433  11.961 -0.1693  0.0131 -0.1149
22949W        W36363  11.910  13.171  10.336 -0.4067  0.3538  0.0162
22950W        W36364  17.716   2.583   0.331 -0.3153 -0.0248 -0.2766
22951W        W36365  13.190   8.904  10.435  0.0754 -0.0960  0.2378
22952W        W36366  16.529  10.614  11.769  0.2624 -0.0572  0.1749
22953W        W36367   9.165  11.884  12.632  0.1577 -0.0824 -0.1333
22954W        W36368   2.052  11.880   3.290  0.0825  0.0770 -0.1942
22955W        W36369   8.090   5.649  14.766  0.0943  0.0351  0.0270
22956W        W36370   4.189  17.014   4.566 -0.1642  0.0057 -0.0654
22957W        W36371  14.409   2.615   0.311 -0.0335 -0.0940 -0.0497
22958W        W36372   2.764   1.982  13.366  0.0716  0.0093  0.0421
22959W        W36373   5.177  17.612  14.033  0.2243 -0.1877 -0.1376
22960W        W36374   0.048   2.358  12.229  0.1943 -0.0766 -0.1509
22961W        W36375  14.887   9.614   1.600  0.1216 -0.2518 -0.0554
22962W        W36376   6.971  11.701   5.028 -0.0029  0.4266  0.0787
22963W        W36377   8.707   8.650  13.395  0.0048 -0.1084 -0.1271
22964W        W36378  16.812   7.031   0.258  0.0480 -0.1445  0.1954
22965W        W36379  10.680   3.176  13.380  0.0538 -0.3604 -0.2151
22966W        W36380  15.555   8.067   5.201 -0.3256 -0.2138  0.1567
22967W        W36381   7.249   4.400   2.219  0.1329 -0.1773  0.0142
22968W        W36382  14.481  10.910  16.196  0.0818 -0.0316 -0.1061
22969W        W36383  12.873  14.505   5.116  0.0954  0.0879 -0.1455
22970W        W36384   5.842   8.899  15.925 -0.0725  0.2033 -0.0539
22971W        W36385   8.201   9.894  11.638 -0.1112  0.0163 -0.0396
22972W        W36386  12.728  14.180   4.245 -0.2108  0.4610  0.2866
22973W        W36387   1.188   7.166  14.046 -0.4490 -0.3371  0.0898
22974W        W36388   9.262  15.339  14.534  0.2313  0.4991 -0.3913
22975W        W36389  14.568  18.130   4.835 -0.1987 -0.0148  0.1885
22976W        W36390  12.635  17.032   1.572 -0.0835 -0.3880 -0.2704
22977W        W36391   7.556   6.822  14.538  0.0753 -0.1911 -0.2175
22978W        W36392  17.488   8.094  11.998  0.1992  0.1493  0.0816
22979W        W36393   6.903  17.281   0.754 -0.0880 -0.1264 -0.0343
22980W        W36394   5.551   4.155  12.853 -0.0617  0.3007 -0.0655
22981W        W36395   3.658   4.844  15.812 -0.2052  0.1266 -0.2021
22982W        W36396   6.595   1.251   4.816  0.1357  0.1343  0.2733
22983W        W36397   2.218   7.326  10.633 -0.0835 -0.2361 -0.1429
22984W        W36398   5.393   4.095   3.623  0.0563  0.3545 -0.0622
22985W        W36399  15.010   1.555   2.044 -0.2673 -0.1450 -0.3355
22986W        W36400  14.025   8.790  16.006 -0.1972 -0.0601  0.1250
22987W        W36401   3.121   2.383   0.354 -0.3495 -0.3074  0.0676
22988W        W36402   4.409   5.459   4.957  0.0545  0.1968  0.1271
22989W        W36403   7.309   0.418  10.948 -0.1768  0.2065  0.0110
22990W        W36404  12.746  13.544  12.314  0.1042 -0.1673  0.1019
22991W        W36405  17.065  16.953  13.587  0.0062  0.1748  0.0618
22992W        W36406   6.528   5.486  13.944 -0.0598  0.2723  0.1904
22993W        W36407  15.691  17.202   6.103  0.1399  0.0929  0.3659
22994W        W36408  13.179  10.630   2.752  0.1560 -0.0182  0.0310
22995W        W36409   0.886   2.109  12.507 -0.1212 -0.1299 -0.0345
22996W        W36410  16.666   5.677   5.394  0.0385 -0.1501 -0.1606
22997W        W36411  12.635   7.198  11.870 -0.0570 -0.4445 -0.0556
22998W        W36412  13.872   4.487  16.180 -0.0109 -0.2355 -0.2902
22999W        W36413   4.331  12.767   6.237  0.0547  0.0012 -0.2259
23000W        W36414   5.882   4.895   4.142  0.0073 -0.1540 -0.0760
23001W        W36415   1.859   2.978  16.063 -0.0071 -0.0865  0.2860
23002W        W36416  16.578   3.782   5.121 -0.1284  0.0203  0.1857
23003W        W36417  14.965   6.318   0.319  0.0055 -0.2904  0.1486
23004W        W36418  18.107  14.151  10.931  0.0633 -0.4205 -0.1666
23005W        W36419   0.364   2.058  14.819  0.1307  0.3082 -0.1956
23006W        W36420   4.316   0.487   5.597 -0.3463  0.0379  0.1131
23007W        W36421   9.051  12.179   5.504  0.0533  0.1058  0.1367
23008W        W36422   8.825  15.491  11.852 -0.0819  0.0844 -0.3242
23009W        W36423   5.132  11.589  11.766  0.1003 -0.0093 -0.1671
23010W        W36424   0.793   5.988   1.223 -0.1441  0.1317  0.1673
23011W        W36425   0.321  10.919  14.794 -0.0353  0.1383 -0.0611
23012W        W36426   4.305   4.068  12.985 -0.0896  0.0639 -0.0588
23013W        W36427  16.454  14.467  11.187 -0.1259  0.0723 -0.1381
23014W        W36428  14.522   0.996  15.799 -0.1625 -0.2048  0.2204
23015W        W36429   4.834  13.782  12.610  0.0317 -0.1664  0.3332
23016W        W36430  10.287  15.697  13.591  0.1309  0.3446  0.0099
23017W        W36431   5.242   4.627  12.320  0.1695  0.0320  0.2766
23018W        W36432  11.948  11.199  14.280 -0.1179 -0.0011  0.0334
23019W        W36433   3.354  17.031   6.075 -0.4286  0.0717 -0.3718
23020W        W36434  11.421   9.886  12.578 -0.1069  0.0627 -0.0679
23021W        W36435   6.793  15.356   4.018 -0.1450  0.4484  0.0083
23022W        W36436   2.379   7.709   3.926 -0.3558  0.1618  0.0882
23023W        W36437  12.892   9.201  11.271 -0.3066  0.2419 -0.2344
23024W        W36438  17.791   3.229   5.466 -0.3834 -0.2428  0.1892
23025W        W36439  10.464   5.763   1.676  0.1829  0.0738  0.3630
23026W        W36440  10.489  17.738  13.723 -0.1925 -0.1514 -0.2101
23027W        W36441  12.259   1.201  14.307  0.0680  0.0342  0.1395
23028W        W36442   4.231   4.564   2.210  0.2365  0.2241 -0.0807
23029W        W36443  16.100  10.840   0.721 -0.2567 -0.2595 -0.0094
23030W        W36444   4.205   8.678   0.104 -0.0166 -0.0358 -0.3420
23031W        W36445  10.152   7.285  14.736 -0.2511 -0.0822  0.0746
23032W        W36446  10.045  15.339  11.906 -0.1557  0.1111  0.1378
23033W        W36447  17.260   0.532   4.873  0.2741 -0.1459 -0.0309
23034W        W36448  11.685   0.732   0.826  0.0331  0.2229  0.0668
23035W        W36449   0.332   7.625   0.975  0.3588 -0.2271 -0.0276
23036W        W36450   6.578  13.731   1.126  0.0856 -0.0726  0.0084
23037W        W36451  13.124  10.173  14.419 -0.0421 -0.3693 -0.0183
23038W        W36452   1.193  16.807   6.004 -0.2241  0.4311 -0.1828
23039W        W36453  13.905   8.378   0.986 -0.0988 -0.1016  0.0808
23040W        W36454  12.278   2.792   1.998  0.2353  0.1266 -0.1340
23041W        W36455   8.621   2.696   3.138 -0.2196  0.2312 -0.0324
23042W        W36456  17.924  16.222   4.900 -0.1753  0.2302 -0.0162
23043W        W36457  11.157   5.882  11.326  0.0715  0.1237  0.1375
23044W        W36458   1.526  14.455  11.928  0.5155 -0.1282  0.2439
23045W        W36459   7.579   8.625  12.501  0.0322  0.1708  0.0457
23046W        W36460  16.003  14.118  12.620 -0.0906 -0.0110 -0.2010
23047W        W36461  18.143   0.864   2.121 -0.2144  0.3101 -0.3125
23048W        W36462   0.281  14.512   2.179  0.2079 -0.1026  0.2976
23049W        W36463   2.936   3.543  15.524 -0.2787  0.2146  0.0719
23050W        W36464   4.901  12.671   5.602 -0.2108  0.2401 -0.1008
23051W        W36465  10.251  11.384  13.165  0.1366 -0.4020 -0.4053
23052W        W36466   5.580  16.938   2.258 -0.0768  0.0587 -0.1201
23053W        W36467   8.990   5.731  15.096  0.3271 -0.0436  0.2108
23054W        W36468  12.534  14.816   4.906 -0.1752 -0.3835 -0.0623
23055W        W36469   6.580   5.838   4.361 -0.1319 -0.2047  0.0141
23056W        W36470  14.792  13.902   0.767 -0.2867  0.2713  0.3218
23057W        W36471   9.796  15.583   0.099 -0.0043  0.2317 -0.0358
23058W        W36472  13.641   0.921   6.037  0.1297  0.1612 -0.1001
23059W        W36473   8.681   9.296   4.285 -0.0062 -0.1737 -0.1870
23060W        W36474  13.654  12.091  10.659 -0.0233 -0.0625 -0.2106
23061W        W36475   3.333   3.589  10.614  0.1626  0.1541 -0.1237
23062W        W36476  12.473  17.559   2.514  0.1975  0.0128  0.2419
23063W        W36477   7.758   4.668  16.471 -0.5754  0.0688  0.1569
23064W        W36478   9.243   5.876  16.306  0.0801  0.1884 -0.1061
23065W        W36479  13.997   6.343   2.976 -0.1700  0.0189  0.0056
23066W        W36480   0.054   8.074   0.844  0.0497 -0.1911  0.0492
23067W        W36481   8.090  14.144   5.366  0.0564 -0.1996  0.0061
23068W        W36482  13.776   9.460  14.783  0.5177  0.1328 -0.0475
23069W        W36483   0.203   0.569   3.855 -0.3114  0.0256  0.1598
23070W        W36484   8.067  10.936  13.674 -0.2514 -0.0149  0.2122
23071W        W36485   6.831   3.416  14.434 -0.1514  0.0697 -0.2435
23072W        W36486   1.162   8.850   5.657 -0.0117  0.1122 -0.2159
23073W        W36487  13.487  17.593   4.241  0.0400 -0.1185 -0.0206
23074W        W36488   0.408   4.252   1.095  0.0560  0.0585 -0.2716
23075W        W36489  10.480  11.976   2.786  0.1755 -0.2983 -0.0892
23076W        W36490  14.034   6.743   5.939 -0.1115  0.1684  0.1176
23077W        W36491   9.409  16.275  16.027  0.0534 -0.2951 -0.1617
23078W        W36492   0.846  13.522   5.396  0.2443 -0.1344 -0.2457
23079W        W36493  10.395  17.968   4.305 -0.1306 -0.1688 -0.2353
23080W        W36494  12.329   2.203  13.218 -0.1157  0.0255 -0.1754
23081W        W36495   6.719   9.613  12.393 -0.0102 -0.0456 -0.0463
23082W        W36496   6.623  13.801   2.486 -0.0280  0.0375 -0.1713
23083W        W36497   9.836  10.245  13.393  0.2890  0.0612 -0.4045
23084W        W36498   4.006  16.889   5.179 -0.0856  0.4830  0.4870
23085W        W36499  10.327   4.368   2.231  0.0373  0.0036 -0.0933
23086W        W36500  13.108   1.057   1.760 -0.3265 -0.4365  0.3882
23087W        W36501   6.941  10.940  11.061  0.3988 -0.3460  0.2914
23088W        W36502   6.980  14.548   0.420 -0.2204 -0.0076  0.0092
23089W        W36503  13.756   5.054   2.841 -0.1930 -0.0044  0.0115
23090W        W36504   6.675  14.620   2.672  0.1291  0.1361 -0.3090
23091W        W36505  11.790   9.074   3.505  0.0890 -0.2702  0.0984
23092W        W36506   1.042   2.295  15.471  0.2064  0.1491 -0.1416
23093W        W36507   0.389  17.817   5.774 -0.1182 -0.0655 -0.3257
23094W        W36508  14.728   6.240  14.094  0.4833 -0.1636  0.0030
23095W        W36509   8.401  15.961   0.964 -0.0409 -0.0646  0.0215
23096W        W36510   8.563  14.268   1.036  0.1359  0.1417  0.2691
23097W        W36511   9.868  14.421   2.950 -0.2260 -0.2430 -0.2015
23098W        W36512   0.206   2.648  12.757 -0.1632 -0.0651  0.0947
23099W        W36513   2.777   5.263   0.276  0.1982 -0.1455  0.0954
23100W        W36514   1.357   1.741   4.618 -0.1759 -0.0462  0.0346
23101W        W36515  14.448  15.575   5.610 -0.1655 -0.1188  0.2310
23102W        W36516  13.536  17.493  14.823 -0.2281  0.1955  0.2300
23103W        W36517   7.087  12.242   1.774  0.0425  0.0939 -0.1453
23104W        W36518   1.453   5.056   2.774  0.0915 -0.3745  0.1339
23105W        W36519   0.120   6.067  14.091  0.0510  0.1693  0.0175
23106W        W36520  15.972   7.744  16.140  0.0956 -0.1231  0.1637
23107W        W36521  16.596  11.520   5.398  0.3106  0.0650 -0.0970
23108W        W36522  15.586  18.027   2.958  0.0619 -0.0532  0.0795
23109W        W36523  12.206  10.791  11.326 -0.1888  0.2487  0.1393
23110W        W36524  10.902  16.109   4.716  0.0771 -0.1962  0.0516
23111W        W36525  16.162   5.904  16.357 -0.3518 -0.6034 -0.0825
23112W        W36526  13.371   6.804   2.541 -0.0470 -0.0692 -0.0048
23113W        W36527   2.364   5.329   5.144 -0.0053  0.0832  0.0831
23114W        W36528  13.571  13.996   1.951  0.1823  0.2015  0.2079
23115W        W36529   4.853   6.766   1.160  0.0201 -0.1839  0.1041
23116W        W36530   0.776   0.518   3.603  0.1746 -0.1391  0.0826
23117W        W36531   0.811   3.151  10.649 -0.0114  0.0282  0.2552
23118W        W36532  10.640   9.013  15.224  0.1618  0.2000 -0.1142
23119W        W36533  16.950   7.843   5.797 -0.3233  0.1672  0.1807
23120W        W36534   4.170   3.883   5.151  0.1168 -0.0132  0.3476
23121W        W36535   6.192  14.427   5.878 -0.3773 -0.1257 -0.0339
23122W        W36536  12.811   6.385   1.350  0.2268  0.0240 -0.1676
23123W        W36537   1.065   3.829   0.392 -0.0203 -0.0045 -0.0580
23124W        W36538  13.788  11.588  12.084 -0.3492  0.2189  0.0995
23125W        W36539  15.041   5.190  14.326 -0.0282 -0.1244 -0.2028
23126W        W36540   8.202   5.962   5.451  0.1085 -0.1462  0.2131
23127W        W36541  12.432   5.123   6.284  0.2867 -0.2124  0.3875
23128W        W36542  12.292   1.289   4.272  0.0331 -0.1335  0.1915
23129W        W36543  12.459   6.511   0.494  0.2690  0.0312 -0.1776
23130W        W36544  16.182   0.828   4.167 -0.0282  0.0560 -0.0971
23131W        W36545  16.670  15.591   2.057 -0.1491  0.1449 -0.0169
23132W        W36546   8.393   4.991   2.940 -0.2363  0.0216  0.0474
23133W        W36547   6.817   3.629  10.823 -0.0387 -0.0661  0.0394
23134W        W36548   7.080   9.425   3.556 -0.1436 -0.1279  0.3908
23135W        W36549   1.030   4.584  10.845 -0.0951  0.1043 -0.1561
23136W        W36550  12.652   3.463   1.497 -0.0500  0.3293  0.0013
23137W        W36551  14.541  15.266  11.933 -0.4373 -0.0781 -0.0047
23138W        W36552   0.577   0.817  12.117 -0.1665  0.1503  0.2758
23139W        W36553  12.991  15.108   3.682  0.0252  0.0058  0.1602
23140W        W36554  17.856   4.375  12.576  0.3903  0.2582  0.0036
23141W        W36555   4.410  12.556  15.890 -0.0082 -0.0527 -0.2007
23142W        W36556  10.897   6.350  13.639 -0.0698  0.2204 -0.2614
23143W        W36557  12.273   5.824  15.885 -0.2935 -0.0642 -0.1817
23144W        W36558   8.391   1.043  15.810  0.0952  0.0702 -0.3147
23145W        W36559  16.045  13.695  11.317 -0.1324  0.0648 -0.0204
23146W        W36560   0.285  17.803   2.539 -0.0030 -0.0966  0.0187
23147W        W36561  11.307  17.521  15.055  0.1883  0.1881  0.0180
23148W        W36562   4.947  12.566  15.462  0.1438 -0.1515  0.0634
23149W        W36563   3.923  11.568   6.547  0.0745  0.2390  0.0045
23150W        W36564   5.189  16.420  12.261  0.1407 -0.1246  0.0588
23151W        W36565  12.334   1.668  13.481  0.0612  0.2806 -0.0385
23152W        W36566   8.169   9.010   2.449 -0.0848 -0.0454  0.1568
23153W        W36567   7.857   6.028  15.862  0.3154 -0.0712 -0.0694
23154W        W36568  15.628  12.392  14.186  0.2483  0.0803  0.0610
23155W        W36569  13.138   8.254  16.303  0.2101 -0.0629 -0.2216
23156W        W36570  10.839   1.757   2.615 -0.0261 -0.2053  0.0075
23157W        W36571   5.787  17.808  15.157 -0.0800 -0.0432 -0.0565
23158W        W36572   5.072   6.310  14.537 -0.0892 -0.1250 -0.1299
23159W        W36573  15.597   4.222   1.051 -0.1440  0.2455  0.0984
23160W        W36574   9.311   3.089  14.155 -0.0125  0.1094 -0.2044
23161W        W36575  15.446   1.770  12.216  0.1702  0.2893  0.0797
23162W        W36576  13.175   9.469   4.580  0.3319  0.5259 -0.1394
23163W        W36577   1.906   2.904  15.096  0.0142 -0.2704 -0.0878
23164W        W36578   3.785  16.831  15.228 -0.2675 -0.0507 -0.2993
23165W        W36579   0.931   8.600   2.976  0.0910 -0.0942  0.2663
23166W        W36580  11.497  10.480   1.409  0.0414  0.1520 -0.1544
23167W        W36581  17.173   9.449   0.571  0.1735  0.1178  0.3099
23168W        W36582  13.746   6.187   3.792  0.1533  0.1068  0.0201
23169W        W36583   0.484  10.752   3.155 -0.5054 -0.1743 -0.0860
23170W        W36584   0.880  10.261   1.773 -0.1169  0.0595  0.1516
23171W        W36585   1.759  10.015   1.911  0.0052 -0.0064  0.1186
23172W        W36586  16.283  15.587   4.630  0.1858 -0.0171  0.1444
23173W        W36587   3.421   5.104   3.096 -0.1302  0.1695  0.1243
23174W        W36588  16.918   6.500  10.919 -0.3519  0.1749  0.2931
23175W        W36589   9.067   6.065  11.406  0.0871 -0.1327 -0.1400
23176W        W36590  10.273  18.162  14.768  0.1241 -0.0150  0.2927
23177W        W36591  13.875   8.141  13.688  0.0097  0.2706 -0.1589
23178W        W36592   1.779   5.516  12.788  0.1750 -0.2059 -0.0600
23179W        W36593   7.588   9.140  15.422  0.0532  0.1574 -0.1530
23180W        W36594  15.785   2.349  14.781 -0.0620 -0.2420 -0.0342
23181W        W36595  10.906   4.521   3.638  0.1047 -0.3358 -0.1308
23182W        W36596   6.545   9.295   2.888 -0.0569 -0.3183 -0.0896
23183W        W36597  14.666  16.007   4.428  0.3696 -0.1263 -0.0784
23184W        W36598   0.571   4.462   4.985 -0.0660  0.1364  0.0196
23185W        W36599   1.189   5.103   2.357  0.1132 -0.0042 -0.2027
23186W        W36600  17.476   1.725   0.778  0.0761  0.1059 -0.0189
23187W        W36601  15.480   1.723  13.265  0.0986  0.1229  0.1517
23188W        W36602  10.447   3.208   5.200  0.1373  0.0267  0.1162
23189W        W36603   7.210   2.547  14.281  0.0055 -0.1163 -0.3223
23190W        W36604  17.741   9.320   3.262  0.0505  0.2074  0.2597
23191W        W36605  16.301   4.005   5.505 -0.1420 -0.0235 -0.1540
23192W        W36606   4.931   4.641  15.642 -0.1625 -0.1719 -0.2013
23193W        W36607  10.765   2.400   1.360 -0.0473  0.0157 -0.1166
23194W        W36608   8.684  15.276  10.338  0.0617  0.0144  0.0231
23195W        W36609  11.261   4.083  14.513 -0.0017 -0.0241  0.1286
23196W        W36610   7.173   7.763   2.040  0.3340  0.1033  0.0470
23197W        W36611   6.001   0.783   0.729 -0.1681 -0.1729  0.3295
23198W        W36612   6.979  11.118  13.707  0.1787 -0.1565  0.1826
23199W        W36613  16.707   3.627   3.872  0.1250 -0.0212 -0.1520
23200W        W36614   7.310   6.030   0.658  0.4128 -0.3444  0.0134
23201W        W36615  18.145   6.146  11.735 -0.0331 -0.0832  0.1214
23202W        W36616   7.234  10.685   2.358  0.5884 -0.1235  0.2290
23203W        W36617   3.530   3.214   2.787 -0.1247  0.3678  0.0859
23204W        W36618  17.933   1.661   0.507 -0.0214  0.0399 -0.1194
23205W        W36619  17.192   5.330   3.376  0.0065  0.0024 -0.0891
23206W        W36620   4.743   9.827  15.321  0.0456 -0.1686  0.1838
23207W        W36621   9.965   5.206  14.391 -0.1183 -0.1678  0.2844
23208W        W36622   0.856  15.030   0.650  0.0280  0.1532 -0.0148
23209W        W36623   0.430  15.029   2.531 -0.1899 -0.1468  0.3607
23210W        W36624  17.778   3.356  15.608 -0.0529 -0.3052 -0.0846
23211W        W36625  13.955  15.894   2.032 -0.0245  0.1140  0.4618
23212W        W36626  11.513   8.181   4.442  0.1825  0.0543 -0.0624
23213W        W36627  12.359  10.247   4.078  0.1509  0.0402  0.0595
23214W        W36628  12.424  15.748  12.622  0.0147  0.2789  0.0741
23215W        W36629   4.600   8.643   5.586  0.2203 -0.0328 -0.0586
23216W        W36630  12.030  13.153   3.479 -0.0804 -0.0275  0.2755
23217W        W36631   9.543  15.308   1.861 -0.2498  0.0782 -0.1492
23218W        W36632   6.432   4.924   1.415  0.0638  0.0967 -0.1114
23219W        W36633   9.691   4.562  11.021  0.2093  0.0835 -0.0995
23220W        W36634   6.649  14.207  11.203  0.0623  0.1848  0.0734
23221W        W36635   4.667   3.018  15.331 -0.1480  0.0414 -0.0330
23222W        W36636   3.410   7.021   5.677 -0.1320 -0.0064 -0.0311
23223W        W36637  17.109  13.618   3.455  0.0232  0.0597 -0.0481
23224W        W36638   4.643  15.651   1.317  0.1771 -0.3759 -0.0616
23225W        W36639   8.469  17.787  10.596  0.2127  0.1414 -0.0961
23226W        W36640  15.168  17.019  14.833  0.2215 -0.0747  0.1165
23227W        W36641  14.697  12.496  13.893 -0.2333 -0.1093 -0.3176
23228W        W36642  10.540   9.420  13.214 -0.1240  0.2057  0.2563
23229W        W36643  16.421  12.735  15.295  0.1694  0.0268 -0.1175
23230W        W36644   8.980   2.516  13.580  0.2546 -0.2543 -0.2906
23231W        W36645   5.823   4.659  11.480  0.1649  0.1262 -0.1551
23232W        W36646  15.854   3.247   2.211  0.1486  0.1376 -0.0643
23233W        W36647   8.213  15.167   3.637  0.0407 -0.3078 -0.1393
23234W        W36648   0.858   1.790  16.155 -0.0933  0.1760 -0.0493
23235W        W36649   9.890   4.196   3.212  0.2575 -0.3012  0.0443
23236W        W36650  17.687  17.773   3.613  0.0797  0.1463 -0.2719
23237W        W36651   7.003  16.809  11.675  0.3518 -0.2609 -0.1109
23238W        W36652   9.832   1.703  13.631 -0.1598 -0.1478  0.0433
23239W        W36653   6.387   8.285  15.713 -0.2501  0.1021  0.0984
23240W        W36654   4.101   0.718  11.465 -0.1674  0.0194  0.1870
23241W        W36655   3.002   3.372   2.759  0.1349 -0.4066  0.1271
23242W        W36656  14.564  15.544   1.083 -0.2080 -0.3733  0.0029
23243W        W36657   7.016   0.640  15.722 -0.1088  0.1632 -0.0947
23244W        W36658  13.606   8.873   2.983  0.0234  0.2703  0.1221
23245W        W36659   9.264   1.778  12.505 -0.4286  0.1497  0.0618
23246W        W36660  13.580   5.997  15.409  0.3189  0.2068  0.2809
23247W        W36661   2.567   6.253  14.587 -0.0389  0.0440 -0.0285
23248W        W36662   1.484  16.333  14.180  0.0358  0.2588  0.2264
23249W        W36663   3.650   7.842   1.989  0.0713  0.1135  0.0906
23250W        W36664  14.080  16.349   5.240  0.1516  0.2428 -0.0941
23251W        W36665   7.411   4.700  15.532  0.1150  0.2171  0.0156
23252W        W36666  15.108   8.543  14.272 -0.1048  0.2201 -0.0159
23253W        W36667  14.574  15.022   4.354  0.4418  0.1027 -0.0440
23254W        W36668  10.639   0.944  11.495  0.1755 -0.0400 -0.0702
23255W        W36669   9.514  13.521   4.166  0.1753 -0.0480 -0.0201
23256W        W36670   6.129  13.725   0.187 -0.1471  0.0202  0.1604
23257W        W36671  13.920  11.976   4.076 -0.4468 -0.0481 -0.1513
23258W        W36672   9.931   4.666  13.943  0.1025 -0.0499 -0.0211
23259W        W36673   8.972  13.059  15.004 -0.2611  0.3370 -0.3237
23260W        W36674   1.749   3.885  13.720  0.5540 -0.0143 -0.0572
23261W        W36675  14.003   6.084   9.873  0.3869  0.0511  0.2485
23262W        W36676   4.421   9.163   2.515 -0.0883 -0.0569  0.0076
23263W        W36677   0.131   8.847   1.014 -0.3260 -0.1028  0.1831
23264W        W36678   9.321  11.032  12.699  0.3215  0.0995  0.0308
23265W        W36679  14.761  10.954   2.062 -0.3547  0.0170  0.0948
23266W        W36680  16.763   2.843   0.001  0.2461  0.0170 -0.0159
23267W        W36681   6.027  14.837   3.143 -0.0603 -0.1341  0.0170
23268W        W36682  17.651   0.541   5.586  0.1145  0.0756  0.0290
23269W        W36683   9.715   0.944  15.644 -0.1294  0.2038  0.0533
23270W        W36684  11.027   5.680  12.345  0.1770 -0.1025 -0.0073
23271W        W36685   4.086   3.429  13.462 -0.0739  0.1113 -0.0445
23272W        W36686  16.819   5.130   4.471  0.0755  0.3774 -0.0760
23273W        W36687  12.973  17.790  12.148 -0.1787  0.2175 -0.3080
23274W        W36688   7.082  17.024   0.375  0.0633  0.2210 -0.2271
23275W        W36689  12.860   0.379  13.975 -0.2559  0.1277  0.0017
23276W        W36690   4.608  13.749  13.451  0.0857 -0.0771  0.0696
23277W        W36691  16.046   6.734   0.211 -0.2285  0.1155 -0.2872
23278W        W36692   6.667   0.576   5.059 -0.0645 -0.0574  0.0919
23279W        W36693  11.458   8.399  10.810  0.1564  0.0710  0.1063
23280W        W36694  10.172   0.285   9.841  0.0671  0.0572 -0.1710
23281W        W36695   7.384   9.805  14.705 -0.0332  0.1101  0.0798
23282W        W36696   5.877  14.798   2.504  0.3116  0.0234 -0.0651
23283W        W36697   9.446   5.120   4.541 -0.0425 -0.0362 -0.1385
23284W        W36698  15.218  16.145  13.200  0.0932 -0.0889  0.0742
23285W        W36699   6.988   6.141  12.188 -0.2465 -0.2557  0.2681
23286W        W36700  16.459   7.149   4.655 -0.0696 -0.2409  0.0389
23287W        W36701   2.166  12.359  11.772 -0.1113  0.0901  0.4092
23288W        W36702   7.721  10.101   3.925 -0.2073 -0.2083  0.1804
23289W        W36703  16.363   2.927   0.298  0.0761  0.2282 -0.2114
23290W        W36704   6.035  10.109  12.231  0.0834 -0.1681  0.0655
23291W        W36705   3.121   5.529   5.523  0.1466 -0.2881 -0.4004
23292W        W36706   1.564  12.140  12.816  0.3090  0.0475  0.0070
23293W        W36707   5.822   4.410  13.996  0.2674  0.1310 -0.1101
23294W        W36708   6.299   4.413  14.126 -0.2993 -0.0728 -0.0142
23295W        W36709   1.588  13.780   3.789 -0.1700  0.1258  0.1075
23296W        W36710   8.390   6.298   1.771 -0.0293  0.2897 -0.2444
23297W        W36711   3.768   5.681   5.921  0.1178 -0.0538  0.1554
23298W        W36712  15.527  16.484   5.227 -0.1588 -0.1244  0.0865
23299W        W36713  10.465   6.958  12.888 -0.1491 -0.3126 -0.2635
23300W        W36714  16.217   5.347  12.511 -0.0434 -0.1175 -0.1557
23301W        W36715  11.796   5.542   6.000  0.0908  0.1101  0.4981
23302W        W36716   8.834  14.805  12.883  0.0355 -0.1957 -0.1313
23303W        W36717   8.137   3.285  15.036 -0.0230  0.1331 -0.1172
23304W        W36718   3.867   2.392  12.555 -0.1373  0.1540 -0.0927
23305W        W36719  12.976  12.375  14.403 -0.1349 -0.1917 -0.1968
23306W        W36720   1.743  15.118  11.628  0.0263 -0.1235 -0.0963
23307W        W36721   1.496  11.850   2.138  0.0935  0.2458 -0.0019
23308W        W36722  14.390  13.677   1.281  0.3283  0.2365 -0.1911
23309W        W36723   8.348  17.817   3.809  0.3448  0.1416 -0.2582
23310W        W36724   8.934   0.817  11.628 -0.2364 -0.0324  0.0779
23311W        W36725   3.967  13.331  15.908  0.4683  0.2176  0.2867
23312W        W36726   6.766   1.511  14.060  0.2078 -0.3663 -0.1873
23313W        W36727   9.626  18.205  11.195  0.0898 -0.2132 -0.2185
23314W        W36728   8.713   2.494   3.964  0.1025 -0.3545  0.0685
23315W        W36729  15.295  15.183   3.707  0.2405  0.1786 -0.3681
23316W        W36730   0.868   6.819  12.703  0.1418  0.2901 -0.3351
23317W        W36731  12.537   8.273   4.355  0.0315 -0.0445 -0.3057
23318W        W36732   0.228  13.852  12.948  0.0075  0.3858 -0.1885
23319W        W36733   0.330   7.657  10.856  0.3932  0.3182 -0.0774
23320W        W36734   0.760  16.141  12.466 -0.1441 -0.1604  0.0549
23321W        W36735   6.810  11.327  15.014 -0.0259  0.0528 -0.1192
23322W        W36736  10.694  14.569   4.757  0.0162 -0.1414 -0.0705
23323W        W36737  12.855   6.813   4.637  0.0994 -0.2010  0.1020
23324W        W36738   7.281  13.477   5.273 -0.0517 -0.0366  0.1547
23325W        W36739   2.386  14.452   1.856 -0.0377 -0.0511  0.0664
23326W        W36740   5.176  11.166   3.244 -0.3578 -0.0724 -0.0180
23327W        W36741   0.477  17.627  10.432  0.1423  0.1932 -0.0871
23328W        W36742   2.272  18.018   4.581  0.3499 -0.4070  0.0252
23329W        W36743  11.343   2.971   1.560  0.1787 -0.3434  0.0012
23330W        W36744  16.754  17.772   0.681  0.0070 -0.0062  0.1268
23331W        W36745   2.031   1.035   2.901 -0.0641  0.1457 -0.1230
23332W        W36746   8.782  14.150  12.209 -0.0809 -0.0910  0.0693
23333W        W36747  12.205   5.163   4.780  0.1781 -0.2722  0.3047
23334W        W36748   2.567   0.745   1.831 -0.0585  0.3597  0.1196
23335W        W36749  17.996  12.096  11.120  0.1343  0.2203 -0.1498
23336W        W36750  11.038   9.271  13.562 -0.1110 -0.1905 -0.0251
23337W        W36751  17.140  14.183  13.921 -0.2134 -0.1173 -0.2238
23338W        W36752  15.606   6.328  14.877  0.0558 -0.1349  0.0454
23339W        W36753  13.485  17.542  16.193 -0.2026 -0.0510  0.0560
23340W        W36754  13.076  16.264  12.915  0.3360  0.0148  0.0757
23341W        W36755   1.588   9.185   3.235  0.1103  0.1707  0.1451
23342W        W36756  14.416   3.543  14.029  0.2669 -0.0981  0.2298
23343W        W36757  12.510   5.544  12.405 -0.2910 -0.1574  0.2101
23344W        W36758  15.292   7.078  12.111  0.2472 -0.0081  0.2287
23345W        W36759  17.788  14.022   5.661  0.0869 -0.0857  0.0040
23346W        W36760   3.045   2.969   4.732 -0.2858 -0.3605  0.0285
23347W        W36761   9.860  13.389   0.560 -0.0915  0.2811 -0.1357
23348W        W36762   0.979   7.909   0.570 -0.0485 -0.2743  0.0727
23349W        W36763  13.407   9.437   4.121  0.0718  0.0333 -0.1815
23350W        W36764   3.552  14.102   0.773  0.1931 -0.1602 -0.1112
23351W        W36765  12.348  16.501  12.013 -0.0775 -0.1688 -0.1555
23352W        W36766  13.972   5.648  15.041 -0.0153 -0.0452 -0.1163
23353W        W36767  16.389   6.844   2.963  0.0394  0.0395  0.0157
23354W        W36768  17.985   2.752   1.935  0.1514  0.3643 -0.2090
23355W        W36769  12.291   6.410  15.074 -0.0669  0.3790  0.1492
23356W        W36770  16.109   9.099  15.031 -0.1118 -0.1705 -0.3144
23357W        W36771   4.051   0.052  10.561 -0.0811  0.6032  0.0245
23358W        W36772   2.100  16.702   1.396  0.0039  0.0241  0.2237
23359W        W36773  12.952  10.462  10.984  0.2153  0.2669 -0.2249
23360W        W36774  16.317  12.927  10.752 -0.0497  0.1707  0.1082
23361W        W36775   1.335   2.931   5.286 -0.5088 -0.1414 -0.0388
23362W        W36776   0.966   0.523   6.149  0.4129  0.0922  0.4234
23363W        W36777  11.140   8.372   4.746 -0.0181  0.3074  0.0934
23364W        W36778  12.152  16.668  15.624 -0.0678  0.0531 -0.2214
23365W        W36779  13.195  17.158  13.905 -0.1627  0.0856 -0.3339
23366W        W36780   1.315  12.630  16.087  0.2920 -0.0268 -0.1149
23367W        W36781   7.412   5.079   1.204  0.0557  0.1040  0.1329
23368W        W36782  13.026   2.610  11.959  0.2262  0.2400 -0.2348
23369W        W36783   6.283  15.326   5.690 -0.4250  0.1525 -0.0253
23370W        W36784   4.217   2.098  14.872  0.2501  0.0106 -0.1335
23371W        W36785  10.953   4.553   4.969  0.0130 -0.3365 -0.0609
23372W        W36786  15.773   3.622   1.529 -0.1930  0.1150 -0.1516
23373W        W36787   3.882  15.872   1.766  0.1428 -0.2036 -0.1073
23374W        W36788  10.800  11.412  14.060  0.3235 -0.0368 -0.0140
23375W        W36789  15.652  17.206   2.617  0.2433 -0.0900 -0.0847
23376W        W36790   1.302   7.063   2.963  0.1000  0.1711 -0.0835
23377W        W36791  13.988   8.744   5.337  0.6230 -0.0403  0.3103
23378W        W36792  10.720   9.742   0.299  0.0233  0.2052  0.1772
23379W        W36793  16.586  16.637  13.447 -0.3633  0.0765  0.0107
23380W        W36794  11.144   7.824   3.887 -0.1036 -0.4444  0.0694
23381W        W36795   0.349  14.535   3.549  0.3910 -0.0812 -0.4004
23382W        W36796  14.901  11.810   4.868 -0.0389  0.3329 -0.0633
23383W        W36797   9.746   4.206  10.668  0.5499 -0.0959 -0.2362
23384W        W36798  18.224   1.478   1.515  0.0399  0.0427 -0.3576
23385W        W36799   2.136   5.628   3.605  0.2732  0.1813  0.2665
23386W        W36800  10.596   8.842   2.164 -0.3465  0.0266  0.1223
23387W        W36801   5.820   2.688   2.213  0.0222  0.2696  0.3106
23388W        W36802   5.409  13.755  15.445 -0.2083 -0.1551 -0.1733
23389W        W36803   3.045  13.244   3.078 -0.1134 -0.0584  0.1047
23390W        W36804  10.842   5.526  13.788  0.0759 -0.0219 -0.0398
23391W        W36805  17.626   1.534  11.122 -0.0222  0.1421 -0.1625
23392W        W36806  11.332   6.223   3.672  0.1464  0.0037 -0.1829
23393W        W36807  17.514   7.133  14.665  0.3079 -0.0381  0.0105
23394W        W36808   0.563   9.426  11.055 -0.1951  0.1240 -0.3786
23395W        W36809  17.321   7.923  16.275 -0.1428  0.0497  0.2225
23396W        W36810   4.395  11.211  11.884  0.1909 -0.1273 -0.1089
23397W        W36811  11.946  10.658   2.474 -0.1154  0.3656  0.4698
23398W        W36812   8.810   2.310  10.637  0.0928  0.1491 -0.7644
23399W        W36813  12.162  17.678   2.861  0.2593 -0.1359 -0.1838
23400W        W36814   6.643  10.113   1.155  0.2911 -0.2698 -0.0000
23401W        W36815   4.844   2.310  11.108 -0.0750 -0.1010 -0.5479
23402W        W36816  11.054   2.976  13.084  0.1165  0.2519 -0.0935
23403W        W36817   6.645   6.293  10.144  0.0463 -0.0410 -0.0784
23404W        W36818   6.753  15.661   1.736  0.0876  0.1694 -0.1392
23405W        W36819  14.972  12.145  11.622  0.3112  0.2230 -0.1380
23406W        W36820   4.710   6.059   1.834 -0.2547 -0.0795  0.1827
23407W        W36821   8.699   3.535  12.709 -0.1472  0.0716 -0.3158
23408W        W36822   3.538  11.566  11.946  0.0302  0.1491 -0.2942
23409W        W36823   2.687   6.519  11.688 -0.1409  0.1319  0.1104
23410W        W36824  14.480  12.484   3.705  0.0128 -0.3197 -0.0704
23411W        W36825  13.271   0.055   5.069  0.2108  0.0011 -0.1212
23412W        W36826   7.020   4.032   0.245  0.0447 -0.3414  0.0702
23413W        W36827  10.442  12.422   3.027  0.2413  0.2415 -0.0058
23414W        W36828   0.130   7.811  14.932  0.0802  0.2539  0.0105
23415W        W36829   1.587  14.581   3.767  0.6026  0.2823  0.0034
23416W        W36830  11.204  10.748  12.237 -0.0775 -0.1193 -0.1170
23417W        W36831  12.817  16.268   4.758 -0.0822  0.2382 -0.0088
23418W        W36832  17.134  18.085   1.440 -0.2618  0.2446 -0.1434
23419W        W36833  15.590   0.261   2.771  0.2097 -0.1012 -0.1270
23420W        W36834   1.475   0.397   1.644 -0.3623 -0.0924  0.1215
23421W        W36835   7.155   5.207   4.678 -0.1608 -0.1472 -0.0096
23422W        W36836   9.112   8.807  12.236  0.2080  0.1558 -0.2735
23423W        W36837  12.694   3.133   0.704  0.1955  0.1527  0.0375
23424W        W36838   8.440  11.791   2.055  0.0715 -0.1927  0.0115
23425W        W36839   4.817  12.469  11.400 -0.0509 -0.1091 -0.3262
23426W        W36840  16.103  12.418   0.900  0.0601  0.1496 -0.3666
23427W        W36841   4.082  12.191   3.203 -0.0078 -0.0937  0.1377
23428W        W36842   3.532  12.679   1.225  0.0996  0.2888  0.0834
23429W        W36843   3.993   7.546  16.146  0.1512  0.2828 -0.2924
23430W        W36844   7.688   5.353  14.983 -0.1113  0.1818  0.3020
23431W        W36845   2.547   7.513   3.432 -0.1355  0.1079  0.4016
23432W        W36846  11.923   2.639   2.738 -0.1857  0.0184  0.0606
23433W        W36847   2.588  12.124  14.128 -0.0627  0.0830  0.0387
23434W        W36848  12.696   3.150   5.377  0.3918  0.0393  0.4089
23435W        W36849   3.463  17.031   1.647 -0.0282  0.1282  0.1204
23436W        W36850  16.485  12.987   3.569  0.2014  0.2304  0.1930
23437W        W36851  11.669   1.519  14.977 -0.3302  0.0541  0.2689
23438W        W36852  18.090   9.024  12.197  0.1823  0.2690  0.0108
23439W        W36853   0.630   5.808  11.457 -0.0389  0.1116  0.0589
23440W        W36854  11.418   0.625  14.038 -0.0317 -0.1032 -0.1457
23441W        W36855  16.108   7.283   2.126 -0.2782 -0.2601  0.1742
23442W        W36856   2.458  13.917  15.295  0.1218  0.1786 -0.2188
23443W        W36857  16.850   2.090  12.221 -0.3190  0.1641  0.0060
23444W        W36858  11.906  13.517  11.552 -0.1165 -0.0661  0.0494
23445W        W36859   7.861   4.278   0.873  0.1318 -0.0210 -0.0570
23446W        W36860   9.089  10.942  14.179  0.1628 -0.1913  0.0206
23447W        W36861  14.577   5.686  16.163  0.1087 -0.0159  0.1048
23448W        W36862  14.352   8.779  14.448  0.4916  0.1862  0.2084
23449W        W36863  14.892   7.492   0.875 -0.0890 -0.1744  0.1073
23450W        W36864  17.110   4.000   3.783 -0.0007  0.1860  0.3442
23451W        W36865   8.387   3.235   1.637  0.1551 -0.1640  0.0227
23452W        W36866  16.639  12.174  13.387 -0.0814  0.0970  0.2170
23453W        W36867   5.956   3.359   3.839  0.0589 -0.1145  0.2638
23454W        W36868  15.618   4.584  15.346 -0.2591  0.1856  0.0408
23455W        W36869  17.679  14.766   0.619 -0.1148  0.0625 -0.2440
23456W        W36870   1.764  13.724  12.907  0.0363  0.1267 -0.4824
23457W        W36871   7.986   5.946   1.198  0.2052  0.1827 -0.1689
23458W        W36872  18.062   8.453  15.334 -0.0488 -0.2295 -0.0252
23459W        W36873  15.290   4.870   4.642 -0.2019 -0.3589 -0.2468
23460W        W36874   6.374  13.663  11.336  0.2533  0.0486 -0.0774
23461W        W36875  15.875  16.310   3.704 -0.0192 -0.1663 -0.1149
23462W        W36876  15.037  10.242  14.835  0.2142 -0.3898  0.1879
23463W        W36877  17.837   4.664   3.618  0.1216  0.0513 -0.2794
23464W        W36878  16.232  13.761   5.824  0.1946 -0.2260  0.2099
23465W        W36879   3.414  16.957  16.081  0.1312 -0.1397 -0.2105
23466W        W36880  11.334   1.995   3.603 -0.0145 -0.2055  0.0671
23467W        W36881  13.880   7.458  14.188  0.1543 -0.0724  0.0083
23468W        W36882   3.528  13.147  15.679  0.0648  0.2971 -0.1488
23469W        W36883  14.625   2.266  13.329 -0.0415  0.1860 -0.0058
23470W        W36884   7.398   7.494  13.174  0.0765 -0.2244 -0.1122
23471W        W36885  14.296   8.464  13.444 -0.1648  0.1461 -0.0189
23472W        W36886   7.015   4.369  13.219  0.2821  0.0541  0.1681
23473W        W36887   8.416   7.863   2.673 -0.2001 -0.1025 -0.0296
23474W        W36888  13.766   0.608   0.980 -0.0851 -0.3300  0.1223
23475W        W36889   3.998   9.161   1.987 -0.2088  0.0355 -0.0470
23476W        W36890   2.674  18.215  13.043 -0.0068  0.0568  0.3434
23477W        W36891  12.594  11.750  15.229 -0.0139  0.0625  0.2268
23478W        W36892   0.802   7.480   2.968  0.1931  0.0912 -0.4462
23479W        W36893   9.075   0.078   1.652  0.4657  0.1620  0.0404
23480W        W36894   4.840   9.234   2.263 -0.2756  0.2233  0.0623
23481W        W36895   7.637   7.567   3.029  0.0204  0.0774  0.3884
23482W        W36896   5.480   2.545  15.835  0.0022 -0.3374 -0.1395
23483W        W36897   2.453  14.142  14.475  0.1003 -0.0700  0.1442
23484W        W36898   3.065  17.995   2.415  0.2962 -0.1401 -0.1070
23485W        W36899   8.976  11.780   0.148 -0.1341  0.2384  0.0069
23486W        W36900   7.278  12.945   5.272 -0.1237 -0.3488  0.2222
23487W        W36901   6.628   3.727   2.769  0.0786 -0.0028  0.0334
23488W        W36902  15.399   8.879  10.071  0.1458 -0.0386 -0.0751
23489W        W36903  10.952   7.088   1.754 -0.0535 -0.0217  0.1912
23490W        W36904   6.836   5.746  14.824  0.1231 -0.2399  0.0418
23491W        W36905  18.102   8.618  12.443 -0.1803  0.3304 -0.0527
23492W        W36906   2.042  11.930  13.614  0.2456  0.1547  0.1762
23493W        W36907   8.334  11.398   2.316  0.2129 -0.0871  0.1794
23494W        W36908   2.633   5.725   9.833  0.0541  0.0291  0.2508
23495W        W36909  15.439   3.358  14.924  0.0939  0.2046  0.0782
23496W        W36910  10.554   0.468   2.696  0.2417 -0.1796 -0.1106
23497W        W36911  11.143   9.800  12.123  0.0378 -0.0765  0.1477
23498W        W36912  14.601  16.295   1.511 -0.1759 -0.2858 -0.3002
23499W        W36913   2.123  15.619  11.117 -0.2442  0.1637 -0.0265
23500W        W36914  12.498  18.060   1.804 -0.0973  0.0362  0.1634
23501W        W36915  11.680  11.106   3.815 -0.0765 -0.1476 -0.1042
23502W        W36916   5.733   5.402   1.796 -0.0741 -0.2109 -0.1350
23503W        W36917  16.914   3.569  12.466 -0.0178  0.2174  0.0435
23504W        W36918  12.273   8.342   3.666 -0.1378  0.1977 -0.0040
23505W        W36919   4.623   3.782  10.763 -0.3173  0.0060 -0.2117
23506W        W36920   5.651   6.787  10.852 -0.1186 -0.2638 -0.2086
23507W        W36921  17.787   0.145  13.636 -0.2393 -0.0706  0.2563
23508W        W36922   3.513   4.013   2.064 -0.1902  0.2801  0.2403
23509W        W36923   3.619   8.656   6.300  0.0479 -0.0298 -0.1261
23510W        W36924   0.570   5.154  10.991  0.1607 -0.2883  0.0514
23511W        W36925   5.516  16.044   4.446 -0.3041  0.0974 -0.0881
23512W        W36926   6.026   3.994   5.675  0.0122  0.0963  0.0112
23513W        W36927  12.908  15.792  13.626  0.0380 -0.1534  0.0253
23514W        W36928   2.663  12.027   0.393  0.0939 -0.0054 -0.0176
23515W        W36929  16.175  13.229  12.773  0.1538 -0.1939 -0.0251
23516W        W36930   8.144  13.226  11.320  0.1260 -0.0598 -0.1558
23517W        W36931  12.349   2.514   2.439 -0.0799 -0.0558 -0.0727
23518W        W36932  14.687  14.535   3.149 -0.0606 -0.1678 -0.1512
23519W        W36933   3.523   0.849   1.856 -0.1387  0.2041  0.2926
23520W        W36934  17.686  11.670   3.148  0.1705  0.0481 -0.1957
23521W        W36935   8.728   3.118   5.369 -0.1340 -0.3804  0.0437
23522W        W36936   3.821  11.101  11.857 -0.0643 -0.0337  0.0755
23523W        W36937   4.319  15.449  13.932  0.1759 -0.2705  0.1781
23524W        W36938  11.940  12.411  13.700 -0.0132 -0.2113  0.0075
23525W        W36939  14.846  15.808   5.421  0.4116 -0.0119 -0.0441
23526W        W36940   1.096  16.738  11.990  0.1133  0.1105  0.0472
23527W        W36941  15.065   9.251  12.356  0.1183  0.4455 -0.0812
23528W        W36942   2.030  16.786   5.840 -0.0001  0.1897  0.0510
23529W        W36943   2.463  17.254  13.874 -0.1097 -0.0697  0.2414
23530W        W36944   4.389   1.837   3.955  0.1703  0.0315  0.0697
23531W        W36945   1.443  12.208  14.539  0.0581  0.0022  0.3258
23532W        W36946   2.383   3.990   3.324  0.2039  0.2787  0.4027
23533W        W36947   0.244  14.300  14.176 -0.0703 -0.1506 -0.2086
23534W        W36948  15.475  13.235  10.509  0.2812 -0.2948 -0.1718
23535W        W36949  11.701  16.750  11.265 -0.3096 -0.0848 -0.1581
23536W        W36950   8.132   4.261   5.614  0.0198  0.1353  0.0546
23537W        W36951   6.590   5.135   1.907 -0.1995  0.0681  0.1309
23538W        W36952  17.861   5.222  11.239  0.1226  0.0532  0.0872
23539W        W36953   7.320   3.547  14.665  0.2900 -0.0610  0.0602
23540W        W36954   4.736  11.841   0.688 -0.0484 -0.0617  0.2162
23541W        W36955  15.750  11.179  13.341 -0.1870 -0.0557 -0.0425
23542W        W36956   6.915   5.148  12.023  0.0934 -0.1951  0.4207
23543W        W36957   5.965   3.966  13.797  0.0525 -0.0868 -0.3281
23544W        W36958   9.673  14.190  15.261  0.3010 -0.1524 -0.1860
23545W        W36959   8.655   3.354  13.191 -0.0287 -0.1414  0.2291
23546W        W36960   3.667  12.139  15.290  0.0875 -0.1417 -0.1003
23547W        W36961  12.336  13.890  15.848  0.2522  0.4254  0.2785
23548W        W36962   7.025   2.550   0.840  0.2396  0.1714  0.2198
23549W        W36963   9.258  12.797  10.817  0.3067  0.3533  0.2334
23550W        W36964   9.069   9.793   2.497  0.2845 -0.1399 -0.1618
23551W        W36965  16.559  18.168   0.901  0.0613  0.1402 -0.1272
23552W        W36966   0.104   2.092   2.828  0.1989 -0.0410 -0.3416
23553W        W36967   0.102  16.159   4.630  0.3415 -0.0561 -0.0165
23554W        W36968   2.075  15.259   1.753 -0.0324 -0.2129 -0.2563
23555W        W36969   1.992   0.279   0.033  0.1372  0.0714 -0.0700
23556W        W36970   1.257   0.754   3.050  0.0895  0.0174  0.1327
23557W        W36971  16.539   4.419   5.765 -0.1651 -0.0265  0.1191
23558W        W36972   1.613  13.437   0.472  0.3534 -0.1971 -0.2247
23559W        W36973   7.271  10.820  15.610 -0.1707  0.0091  0.0316
23560W        W36974  17.830  14.031   2.626 -0.1934  0.3046  0.2921
23561W        W36975   7.609  11.995   3.437 -0.2842  0.1156  0.1371
23562W        W36976  13.284   9.806   4.906 -0.3027 -0.2732 -0.0550
23563W        W36977  13.264   6.108   1.392  0.1644 -0.1214  0.1954
23564W        W36978  13.412   3.775   5.355  0.1154 -0.1528  0.1309
23565W        W36979   5.425   0.866  10.772 -0.0027 -0.2547  0.0296
23566W        W36980  15.140   7.889  14.391 -0.1450 -0.0165  0.0214
23567W        W36981   2.218   9.108  14.352  0.1332  0.4720  0.0967
23568W        W36982   4.663  14.681  12.610 -0.3149 -0.3303  0.0290
23569W        W36983  17.782  10.222   3.419  0.0484  0.1187  0.1105
23570W        W36984  15.205   5.104  13.830  0.3489  0.1147  0.0825
23571W        W36985  16.516  12.207   5.320 -0.2944  0.1554 -0.2491
23572W        W36986  11.448   6.797  15.048 -0.0187 -0.0711 -0.1050
23573W        W36987   6.316   1.760  15.737 -0.0481 -0.1883  0.3712
23574W        W36988   7.088  11.713  15.627 -0.0183 -0.1275  0.2741
23575W        W36989  15.340   9.400   2.755 -0.0354  0.0470 -0.0672
23576W        W36990  14.968  12.849   4.694  0.1533  0.0693 -0.1317
23577W        W36991  12.918   7.085   3.308  0.1529 -0.0347  0.1820
23578W        W36992  16.286   9.433   1.828 -0.1796 -0.0537  0.0297
23579W        W36993  10.799   2.053   4.297 -0.1591  0.1788 -0.1807
23580W        W36994  11.125  13.894   1.027 -0.5478 -0.1521 -0.0531
23581W        W36995  13.832  10.122   3.541 -0.2250  0.0140 -0.2194
23582W        W36996   9.611  11.183   0.361 -0.2036  0.1636  0.1379
23583W        W36997  16.022   9.126   1.060  0.0716  0.0107  0.1803
23584W        W36998   0.513   0.826   5.311  0.0744 -0.2066 -0.2612
23585W        W36999   7.278  16.282   4.862 -0.1020  0.0058 -0.0653
23586W        W37000   8.453   5.191   6.062 -0.3665 -0.4380  0.2002
23587W        W37001  14.196  17.670  11.455  0.1977  0.0479 -0.2807
23588W        W37002  14.840   1.000  15.399  0.1640  0.0534 -0.1715
23589W        W37003  15.725  15.184  15.677  0.2500  0.1860  0.0106
23590W        W37004  12.909  10.552  12.581 -0.0499 -0.2865  0.1979
23591W        W37005   8.356   3.732  13.780  0.1665  0.0296  0.0646
23592W        W37006   7.635   3.723   1.528  0.1604 -0.1418  0.0328
23593W        W37007   0.950  10.648   2.937 -0.0700 -0.0716 -0.0747
23594W        W37008  17.368   2.962  16.224 -0.0236 -0.1748  0.0099
23595W        W37009   9.343  16.440  10.988  0.1026 -0.0700 -0.1514
23596W        W37010   4.775  12.711   1.019  0.2783  0.2010 -0.0027
23597W        W37011  16.463  13.679  14.772 -0.1710 -0.1954 -0.1121
23598W        W37012   0.113   6.863   6.320  0.1951  0.0781 -0.1230
23599W        W37013   1.051   8.509  16.448  0.1693  0.1932  0.0021
23600W        W37014   1.512   5.311   1.496  0.1807 -0.2156 -0.1389
23601W        W37015   1.069  17.181   6.686  0.0536  0.1124  0.3912
23602W        W37016   1.793   0.842  13.498  0.1191  0.0600  0.0299
23603W        W37017   9.215   2.471   3.884 -0.0382 -0.1163 -0.1483
23604W        W37018  15.503  16.481  11.564 -0.3607 -0.0943  0.1769
23605W        W37019  13.970   9.069  14.264 -0.0056 -0.2034  0.1674
23606W        W37020  14.836   1.569   2.562 -0.2704  0.1986 -0.2081
23607W        W37021   7.138   6.707  13.002  0.1809  0.2658  0.0657
23608W        W37022  13.369  15.444  12.875  0.1019 -0.1352 -0.1771
23609W        W37023   3.888   2.798  12.252 -0.3953 -0.0599  0.2670
23610W        W37024  11.369   0.099   4.584 -0.2315  0.1734 -0.1964
23611W        W37025   3.933   4.405  11.769 -0.0526  0.0264 -0.2461
23612W        W37026   2.081  14.588   0.841 -0.0121 -0.2258  0.0703
23613W        W37027   3.121   5.335  11.669 -0.0938 -0.0844  0.1222
23614W        W37028   1.243  13.412   2.172  0.3461 -0.2042 -0.0970
23615W        W37029  15.933   3.861   5.783  0.4745  0.1134 -0.1149
23616W        W37030  15.054  17.700   4.573 -0.0590 -0.0221  0.1256
23617W        W37031  17.366  13.568   4.963  0.0740  0.1585  0.0335
23618W        W37032   9.071  11.283  14.597  0.0962  0.0331 -0.2325
23619W        W37033  13.995   6.912   5.186 -0.0377 -0.3683 -0.0231
23620W        W37034  12.800  17.025  13.457 -0.0265  0.1933 -0.3287
23621W        W37035  14.505  14.707   3.743 -0.0375  0.1810 -0.3517
23622W        W37036   3.228  10.423   0.728  0.0259  0.1561 -0.1018
23623W        W37037   4.745  13.404   3.194  0.2778  0.2049  0.0955
23624W        W37038  17.593   0.372   3.046 -0.0358  0.0367 -0.1052
23625W        W37039  14.238   1.611   2.809  0.1627  0.1730 -0.2059
23626W        W37040   1.070   8.503  15.971  0.0686  0.1513 -0.1898
23627W        W37041   2.903   3.284   5.832  0.3721  0.1532 -0.1335
23628W        W37042   9.812  17.801   2.994  0.2159 -0.2934 -0.3443
23629W        W37043  15.811   7.797   0.525 -0.0569 -0.1641  0.1098
23630W        W37044   9.705   3.388  10.759 -0.0670 -0.1147 -0.0928
23631W        W37045  15.298  12.031  14.004 -0.0392 -0.2852 -0.2640
23632W        W37046  18.224  12.547  12.442  0.0424  0.2109 -0.1793
23633W        W37047  17.261  10.732  16.334 -0.0298  0.1115 -0.2823
23634W        W37048   8.274   6.036  15.559 -0.0831  0.2418  0.1174
23635W        W37049   0.078   0.049   1.124  0.2924  0.0902 -0.1648
23636W        W37050   7.694   2.294  14.182 -0.0181  0.2024 -0.0194
23637W        W37051  11.841  13.105  11.255  0.2538 -0.0844  0.1479
23638W        W37052  13.579   1.242  13.203  0.0397  0.1576  0.0467
23639W        W37053  15.785  11.254  13.855  0.1210 -0.2102 -0.2900
23640W        W37054   0.810   3.094  11.545  0.0279 -0.2159  0.3282
23641W        W37055  15.411  14.814  13.523 -0.0875  0.1963 -0.1485
23642W        W37056   2.531   2.588   3.557 -0.4204 -0.0115  0.3628
23643W        W37057  14.476  17.462  11.077  0.0572  0.0694 -0.0249
23644W        W37058  11.058   8.378  14.098 -0.1301  0.0308  0.0810
23645W        W37059   9.547  16.847  12.836 -0.2034  0.1236 -0.0079
23646W        W37060   8.681  12.828   5.115 -0.0784 -0.0296 -0.0011
23647W        W37061  13.716   1.530  16.460  0.0984  0.2218 -0.0821
23648W        W37062   5.140   4.147  14.799 -0.2347 -0.1273  0.3256
23649W        W37063   6.323  17.811   3.149  0.2237 -0.0327 -0.0385
23650W        W37064   0.302  17.041  12.445 -0.1677  0.0287  0.0266
23651W        W37065  14.825   2.491   2.896 -0.1605  0.0880 -0.3540
23652W        W37066  18.112   3.757  11.341  0.2644 -0.1668 -0.0039
23653W        W37067   1.802   7.587   1.765 -0.0579  0.0874  0.2136
23654W        W37068   1.379  15.615  13.430  0.0396  0.3146  0.2529
23655W        W37069  16.493   8.117  13.552 -0.1770  0.0242  0.2235
23656W        W37070   5.165   6.464  16.234 -0.2650 -0.0754 -0.1968
23657W        W37071   7.914   7.842   3.304  0.1648  0.2265 -0.0609
23658W        W37072   9.894   2.365   3.525 -0.0131  0.0715 -0.3599
23659W        W37073   6.572  13.311   2.526 -0.2470 -0.1513 -0.0466
23660W        W37074  16.840   4.863   2.416 -0.0633 -0.0724 -0.0461
23661W        W37075   3.028   7.215  10.766 -0.2926 -0.1118 -0.0606
23662W        W37076  13.259   2.211  12.154 -0.1579  0.2165  0.0737
23663W        W37077   3.006  15.474  14.375  0.4795 -0.0652 -0.1270
23664W        W37078   6.703   6.399  13.066  0.3510  0.1530 -0.1416
23665W        W37079   5.482   6.045   1.481  0.1882 -0.0524  0.0721
23666W        W37080  15.998  17.842   3.105  0.1510  0.1308 -0.1210
23667W        W37081  15.208  14.260   2.139 -0.2073  0.0012  0.1490
23668W        W37082   8.903  16.463   3.751  0.1183 -0.0344 -0.3149
23669W        W37083  14.117   2.890  10.506  0.1359  0.0646  0.0423
23670W        W37084  15.323  17.706   2.570 -0.1785  0.2697  0.1084
23671W        W37085  16.958   7.508   3.065  0.1011  0.0867 -0.5232
23672W        W37086  16.037  17.096  11.890 -0.0152  0.1217  0.1850
23673W        W37087   8.183   8.796   1.151  0.1997  0.1982 -0.2847
23674W        W37088  13.486  11.567  13.206  0.2386 -0.1676 -0.0022
23675W        W37089  17.801   4.760  15.176  0.0291 -0.0185  0.0699
23676W        W37090  11.609  13.552  13.571 -0.0607 -0.2085  0.5043
23677W        W37091   2.781  11.260   4.994 -0.1722 -0.1113  0.0885
23678W        W37092   7.673  10.649   2.146  0.1624 -0.2792 -0.0486
23679W        W37093   7.596   2.999  15.842  0.0926  0.1305  0.2145
23680W        W37094   3.352   6.727   6.149  0.0033 -0.1310 -0.0706
23681W        W37095  17.675  17.168  16.378  0.0271  0.0064 -0.2691
23682W        W37096   8.277  15.386  12.291 -0.1738 -0.2581 -0.0865
23683W        W37097  12.482   9.702  10.709 -0.1863  0.0381 -0.0190
23684W        W37098   8.280   2.617   2.735  0.1671  0.1973  0.4124
23685W        W37099   4.746  11.219  12.750 -0.1534  0.0468 -0.0980
23686W        W37100  14.294   4.945  12.574  0.2461 -0.0783 -0.1407
23687W        W37101   1.784  14.728  12.607  0.0158  0.1930 -0.2889
23688W        W37102  16.280  16.897  13.064  0.3377 -0.1678 -0.3709
23689W        W37103   3.552  16.176  12.836  0.0196 -0.2221  0.1443
23690W        W37104   4.444  16.117  12.786  0.1482  0.2491  0.3778
23691W        W37105  16.036   3.795  15.062 -0.1273  0.1894 -0.0855
23692W        W37106   9.245  16.742   4.076  0.0465 -0.0663 -0.2751
23693W        W37107   5.418  13.766  13.902 -0.4208  0.1500 -0.2117
23694W        W37108   3.389  12.055   1.866  0.2032  0.4372  0.2153
23695W        W37109  12.161  11.879  13.277 -0.1875 -0.0237  0.0922
23696W        W37110  11.258  13.834   3.528 -0.1135 -0.1113  0.0511
23697W        W37111  12.758  16.371  11.216 -0.2700 -0.1890  0.1524
23698W        W37112  17.585   5.149   1.092 -0.1064 -0.3507  0.0334
23699W        W37113  12.178  16.646  13.073 -0.3274  0.1890 -0.1003
23700W        W37114   5.399  14.870   5.822 -0.1209 -0.2686 -0.2172
23701W        W37115   5.132   9.712  12.473 -0.0209  0.0664  0.1471
23702W        W37116   5.963   0.040  10.834 -0.0509 -0.4474  0.1739
23703W        W37117   1.815   6.812   5.788  0.0536  0.1339 -0.1271
23704W        W37118  10.657  17.834   2.248  0.1830  0.2351  0.0134
23705W        W37119   0.961  12.017   5.672 -0.0371 -0.1626 -0.0609
23706W        W37120   0.908  17.490   3.016  0.1747 -0.0571  0.0676
23707W        W37121  16.160   7.020  11.115  0.2923 -0.0889  0.0106
23708W        W37122   7.980  17.922  14.019 -0.0900 -0.2955  0.2187
23709W        W37123  15.833  12.973  16.211  0.1566  0.1498 -0.5529
23710W        W37124  12.330   4.203   4.678  0.1951 -0.0130 -0.2403
23711W        W37125  11.799  10.249   1.765  0.0529  0.1901 -0.1382
23712W        W37126   8.703   6.064   5.176 -0.1186  0.0082 -0.0718
23713W        W37127   6.420  16.787  10.403  0.3547 -0.1574 -0.2912
23714W        W37128   6.679  12.038   4.072  0.0991  0.0594 -0.0886
23715W        W37129   4.690  10.588  14.432  0.1563 -0.2489  0.1676
23716W        W37130  15.891  16.008  13.872 -0.1514 -0.0098 -0.2903
23717W        W37131  17.831   8.849   4.249  0.1898 -0.0072 -0.0135
23718W        W37132   7.981   8.903   5.332 -0.2324 -0.1886 -0.5523
23719W        W37133  10.829  16.964   1.019 -0.0624 -0.0875 -0.0404
23720W        W37134  17.175   9.683   2.819 -0.1305 -0.1061  0.2308
23721W        W37135  16.213   8.167  10.641 -0.1164 -0.0065  0.0171
23722W        W37136   6.634  13.079  16.325  0.2886 -0.0435 -0.2696
23723W        W37137   9.410  14.293  12.434  0.2882 -0.1552  0.0179
23724W        W37138   9.246   5.595   4.518  0.2247  0.0576 -0.1728
23725W        W37139  11.822  10.615   5.544 -0.1799 -0.0195 -0.2711
23726W        W37140   1.577   3.349   6.196 -0.2380 -0.1322  0.0113
23727W        W37141  17.733   5.611  13.907  0.2277 -0.0038  0.1808
23728W        W37142   2.213  11.442  13.338  0.2797 -0.0854  0.1736
23729W        W37143   4.500   5.313   4.022  0.0996 -0.0131  0.3609
23730W        W37144  11.208   8.825  13.336 -0.0811  0.1650  0.2760
23731W        W37145   0.516   6.032  14.448  0.0308 -0.1840  0.0856
23732W        W37146  15.451  11.019  12.944 -0.0561 -0.0159 -0.1587
23733W        W37147   4.818   1.969  12.899 -0.3751 -0.1502 -0.0489
23734W        W37148  12.334  13.393   1.510 -0.1875 -0.0130  0.2437
23735W        W37149  11.494   1.103  16.238 -0.0729  0.0727  0.2962
23736W        W37150  18.125  17.340   4.655  0.2012  0.1257  0.1866
23737W        W37151  14.589  15.057   1.178  0.2104  0.0319 -0.0225
23738W        W37152   9.902  16.948   0.529 -0.0513  0.1484 -0.1561
23739W        W37153   2.068   2.317   0.129  0.2625 -0.2110  0.1830
23740W        W37154   1.504   0.808  12.511  0.0900  0.2589  0.2916
23741W        W37155   3.820   9.912   0.961 -0.0349  0.3484  0.0169
23742W        W37156   6.385   7.641   0.922 -0.0472  0.4829  0.2950
23743W        W37157   3.675  15.579   5.849  0.0714 -0.0187 -0.2454
23744W        W37158  12.195  14.252   2.062  0.0346 -0.2292 -0.0505
23745W        W37159   2.778   8.512   3.334 -0.0548  0.2298  0.2532
23746W        W37160   9.501  15.168   2.371 -0.0505 -0.2157  0.3032
23747W        W37161   4.754   6.724  10.835  0.2927 -0.0344 -0.0990
23748W        W37162   0.300   5.224   3.287 -0.1674  0.3306 -0.0023
23749W        W37163   4.767   2.853  14.767  0.0892  0.2432 -0.2406
23750W        W37164   3.046   0.872   0.723  0.3277 -0.0810  0.0471
23751W        W37165   6.145  11.631  13.980  0.3177 -0.0081 -0.4117
23752W        W37166   3.186   8.860  14.918  0.1331  0.1353 -0.0951
23753W        W37167  11.316   5.149   1.159 -0.0428 -0.0433 -0.1804
23754W        W37168   0.027   2.523   5.619  0.0370 -0.0043  0.0136
23755W        W37169   0.579   9.664   1.294 -0.2544  0.2188 -0.1802
23756W        W37170  10.013   0.802  10.513 -0.0148  0.1327  0.1126
23757W        W37171  12.659  11.250   2.289  0.0099 -0.1524 -0.1166
23758W        W37172   0.276  17.816  10.858  0.2050  0.1323 -0.2868
23759W        W37173  13.558   3.844   2.428 -0.2102 -0.1748 -0.2051
23760W        W37174   5.079  17.859  14.488  0.3398 -0.1105  0.2265
23761W        W37175   9.139   4.102  15.708 -0.0311  0.1372  0.1879
23762W        W37176  13.793   1.766   1.205  0.1869  0.0749  0.1079
23763W        W37177   8.706   7.969  13.182  0.4438  0.0393  0.1403
23764W        W37178   0.018  17.600   0.360 -0.1259  0.0328 -0.1033
23765W        W37179   9.879  11.903  15.585  0.0812 -0.2662  0.1645
23766W        W37180  10.590  17.256  15.307  0.1685 -0.0509 -0.1315
23767W        W37181   5.793   2.160   2.068 -0.1706  0.1925 -0.0064
23768W        W37182  17.979  12.485  15.231  0.1546  0.2345 -0.2247
23769W        W37183  17.657   2.573  14.314  0.4391  0.0987 -0.0673
23770W        W37184  11.130  11.531   1.491  0.0201 -0.0526 -0.1436
23771W        W37185  13.794   9.645   5.061  0.0214  0.0270 -0.0594
23772W        W37186  17.898   2.545  10.932 -0.3728 -0.1841  0.0075
23773W        W37187  12.636   0.434  12.514  0.1582  0.0488  0.0815
23774W        W37188   9.908   4.986  12.253 -0.2095 -0.3054  0.2361
23775W        W37189   2.458   0.887   3.226  0.0795  0.1639 -0.0176
23776W        W37190  16.299  14.198  11.637 -0.2167  0.0037 -0.1851
23777W        W37191  14.098   4.953  13.796  0.2200  0.0490 -0.0529
23778W        W37192  11.393   1.740   0.235  0.1678  0.4483  0.4394
23779W        W37193   4.482  15.127  13.083 -0.1495 -0.2332  0.0376
23780W        W37194   8.731   3.558   5.517 -0.4114 -0.0491 -0.1667
23781W        W37195  16.527  11.691  11.373 -0.0304 -0.3091  0.3137
23782W        W37196   9.572  13.400  11.212  0.1058  0.1386 -0.0463
23783W        W37197  11.060   6.872   1.249  0.0037 -0.2128  0.0066
23784W        W37198   8.322   4.209  15.434  0.1215 -0.1883 -0.0871
23785W        W37199  17.684   5.225   0.033  0.2252 -0.0197  0.0393
23786W        W37200  12.082  13.700  13.757  0.2769 -0.0525 -0.1058
23787W        W37201   0.051  13.392  16.197 -0.1472  0.0428  0.1773
23788W        W37202   0.239   0.585  15.273  0.1549 -0.1003  0.0218
23789W        W37203   2.477  17.742  14.870  0.0403  0.0830 -0.1049
23790W        W37204   0.380  10.532  15.800 -0.0691  0.1144  0.1091
23791W        W37205   9.170  13.135  12.015 -0.1500  0.1290  0.0790
23792W        W37206  13.106  11.401  13.425  0.1889 -0.1314 -0.3884
23793W        W37207   9.178  12.418   4.508 -0.4821  0.2867  0.1666
23794W        W37208   6.132   5.710  15.266  0.2277  0.0223 -0.2013
23795W        W37209   3.404   1.757  12.629 -0.1023 -0.2299 -0.2615
23796W        W37210  15.838   9.349   2.080  0.0604 -0.1698 -0.1065
23797W        W37211  14.969  17.837   5.011 -0.1185  0.0563  0.2578
23798W        W37212   7.807   6.587   5.220  0.0040  0.1284 -0.1729
23799W        W37213  13.398   9.705  15.148 -0.1826  0.1337 -0.1394
23800W        W37214   7.321   7.463   1.186 -0.1783  0.3499  0.2955
23801W        W37215  13.695  18.025  13.927  0.0775  0.0165 -0.0617
23802W        W37216  15.265  13.083  13.047  0.0236 -0.1606 -0.0054
23803W        W37217   5.588   4.384  10.259 -0.1409  0.2064  0.1069
23804W        W37218   0.810  13.173  12.792 -0.1831  0.0394  0.1021
23805W        W37219   5.787   9.330  16.306 -0.0220  0.1746  0.1959
23806W        W37220   6.256   1.813   3.338 -0.0095  0.1270 -0.0462
23807W        W37221   0.994  12.196  13.629 -0.0143  0.1223 -0.2085
23808W        W37222   0.070  16.812  13.258 -0.0476  0.1456  0.0317
23809W        W37223   2.802  14.392   2.606  0.1571  0.1156 -0.0927
23810W        W37224   7.885  14.050   4.248 -0.1279 -0.3088  0.0110
23811W        W37225  15.233   4.581  11.903  0.0685 -0.1125 -0.1554
23812W        W37226   9.915   8.536   1.251  0.0203  0.1967  0.0364
23813W        W37227  14.080   0.415   4.803 -0.0667  0.3951  0.1221
23814W        W37228   6.675  11.601   6.894 -0.0858 -0.0058  0.1292
23815W        W37229  10.975  13.882   1.567  0.1451  0.1653 -0.1139
23816W        W37230  14.378   5.687   0.250 -0.1621  0.0460 -0.0688
23817W        W37231   6.579  15.505  10.578  0.1003 -0.1767 -0.3097
23818W        W37232   7.698   8.741  11.058 -0.0451 -0.0805 -0.2010
23819W        W37233  11.343  14.323  10.594 -0.0552 -0.1395  0.3897
23820W        W37234   1.456  18.055   5.708 -0.0202  0.1669  0.3701
23821W        W37235   0.082  12.792   6.486  0.4762  0.0624  0.2683
23822W        W37236  14.833   0.989   5.661  0.4449 -0.0410 -0.0219
23823W        W37237  10.834  12.746  15.551  0.2566 -0.1080  0.1270
23824W        W37238   5.675   6.245  16.200 -0.0664  0.3032 -0.0728
23825W        W37239  16.814   6.898  12.891  0.0160  0.1181  0.3645
23826W        W37240   8.123   7.479  15.882  0.1671  0.0134 -0.0587
23827W        W37241  11.074  11.708  12.419  0.0009 -0.0904  0.0136
23828W        W37242  10.733  18.014   3.082 -0.0330  0.3185  0.0823
23829W        W37243   5.691  10.250   0.703  0.1355  0.1291 -0.2984
23830W        W37244   6.796   1.655   1.224  0.1373 -0.0038 -0.0489
23831W        W37245   5.446  10.444  14.948 -0.0107  0.2809  0.0036
23832W        W37246  17.999   7.633   0.809  0.0149 -0.1002 -0.0720
23833W        W37247   2.462  11.232  12.088 -0.0372  0.0569 -0.0055
23834W        W37248   0.108  17.690   4.338  0.0688  0.0861 -0.0743
23835W        W37249   5.468   1.793   0.080  0.0597 -0.3243  0.3659
23836W        W37250   3.025  18.034   5.732  0.0706 -0.1941  0.1614
23837W        W37251   5.215  16.796   0.092 -0.0595  0.1948  0.1785
23838W        W37252  15.954  10.449  12.584  0.1148  0.0169  0.1952
23839W        W37253   7.858   2.019  14.752 -0.0390 -0.0307 -0.1617
23840W        W37254   3.394   5.012  14.508 -0.4358  0.0969  0.4296
23841W        W37255   5.140  11.938  10.850 -0.3086  0.0571  0.0843
23842W        W37256   8.325   4.262  14.702 -0.3193  0.2759  0.1722
23843W        W37257  13.546  10.250   5.535 -0.2284  0.0359  0.0882
23844W        W37258  10.501   1.166  12.392 -0.0568  0.1292 -0.1470
23845W        W37259   0.702   1.936   3.113  0.0027  0.1207  0.3641
23846W        W37260  17.480   9.837   3.350  0.2359 -0.1466  0.1175
23847W        W37261   8.485   3.853  13.256  0.2047  0.0048 -0.3188
23848W        W37262  10.044  13.103  12.121 -0.1128 -0.0461 -0.2968
23849W        W37263  10.282   6.216   6.028 -0.1001  0.0030 -0.1593
23850W        W37264   1.825  12.260  12.402  0.0022  0.2096  0.0571
23851W        W37265  18.129  15.121  15.793  0.3224  0.0521 -0.0142
23852W        W37266  15.308  11.945  14.526  0.2250 -0.3074  0.1161
23853W        W37267   2.478  16.910  14.262  0.1371 -0.1157 -0.1067
23854W        W37268   9.660   6.243   4.302 -0.2468 -0.1844  0.1299
23855W        W37269  12.495  17.021  14.049 -0.0037 -0.2120 -0.3578
23856W        W37270   6.338   2.559   2.435 -0.1767  0.0391 -0.1089
23857W        W37271  14.102   9.256   6.336 -0.3561  0.2522  0.0253
23858W        W37272   3.725   8.168   0.566  0.0332 -0.1378 -0.2547
23859W        W37273  17.167   5.271   2.876 -0.2424 -0.2605  0.2491
23860W        W37274  17.355   7.118   0.279 -0.3060  0.1170 -0.2078
23861W        W37275   8.798   0.433  13.235  0.0267 -0.1070  0.2591
23862W        W37276   0.023  17.160   3.525  0.0605 -0.0840 -0.2322
23863W        W37277   7.858  13.217  11.772  0.4244 -0.0678  0.2753
23864W        W37278  10.911  12.463   2.711  0.1058 -0.0454 -0.1788
23865W        W37279  17.941   4.706   0.235  0.2279  0.0325  0.1620
23866W        W37280  12.415   9.569   2.884 -0.1004  0.1608 -0.0322
23867W        W37281  10.501   3.409  11.956 -0.1433  0.2104  0.0126
23868W        W37282  12.481   3.862   1.758  0.1060  0.3072  0.0407
23869W        W37283   2.730  14.357   4.955 -0.1835 -0.1086  0.3521
23870W        W37284   4.111   1.833  15.758 -0.0963 -0.0350  0.0960
23871W        W37285   5.936   2.613  15.550 -0.0570 -0.0963  0.0151
23872W        W37286  10.488  15.154  13.464 -0.1169 -0.2566  0.0056
23873W        W37287  16.426   9.000  11.694  0.1630 -0.0926 -0.0206
23874W        W37288   7.948  10.275   1.771 -0.1434 -0.1335  0.1834
23875W        W37289  15.047   3.679   5.010  0.2430  0.1230 -0.0757
23876W        W37290  17.648  12.379   4.067 -0.1278  0.1684 -0.1213
23877W        W37291  16.175   0.062   1.748 -0.1007 -0.0483 -0.0669
23878W        W37292   6.512   9.432  15.013  0.1894  0.0753 -0.0647
23879W        W37293   5.936   5.743  11.565  0.2468  0.1941  0.0962
23880W        W37294  10.200   1.235  11.482 -0.0521 -0.0370 -0.0244
23881W        W37295   8.218   6.891  12.386  0.1141  0.0122  0.1991
23882W        W37296   4.166   4.763  14.918  0.3479  0.0938  0.0337
23883W        W37297  15.094   6.531   3.899  0.1176 -0.0992 -0.2164
23884W        W37298  12.468   0.247  11.004 -0.3002 -0.0533  0.0927
23885W        W37299  16.586  15.594  16.371 -0.4215 -0.2052 -0.1497
23886W        W37300   5.358  12.489  15.719 -0.0385 -0.0786 -0.1739
23887W        W37301  12.354   6.203   4.854 -0.1883  0.3993 -0.3450
23888W        W37302   9.248   7.621   2.267 -0.1307 -0.0041  0.0917
23889W        W37303   6.247  12.353   6.100  0.2024  0.1549 -0.0312
23890W        W37304   6.359   1.623   2.677 -0.2163  0.1214 -0.1333
23891W        W37305   6.647  14.973  15.121 -0.0225 -0.1733 -0.0097
23892W        W37306  14.533   5.470   2.617  0.0506  0.1079 -0.0394
23893W        W37307  16.595  16.026   4.595 -0.0873 -0.1008  0.2105
23894W        W37308   3.874   7.076  12.302 -0.0814  0.0785 -0.0772
23895W        W37309   0.116  12.783   5.320  0.0300  0.2980 -0.1398
23896W        W37310  14.498   0.034   0.829 -0.2773 -0.0765  0.1119
23897W        W37311   2.432  15.962   2.829  0.2344  0.1382 -0.2717
23898W        W37312   1.548   1.362  13.450  0.2115 -0.1596 -0.1971
23899W        W37313  17.796  10.334  15.441 -0.1571 -0.1050  0.3616
23900W        W37314   0.979  15.905  13.246  0.0837 -0.0399 -0.1419
23901W        W37315   6.013   9.408   4.738 -0.1594 -0.3944  0.0715
23902W        W37316   2.397  16.443  13.321 -0.1242  0.3112  0.2140
23903W        W37317   3.001  13.904   5.712 -0.2066  0.2495  0.4029
23904W        W37318  13.923  11.108  11.944  0.1959  0.1880 -0.2464
23905W        W37319  13.917  17.059   3.471 -0.0043 -0.1647  0.2248
23906W        W37320   3.989   8.581   0.725  0.2446  0.0106 -0.3583
23907W        W37321   7.334   6.405   2.339  0.2729 -0.1772  0.0304
23908W        W37322  13.216  12.795   0.313 -0.1651  0.1080  0.0639
23909W        W37323  17.998  11.948   4.630  0.0118 -0.1219 -0.0109
23910W        W37324  13.982  16.386  15.982  0.2147 -0.4020 -0.2996
23911W        W37325   5.169   0.250  11.532 -0.0035 -0.0910 -0.0869
23912W        W37326   3.824  14.362   3.754  0.0065  0.0665  0.1379
23913W        W37327  11.778   9.461   2.626  0.0064 -0.3294  0.1427
23914W        W37328  17.401   7.168   6.233 -0.0423 -0.1441 -0.0326
23915W        W37329   9.830  12.145   0.080  0.0925  0.1525 -0.3264
23916W        W37330   6.851   6.553   3.681 -0.3376 -0.0271  0.0769
23917W        W37331   0.342   0.166  16.359  0.1014 -0.3411  0.2317
23918W        W37332   0.752  13.813  12.326 -0.0721  0.1452  0.2953
23919W        W37333   0.264  10.829  12.868 -0.3193 -0.2425 -0.0831
23920W        W37334  11.172   8.445  12.919  0.2147 -0.0841  0.3896
23921W        W37335   5.112  13.375  15.610 -0.0944  0.0710  0.0534
23922W        W37336   9.005   7.139   3.916 -0.0514 -0.0893 -0.1696
23923W        W37337  16.212  10.967   4.121  0.0042  0.0024  0.2021
23924W        W37338   3.633   7.671   1.483 -0.0425  0.2443  0.2569
23925W        W37339  12.059  12.147   2.794 -0.0520 -0.1285 -0.1082
23926W        W37340  14.922   2.419  16.361 -0.0157  0.2866 -0.1035
23927W        W37341  16.127   6.819   5.559  0.2793 -0.1459  0.0538
23928W        W37342  13.925   2.873   5.203  0.1684  0.0228 -0.0311
23929W        W37343   6.670  12.371   6.372 -0.0466  0.0360  0.1124
23930W        W37344   9.290  13.646  10.858 -0.0607  0.1955 -0.1114
23931W        W37345   8.417   5.412  11.108 -0.0810 -0.0349  0.3543
23932W        W37346  13.444  17.836   1.770  0.0480  0.0825 -0.2002
23933W        W37347   8.499   2.580   4.723  0.3589  0.0051 -0.2173
23934W        W37348  10.859   0.848   5.951  0.1211  0.1150  0.0359
23935W        W37349   3.258   4.712  16.082  0.2628 -0.0856 -0.2050
23936W        W37350  11.250   5.880   5.352 -0.0917  0.1167 -0.0080
23937W        W37351   3.525  11.611  15.319  0.0903 -0.0747 -0.0631
23938W        W37352  14.850   4.545  13.224  0.0521  0.2119  0.0117
23939W        W37353  14.848   6.871  13.706  0.2176 -0.1410  0.1206
23940W        W37354  12.307  12.780  11.228  0.0425 -0.0479  0.3132
23941W        W37355  18.190  11.617  14.507 -0.1494  0.2926  0.0748
23942W        W37356   4.234  10.000   4.614 -0.0436  0.1875  0.3330
23943W        W37357   6.810  12.358   3.307  0.0374  0.3734  0.1892
23944W        W37358  14.031  10.898   5.475 -0.1676  0.0280  0.0683
23945W        W37359  17.514  11.819   4.406  0.1748 -0.1865 -0.2015
23946W        W37360  14.963  14.377  16.106 -0.0057 -0.1987  0.0202
23947W        W37361   3.253   0.120   3.384 -0.1267 -0.0267  0.0458
23948W        W37362   3.904  14.444   2.854 -0.0373  0.1889  0.1434
23949W        W37363  10.613  11.651  12.113 -0.1152 -0.5531  0.0999
23950W        W37364   8.630   5.210   4.345 -0.1042  0.1306 -0.0839
23951W        W37365  16.866   2.685   4.718  0.1563 -0.1569 -0.2347
23952W        W37366   8.600   5.070  13.761 -0.2105  0.0089 -0.0641
23953W        W37367   5.926   9.051   6.327 -0.2366 -0.0508  0.2870
23954W        W37368  14.007  17.364   0.817  0.0097  0.1339  0.2427
23955W        W37369  14.510  17.688   5.065 -0.0528 -0.2670 -0.0194
23956W        W37370   7.912   4.739   3.132 -0.0668  0.1440 -0.1196
23957W        W37371   0.701  15.184  11.157 -0.0905 -0.1220 -0.2053
23958W        W37372   1.527  18.145   3.870 -0.0748  0.1543 -0.1492
23959W        W37373   9.417   9.824  16.197  0.0966 -0.1598 -0.1644
23960W        W37374   7.126   2.112  11.638  0.0564 -0.1083 -0.1379
23961W        W37375   3.614   0.415   4.255  0.1219 -0.3702  0.2935
23962W        W37376   5.065   9.456  15.260 -0.1027 -0.4497 -0.2440
23963W        W37377  16.047   8.162   0.011  0.1574  0.3023 -0.0818
23964W        W37378   5.623   8.180   1.741 -0.0627  0.0830  0.0091
23965W        W37379  12.666   2.965   0.221  0.2798  0.0142  0.1271
23966W        W37380   5.863   4.152   0.185  0.3260  0.1585 -0.2545
23967W        W37381   8.285  14.214   3.521 -0.0227  0.1092 -0.1404
23968W        W37382   3.368  10.433  10.738  0.0105  0.3196  0.0350
23969W        W37383  10.894  14.689  12.823 -0.2461 -0.0313  0.2578
23970W        W37384   9.917  16.019  12.584  0.1992 -0.3438  0.3143
23971W        W37385  13.561   9.233   2.633 -0.2826 -0.1623 -0.0271
23972W        W37386  14.359  13.772  11.848 -0.0419  0.0657 -0.2801
23973W        W37387   6.053   2.769  14.453  0.0236 -0.0323 -0.0630
23974W        W37388   9.430   8.956   5.156  0.0162 -0.4733  0.3231
23975W        W37389  13.486  15.993   3.918  0.1023  0.0786  0.0650
23976W        W37390  17.333  17.824  13.293  0.2187 -0.0118  0.2431
23977W        W37391   0.780   3.310   3.007 -0.1369  0.1308  0.2782
23978W        W37392  17.960  11.462  11.715  0.0576  0.1631  0.1466
23979W        W37393   1.467   0.671  14.929  0.4105  0.0461 -0.1551
23980W        W37394  18.041   7.056   3.587 -0.1167 -0.2183  0.0739
23981W        W37395   0.695   0.832  14.023 -0.0604 -0.1512  0.2986
23982W        W37396  17.460   5.784  16.400 -0.0314  0.0921 -0.2041
23983W        W37397   4.543   3.935  13.878  0.1174 -0.1640  0.4027
23984W        W37398   2.780   0.043   1.058  0.2436  0.2527 -0.0464
23985W        W37399  11.820  12.485   2.529 -0.2660 -0.0843  0.0748
23986W        W37400  10.963   0.280  13.951 -0.3234 -0.2549  0.4240
23987W        W37401   5.067   2.872   2.934  0.1310 -0.2517  0.1362
23988W        W37402   6.585   0.445  11.177  0.0616 -0.0079  0.0107
23989W        W37403  17.343   3.240  13.151  0.0304  0.1162 -0.1807
23990W        W37404   6.104  10.809   3.002  0.1033 -0.0494 -0.0597
23991W        W37405   2.709  13.721  13.647  0.1668  0.0660  0.2403
23992W        W37406   8.801   6.483   1.560  0.2677  0.0561  0.1064
23993W        W37407   7.718   7.777   3.771 -0.0258  0.0545  0.1250
23994W        W37408  13.936  16.105  13.263 -0.0809 -0.0429  0.1848
23995W        W37409  16.385  10.314  14.556 -0.1917 -0.0221 -0.0744
23996W        W37410  13.477   3.188   4.503  0.1528  0.1026 -0.1810
23997W        W37411   5.885   0.297   3.945  0.0389 -0.0276  0.2327
23998W        W37412  11.043   6.101   2.245  0.1138  0.1510 -0.0240
23999W        W37413   2.752  11.411   1.432  0.0439 -0.0492  0.2504
24000W        W37414   1.564   7.918   3.393 -0.2295  0.2282 -0.4875
24001W        W37415  13.475   4.128  10.634 -0.0003 -0.1607  0.2453
24002W        W37416  10.757  14.451   1.810 -0.1129  0.1719 -0.1488
24003W        W37417   8.626  13.821   3.543 -0.1483  0.2495 -0.0846
24004W        W37418   8.124   9.766   5.974  0.1801 -0.1518  0.1631
24005W        W37419   8.539   0.503  10.399  0.0171  0.1178 -0.1304
24006W        W37420   2.632   5.150  12.798 -0.1600  0.0166 -0.3224
24007W        W37421  13.363  14.591   5.012 -0.0771 -0.0272 -0.1467
24008W        W37422   7.358  13.334  11.530  0.0010 -0.0474  0.0646
24009W        W37423   8.635   0.214   0.687 -0.1121 -0.1212 -0.1757
24010W        W37424  16.898   7.786  10.937 -0.0570  0.0581 -0.2863
24011W        W37425   1.939  13.910  13.458 -0.0861  0.1911 -0.2598
24012W        W37426  14.161   6.106  16.349 -0.1595 -0.0024  0.0970
24013W        W37427   2.520  13.487  12.229  0.1116 -0.0666  0.1970
24014W        W37428   4.993   2.023   2.809 -0.0910 -0.2004  0.2255
24015W        W37429  11.099  16.605  14.216  0.1198  0.0256  0.2962
24016W        W37430  11.921   9.547  13.812 -0.0083  0.1746 -0.1807
24017W        W37431  13.573   3.397  14.285  0.2528  0.0791 -0.0318
24018W        W37432  11.535  11.061  15.467  0.3043  0.0488  0.0547
24019W        W37433  14.598  16.690  13.661 -0.1462  0.2266 -0.0095
24020W        W37434   2.014  11.547  15.578 -0.2487 -0.0472 -0.0949
24021W        W37435  12.550   1.144   0.479  0.2088 -0.2001 -0.0318
24022W        W37436  13.903  10.543   3.892  0.0968  0.2244  0.2629
24023W        W37437   0.301  15.254  14.646 -0.2361  0.1281  0.0099
24024W        W37438   4.986   2.428   2.494  0.0405 -0.2116 -0.0180
24025W        W37439  12.083  14.752   0.515 -0.2134  0.1653  0.1150
24026W        W37440  12.257   0.788  11.036 -0.1002  0.1646  0.0414
24027W        W37441   6.790  12.771  10.824 -0.0925 -0.1129  0.0872
24028W        W37442  14.797   6.971  12.260  0.2022  0.1036 -0.1824
24029W        W37443  12.336  15.580  15.538  0.0865  0.2197 -0.0292
24030W        W37444   4.349   0.059  11.002  0.0210  0.1939 -0.0510
24031W        W37445   2.766   1.728  15.455 -0.4160 -0.3024 -0.2586
24032W        W37446   9.274   7.482  14.878  0.0198  0.1048 -0.0568
24033W        W37447  18.089  12.326   3.782 -0.0801 -0.0236 -0.0701
24034W        W37448   3.599  13.015   5.210 -0.4878  0.1083 -0.1421
24035W        W37449   7.238   6.912  12.417 -0.4069 -0.2969  0.2546
24036W        W37450  16.184   7.941   5.490 -0.2572 -0.2814 -0.0775
24037W        W37451  15.602  16.330  14.205 -0.0932 -0.1221 -0.1214
24038W        W37452  14.174  15.808  14.154 -0.0095 -0.0942  0.1933
24039W        W37453   6.237  10.256   2.780 -0.1058 -0.1084 -0.1323
24040W        W37454  15.882   5.069  11.060  0.1043 -0.0876  0.2175
24041W        W37455   7.775  16.154   2.739  0.3827  0.1314  0.0427
24042W        W37456   8.253   2.766   9.635 -0.2262 -0.0852  0.0584
24043W        W37457   8.179  12.534   0.989  0.1766  0.0475  0.1734
24044W        W37458  17.644   2.854  12.922 -0.0661 -0.0541  0.0728
24045W        W37459  10.550   5.014  11.118 -0.0042 -0.0690  0.0914
24046W        W37460   0.086   9.721  16.141  0.1579  0.0701  0.1251
24047W        W37461   8.245   1.421  11.772 -0.0121  0.1650  0.0182
24048W        W37462   1.726   7.092   2.648  0.0628 -0.1743  0.2618
24049W        W37463   1.277  10.937   5.295  0.1358  0.5053 -0.0201
24050W        W37464   3.167  11.154   0.348 -0.3575 -0.1999 -0.0399
24051W        W37465  18.153   4.753  14.203 -0.2068  0.0212  0.0106
24052W        W37466  10.802  12.231  16.293  0.0068  0.3208 -0.2433
24053W        W37467  17.652  13.344   0.156 -0.1640  0.2230  0.1813
24054W        W37468  11.199   1.510   3.460  0.2631 -0.2642 -0.1186
24055W        W37469   6.750   0.315   0.048 -0.0033  0.2847  0.3846
24056W        W37470   4.144  11.412  10.880  0.1703 -0.0050 -0.3344
24057W        W37471  17.837  12.818  11.684  0.2757  0.0623  0.1065
24058W        W37472   0.518  13.410  16.117 -0.0890  0.0739  0.2335
24059W        W37473  13.713  16.761   5.795 -0.1614 -0.0362 -0.4115
24060W        W37474   1.691  18.126  10.354  0.0561 -0.6763 -0.0380
24061W        W37475   3.201   0.823  12.696 -0.0714  0.0779 -0.4624
24062W        W37476  11.779   0.747   3.232 -0.0203  0.2744 -0.2641
24063W        W37477  11.574   7.049   5.272  0.0677  0.0355 -0.1885
24064W        W37478  11.903   6.833  12.455  0.1119 -0.0285  0.0125
24065W        W37479  13.854   8.269  14.695  0.3347  0.0047 -0.3986
24066W        W37480  17.996   3.632   0.306 -0.1585  0.2114  0.2707
24067W        W37481  12.944  14.935  11.828 -0.1873 -0.1523  0.2289
24068W        W37482   2.246   9.636   2.816  0.3957  0.2985  0.1067
24069W        W37483  13.266  12.298   0.433 -0.0762 -0.0436 -0.1375
24070W        W37484  11.875   5.463  12.375 -0.1544  0.0012 -0.0900
24071W        W37485   7.491   4.118  12.908 -0.1215 -0.1900  0.2476
24072W        W37486   7.436  18.120   6.061 -0.1558 -0.0823  0.3094
24073W        W37487  16.189   8.677  16.190  0.0615 -0.0474  0.2119
24074W        W37488  14.585  11.660   5.883  0.0365 -0.1890 -0.2169
24075W        W37489   5.638   9.876  12.538  0.1517  0.0274 -0.1149
24076W        W37490  15.121   0.589  12.401 -0.0936 -0.1393 -0.0009
24077W        W37491   1.039   0.838  12.373  0.2192 -0.0102 -0.3100
24078W        W37492   3.876   0.298   5.433 -0.1523 -0.0222 -0.2562
24079W        W37493   6.072  17.221  13.242 -0.2434 -0.1367  0.0444
24080W        W37494   0.321  13.386  10.074  0.0925  0.2584  0.0946
24081W        W37495  11.515   6.686  14.095  0.1615 -0.2983  0.1755
24082W        W37496   2.810   4.606   0.320 -0.4851 -0.0483 -0.1648
24083W        W37497   8.068  14.090  14.403  0.0558  0.0102 -0.3192
24084W        W37498  11.059   6.380  14.107  0.2627 -0.1746  0.0624
24085W        W37499  18.027  16.992   1.052  0.0160  0.1069 -0.1159
24086W        W37500  10.402   1.595   1.865  0.0831  0.1705  0.1560
24087W        W37501  11.174   1.440   2.945 -0.0267  0.2252  0.1053
24088W        W37502   8.943   1.431  16.360  0.2364 -0.0966 -0.0538
24089W        W37503   2.643   9.025   0.120 -0.1058 -0.1347  0.1409
24090W        W37504   3.758  11.897  14.869 -0.0104  0.1500  0.3468
24091W        W37505  15.927  14.040  15.840 -0.2089 -0.0082 -0.2526
24092W        W37506  15.955   6.459  16.296  0.1777  0.0300 -0.1343
24093W        W37507   4.353  17.955   2.156  0.3103 -0.0449  0.1800
24094W        W37508   7.545   7.076   1.845 -0.1815  0.0476  0.2279
24095W        W37509  11.876   3.071   3.013 -0.0437  0.0356 -0.0362
24096W        W37510   3.202   8.397  14.633  0.0971  0.0789  0.1312
24097W        W37511   7.717   5.523   1.405  0.1058 -0.1544 -0.2155
24098W        W37512  10.891   0.987   9.951  0.1072 -0.3596  0.0432
24099W        W37513   9.101   4.370   3.326  0.1173 -0.2008 -0.1911
24100W        W37514   0.629   3.923  15.622  0.0446 -0.0328 -0.0242
24101W        W37515   9.271   6.397   1.753  0.1246  0.1333  0.1987
24102W        W37516  16.065   2.603  15.198 -0.1553 -0.1451  0.2240
24103W        W37517   2.714  17.683   5.985 -0.1390 -0.0040 -0.0994
24104W        W37518  12.797   9.526   2.008  0.1169  0.1596 -0.3100
24105W        W37519   1.361   4.293   0.165  0.1532 -0.0808 -0.0973
24106W        W37520  12.422  12.452   1.677  0.3330 -0.1001  0.1866
24107W        W37521  15.771  11.612   6.476  0.2966  0.1373  0.1881
24108W        W37522  11.259  16.484  11.430  0.1204 -0.0725  0.4134
24109W        W37523  13.772   0.464  14.966  0.3542 -0.0152  0.1263
24110W        W37524  10.764   5.398   3.561 -0.0440  0.0083 -0.2238
24111W        W37525   5.788  12.554   5.916  0.0039  0.1596  0.1678
24112W        W37526   8.524  10.251   1.432  0.1781  0.0902 -0.0167
24113W        W37527  11.570   8.395  14.273  0.1209 -0.0964 -0.3075
24114W        W37528  17.526  16.432  13.012  0.0831 -0.2452  0.2232
24115W        W37529  12.159   0.744   4.459 -0.2393 -0.0972 -0.0731
24116W        W37530   6.700   8.208  13.921  0.0195  0.0882  0.0567
24117W        W37531   5.457  17.913  15.556  0.0510  0.1540 -0.0784
24118W        W37532   0.300  15.297  13.808  0.1752 -0.2860 -0.1497
24119W        W37533  14.246  10.466   4.322  0.1222  0.0160  0.4340
24120W        W37534   6.419   6.396  14.958  0.0057 -0.1840  0.1780
24121W        W37535   8.289   2.542  15.411 -0.0164 -0.5823  0.2114
24122W        W37536   1.779   9.546   6.557 -0.2174 -0.1252  0.0457
24123W        W37537  16.102  14.115  13.987 -0.1243 -0.0890  0.1749
24124W        W37538   9.503   0.189   0.315  0.2463  0.1594 -0.0604
24125W        W37539  11.282  12.437  16.333  0.0857 -0.0427 -0.4145
24126W        W37540   5.245   1.018  10.302  0.0234  0.4242 -0.1901
24127W        W37541   0.349   4.211   4.244  0.2605  0.2273 -0.3057
24128W        W37542   9.980  12.329  15.298 -0.1083  0.2456  0.3870
24129W        W37543   2.912   0.353  13.255  0.2587 -0.1009 -0.1241
24130W        W37544  10.772  15.809   0.552 -0.1077  0.1452 -0.1325
24131W        W37545  12.893   2.046  11.882 -0.1939 -0.0036  0.1093
24132W        W37546  18.072   3.294  14.662 -0.2314  0.1431  0.3088
24133W        W37547  15.018   4.381   0.404  0.0543 -0.0865 -0.0522
24134W        W37548   9.020  11.731   4.665 -0.1670 -0.0462  0.1168
24135W        W37549   9.864  10.820  15.007  0.0528 -0.2239 -0.2235
24136W        W37550  15.022   5.953  14.947 -0.1604  0.3423  0.1663
24137W        W37551   5.710  12.346   2.535  0.2395  0.0560 -0.2527
24138W        W37552  15.657   2.456   2.430 -0.0142 -0.1515  0.2281
24139W        W37553   4.617  11.303   5.270  0.0562 -0.1601 -0.2897
24140W        W37554  11.186  12.095  13.418  0.0577 -0.1677  0.0908
24141W        W37555  12.523   5.319   3.986 -0.0699  0.0147  0.2811
24142W        W37556   7.674   3.729   5.017 -0.0041 -0.3677  0.0810
24143W        W37557   4.182  12.098   4.980  0.1136  0.1236 -0.1232
24144W        W37558  12.407  10.205  12.682 -0.0764 -0.2543  0.1815
24145W        W37559  14.387   1.495  10.574 -0.2010  0.1253  0.0168
24146W        W37560   6.948   6.020   1.604 -0.1799  0.2728  0.0038
24147W        W37561   1.465   6.615  13.703  0.1273  0.2385 -0.0342
24148W        W37562   7.043   9.244   5.154 -0.2043 -0.2048  0.0642
24149W        W37563  11.580   2.859  11.048 -0.0373  0.0410  0.0087
24150W        W37564   6.040   4.257  12.419 -0.0532  0.2106  0.0479
24151W        W37565   1.723  17.982  15.647 -0.0708  0.3608 -0.0136
24152W        W37566  13.842  12.987  15.959 -0.0079 -0.0115 -0.2369
24153W        W37567  13.604  13.997   3.723  0.2809 -0.0452 -0.0764
24154W        W37568   3.270  14.903   0.497  0.0420  0.0390 -0.2678
24155W        W37569   9.625   4.096  15.763 -0.1415  0.1015 -0.2603
24156W        W37570   4.623   3.954  11.270 -0.2711 -0.0840  0.4138
24157W        W37571   2.464  15.606  14.090 -0.1008 -0.0549  0.0497
24158W        W37572   2.380  10.909   0.774  0.0269 -0.1092  0.1094
24159W        W37573   0.799   1.707  15.645 -0.0638  0.0215  0.2667
24160W        W37574   9.384  15.273   0.056 -0.1836 -0.0374 -0.0148
24161W        W37575   0.676   4.957   0.336 -0.1844  0.1294 -0.0385
24162W        W37576   4.674   1.885   1.778  0.0061 -0.4053 -0.1201
24163W        W37577   5.093   6.610   2.231  0.1742  0.1840  0.0007
24164W        W37578   4.473   9.707  11.092  0.0000  0.2862 -0.1250
24165W        W37579  12.455  10.870  15.250  0.2114 -0.4254 -0.3259
24166W        W37580  17.999  11.079  11.354  0.0499 -0.3979  0.1480
24167W        W37581  13.782   2.545   6.465  0.1191  0.5387  0.0127
24168W        W37582  17.552  10.434   4.637 -0.1661 -0.2822 -0.0098
24169W        W37583  12.999   9.685  12.731 -0.1004 -0.0705 -0.3365
24170W        W37584  14.759  10.996   1.333  0.0386  0.0221 -0.2264
24171W        W37585   7.250  17.806   1.584 -0.1805  0.0351  0.1494
24172W        W37586  13.979   0.791   2.654 -0.1899  0.0319  0.0425
24173W        W37587   6.768   2.461   2.119 -0.0642 -0.0846 -0.3171
24174W        W37588  14.539  17.961  14.294 -0.1392 -0.1322 -0.0232
24175W        W37589  13.608  16.743  14.592  0.0079 -0.1094 -0.2966
24176W        W37590  12.933  12.032   0.757  0.1050  0.1686 -0.1264
24177W        W37591   0.684  15.999   2.784 -0.0351 -0.0255 -0.1065
24178W        W37592   8.453   7.075  16.236  0.0774 -0.1248 -0.1207
24179W        W37593   7.892   5.739   3.002 -0.0128 -0.0784  0.2522
24180W        W37594   8.875  16.454  13.821 -0.0188 -0.0930  0.0242
24181W        W37595   6.636  16.223   5.652 -0.4452  0.0510  0.0559
24182W        W37596   5.512   0.469   3.552 -0.0865 -0.0381  0.2374
24183W        W37597   2.942  13.984   4.693  0.0983 -0.2175 -0.0933
24184W        W37598   1.004  11.854   3.647 -0.0806 -0.1036 -0.0350
24185W        W37599  14.279  10.048  10.197  0.0105  0.1661 -0.1169
24186W        W37600  10.410   9.981   4.361  0.1064  0.1794 -0.1612
24187W        W37601   4.407   4.453  13.929  0.1402  0.2811 -0.2161
24188W        W37602  14.483  17.515  14.657  0.0685  0.0926 -0.0291
24189W        W37603   3.268  16.997  13.015 -0.2013 -0.1007  0.0998
24190W        W37604  13.674  17.995   5.270 -0.2345  0.1781  0.1108
24191W        W37605   3.494  11.862  11.545 -0.2258 -0.1584  0.1279
24192W        W37606  12.477   3.227   4.354 -0.0607  0.0325  0.1281
24193W        W37607   6.671   3.967  13.106 -0.0253 -0.2064  0.1732
24194W        W37608   6.896  13.397  12.646 -0.1971 -0.1039  0.0444
24195W        W37609   3.923  14.810  11.406  0.1086 -0.0427 -0.2096
24196W        W37610  16.069   5.115  10.540  0.4096 -0.3286  0.1843
24197W        W37611  17.240  13.837  14.422 -0.1109 -0.0017 -0.1481
24198W        W37612   7.947   9.381  10.850 -0.1124 -0.1739  0.1213
24199W        W37613   5.685  15.718  13.572 -0.2098  0.0227  0.1438
24200W        W37614   0.092   2.127   5.946 -0.3997  0.3156  0.1296
24201W        W37615   5.902  12.455  12.244  0.1896  0.2569  0.3164
24202W        W37616  12.038   2.200   2.988  0.0634 -0.3233  0.1584
24203W        W37617   4.967  18.239   0.657 -0.0668 -0.0105 -0.3686
24204W        W37618  16.629   7.734   5.330 -0.0747 -0.1280 -0.1492
24205W        W37619   5.581  10.424   3.488  0.0320 -0.1553  0.0223
24206W        W37620   9.421   5.771  13.244 -0.0599  0.0479  0.0121
24207W        W37621  17.423   1.552  14.659 -0.0030  0.1772  0.0787
24208W        W37622   5.531   2.504  13.103  0.6475  0.4142 -0.0407
24209W        W37623   0.561   8.941   4.787  0.2749  0.5062 -0.0292
24210W        W37624  17.679   0.383   4.081  0.1870 -0.1830 -0.1681
24211W        W37625  10.987   7.714  15.275  0.0032  0.0396 -0.1355
24212W        W37626  15.439   9.288   1.760 -0.2114  0.0903 -0.0176
24213W        W37627  17.050  10.521   0.358 -0.1766  0.0535 -0.0960
24214W        W37628   7.699   5.119  14.508 -0.0913  0.0466 -0.3549
24215W        W37629   8.111   8.443  12.467  0.0072  0.0008  0.0157
24216W        W37630  11.001   9.256  15.939 -0.1359  0.3884  0.0895
24217W        W37631   1.546   9.817  16.122 -0.0613  0.2465 -0.0798
24218W        W37632  13.090   9.099   1.290  0.0391  0.2896  0.0995
24219W        W37633   5.986  10.789  12.870 -0.0474 -0.0186  0.2778
24220W        W37634   2.459  11.933  16.290 -0.2043 -0.0893 -0.0672
24221W        W37635   0.098   6.992  12.118  0.0743  0.0215  0.1201
24222W        W37636   2.980  14.466  16.151  0.1756 -0.0351 -0.2177
24223W        W37637   0.129  11.852  13.914  0.0491 -0.2979 -0.0696
24224W        W37638   4.087   3.117   2.598  0.4803 -0.1096 -0.2649
24225W        W37639   5.491   5.773   5.629 -0.1713 -0.1820  0.2007
24226W        W37640   0.475   2.277   0.665 -0.3209 -0.2465 -0.1463
24227W        W37641  13.306  15.450  16.455  0.1643  0.1935 -0.0230
24228W        W37642   5.767  12.660  15.508 -0.2117 -0.1974  0.0989
24229W        W37643  18.189   3.406   1.315 -0.0807  0.1296  0.1833
24230W        W37644   6.162   2.544  14.024  0.3459 -0.2032 -0.2158
24231W        W37645   7.712   2.948   3.577  0.0696 -0.0323 -0.0305
24232W        W37646  15.333  11.895  15.667 -0.2950 -0.0928 -0.0220
24233W        W37647  10.473  13.424  12.328  0.0758 -0.2627  0.0741
24234W        W37648   1.614   1.788  13.988  0.0778 -0.3243  0.0190
24235W        W37649  11.346   3.403  14.742  0.0256  0.0250 -0.0262
24236W        W37650   7.027  13.729   6.184 -0.3119  0.0320  0.1318
24237W        W37651   7.695  11.500   3.584  0.2312  0.0845 -0.0995
24238W        W37652   4.199  12.233   6.397  0.0409  0.3461  0.1735
24239W        W37653  18.093   4.851  12.728 -0.0605 -0.2343  0.2654
24240W        W37654   8.354  11.094   3.127  0.0374  0.2251 -0.0210
24241W        W37655   5.613  10.936   2.224  0.0651  0.1448  0.2057
24242W        W37656  11.183   7.675  14.799 -0.0702 -0.0854  0.0418
24243W        W37657  11.614   3.408   1.487 -0.0726  0.0856  0.1233
24244W        W37658  10.141  17.207  14.964  0.1454  0.0967  0.0199
24245W        W37659  12.777   9.018  13.328  0.0778 -0.2502 -0.0788
24246W        W37660   2.140   1.722   3.439  0.1784  0.0610 -0.1126
24247W        W37661  18.187   2.150  10.787 -0.1076  0.0656 -0.2195
24248W        W37662   6.971  16.234  15.353 -0.2760 -0.0992 -0.2265
24249W        W37663  10.181   9.311  11.437  0.3412  0.1106 -0.1109
24250W        W37664  14.692   0.122  16.102  0.1380  0.1007 -0.1725
24251W        W37665   3.921   6.203  16.088  0.0863 -0.4051  0.0916
24252W        W37666   1.637   8.134  12.737  0.2647  0.1873 -0.1176
24253W        W37667   4.814  11.557   3.434 -0.0553  0.0299 -0.0755
24254W        W37668   5.646   4.610  12.620  0.0835  0.3664  0.0991
24255W        W37669  12.693  10.523   2.946  0.2993 -0.0598 -0.0978
24256W        W37670  16.021   1.271   4.412  0.3984  0.0772 -0.1467
24257W        W37671  10.143  14.020  15.340  0.0180  0.3011  0.1785
24258W        W37672  12.528   7.654   4.399  0.0799 -0.2074 -0.0044
24259W        W37673   5.653   6.436  10.360 -0.1827 -0.2306 -0.0602
24260W        W37674   4.531   4.025   4.713 -0.2020  0.2209 -0.1271
24261W        W37675   2.343  17.294   5.834 -0.1175  0.0713 -0.0682
24262W        W37676  10.238   8.778  15.058  0.2864 -0.0929 -0.4586
24263W        W37677   2.918   4.796   4.240  0.0522  0.0593 -0.0257
24264W        W37678  16.960   0.904  15.420 -0.1369  0.4547  0.0240
24265W        W37679   9.611   6.269   0.040  0.0298  0.3587 -0.0884
24266W        W37680   2.492  13.434   0.308 -0.1093 -0.2098  0.1623
24267W        W37681   2.638   7.344   2.007  0.1915 -0.1264 -0.2429
24268W        W37682  14.452   1.883  15.772  0.2154  0.0796  0.2767
24269W        W37683  14.866   3.906  13.387  0.2975 -0.2283 -0.1217
24270W        W37684   7.830  15.937  13.501  0.0270  0.0932 -0.2833
24271W        W37685   7.834  11.046   4.566  0.0521  0.2299 -0.1197
24272W        W37686   5.805  12.777   1.443 -0.0839  0.0489 -0.1891
24273W        W37687   8.105   0.411  14.583  0.1636 -0.1078 -0.0612
24274W        W37688  13.841  10.364   2.149 -0.5482 -0.2366 -0.0387
24275W        W37689   2.938   6.098   3.589 -0.4083 -0.0137  0.0325
24276W        W37690   9.377  17.036   4.576 -0.2329  0.3146  0.1079
24277W        W37691   5.303  15.785  15.945  0.1678 -0.1380 -0.2201
24278W        W37692  14.202   1.708   0.192 -0.0214  0.0494 -0.0592
24279W        W37693   4.481  12.244  11.819  0.0538 -0.1054  0.1005
24280W        W37694   6.801   6.356  12.615  0.0045 -0.1113 -0.3022
24281W        W37695  17.439   2.941   5.308 -0.4027 -0.2714  0.1958
24282W        W37696   7.260  10.933   0.470  0.0521  0.1423  0.1413
24283W        W37697  13.209   8.913   5.818  0.3642 -0.0146 -0.1445
24284W        W37698   3.952   4.881  10.874  0.0864  0.0633 -0.1568
24285W        W37699   9.084   8.303  11.048  0.2020  0.1302 -0.3451
24286W        W37700   6.668  14.582  16.415  0.0283 -0.3109  0.0324
24287W        W37701  15.201   8.605  15.771  0.1116 -0.0196 -0.0778
24288W        W37702  16.781  15.961  13.995  0.2519 -0.0312 -0.1655
24289W        W37703  13.219  11.365   0.067  0.1565 -0.1430 -0.2950
24290W        W37704   7.665  16.644  15.403  0.2768 -0.0916 -0.3282
24291W        W37705  14.387  11.454  12.879 -0.0722  0.0803 -0.2812
24292W        W37706  16.082  13.211  14.057  0.0579 -0.1047 -0.3490
24293W        W37707  10.389  16.788  12.380 -0.0059 -0.1422 -0.1406
24294W        W37708   6.066   1.348  11.149  0.1077 -0.1262  0.2817
24295W        W37709   0.176  15.609   4.531  0.1981  0.0760 -0.0125
24296W        W37710  15.081   5.460   2.565 -0.1011 -0.0168  0.0909
24297W        W37711  11.517   0.864   4.784 -0.0053  0.5080  0.0524
24298W        W37712   8.030   8.659   5.827 -0.0544  0.1622 -0.0318
24299W        W37713   8.679   9.648   5.254 -0.1783 -0.0119 -0.2026
24300W        W37714  13.738   9.322  11.392 -0.2285  0.2312 -0.1310
24301W        W37715   9.681   1.443   1.360 -0.3864 -0.0264 -0.3718
24302W        W37716  10.192   3.608   5.491 -0.2801 -0.0438 -0.0930
24303W        W37717  16.328   4.546   1.666  0.0183 -0.0722 -0.1261
24304W        W37718   0.485   2.807  11.345 -0.1821  0.0347 -0.2965
24305W        W37719  15.308   5.704  12.971  0.0049  0.1202 -0.0844
24306W        W37720   7.835   3.370   0.905  0.2587  0.1806  0.0229
24307W        W37721   3.966   1.168   5.360  0.1786 -0.1222  0.0269
24308W        W37722  11.686   8.012  13.431 -0.0815 -0.1290  0.3021
24309W        W37723   4.415   5.998   0.050  0.1131  0.1150 -0.1717
24310W        W37724   3.291  13.516  15.940  0.0261  0.2024  0.0534
24311W        W37725   4.967   9.784  16.156  0.1919  0.0225  0.1202
24312W        W37726  17.429   9.060   0.803  0.0820 -0.1503  0.1139
24313W        W37727  10.427  12.610  14.080  0.2378  0.1835 -0.1423
24314W        W37728   9.608   7.043  16.140  0.0222  0.3745  0.1026
24315W        W37729   9.877  11.306  12.346  0.1170 -0.0022 -0.2584
24316W        W37730   7.692   0.440   5.274 -0.3966  0.1155  0.1011
24317W        W37731   7.519  13.882  11.549  0.2345  0.0833 -0.2885
24318W        W37732  16.024  16.449  16.392  0.3465  0.0542  0.0089
24319W        W37733  18.168  12.207   0.806 -0.0861 -0.2511  0.4002
24320W        W37734  12.956   7.819   4.147  0.2336 -0.2696 -0.2364
24321W        W37735  11.372  10.338   4.146  0.0870 -0.0062  0.0939
24322W        W37736   0.094  15.594  11.638 -0.1620 -0.1021 -0.1617
24323W        W37737   7.661  16.940   2.317  0.0068 -0.1269 -0.0072
24324W        W37738  11.191  16.519   1.922 -0.2651 -0.0739  0.1241
24325W        W37739  11.348   4.196   4.885 -0.2023  0.0908 -0.0459
24326W        W37740  16.536   7.558   5.822 -0.1687 -0.1072  0.1310
24327W        W37741   0.908  11.555  11.916 -0.0567  0.2009  0.3523
24328W        W37742   1.766  11.708  13.158 -0.0920  0.2098 -0.1900
24329W        W37743  17.731   5.277  14.802  0.0094 -0.0155  0.0781
24330W        W37744  13.001   7.898   2.608  0.1430 -0.3244  0.0323
24331W        W37745  17.088  10.856   3.291  0.3788 -0.2284 -0.0665
24332W        W37746   1.601  16.839  14.537 -0.0351 -0.0354  0.1737
24333W        W37747  18.220  13.194  11.747 -0.4664 -0.0507  0.0389
24334W        W37748  11.663   9.947   0.215  0.1067  0.0769 -0.0214
24335W        W37749   6.942  13.583   4.332  0.3787 -0.1350  0.0931
24336W        W37750  15.108   0.649   2.081  0.1259  0.0076  0.1573
24337W        W37751   4.795  15.768  16.260 -0.0372 -0.1850  0.2105
24338W        W37752  14.237  17.680   1.688 -0.0889 -0.1182  0.3973
24339W        W37753  10.598  16.041  15.174 -0.0432  0.0167  0.0966
24340W        W37754  15.740  11.592  14.724  0.0763 -0.0658 -0.0957
24341W        W37755   1.913   1.201   2.153 -0.3050  0.2124  0.0067
24342W        W37756   1.013   9.861   2.238 -0.0732 -0.1941  0.0755
24343W        W37757  15.462  18.090  14.141  0.1502  0.0534 -0.2437
24344W        W37758  10.812   7.643   4.215  0.0394 -0.1907  0.1186
24345W        W37759   7.196  14.670  14.353 -0.0923  0.0453  0.2968
24346W        W37760   2.372   5.466  12.496  0.1690  0.0757  0.1210
24347W        W37761  10.361  16.561  13.864 -0.0155  0.5107 -0.1049
24348W        W37762   3.615   0.485  14.844  0.0492  0.0321 -0.1876
24349W        W37763   7.956  10.768   5.874  0.4008 -0.0765 -0.1735
24350W        W37764   6.611   2.665  11.185 -0.2286 -0.1278  0.1767
24351W        W37765  11.370   1.089   4.332  0.0700  0.2182 -0.0075
24352W        W37766  10.953   2.682   1.746  0.1152 -0.2256  0.0334
24353W        W37767   1.781  14.723  10.172  0.1211 -0.2565 -0.3150
24354W        W37768   2.336  10.847  11.691  0.0692  0.5413  0.0759
24355W        W37769  16.248   6.086  15.888 -0.0071 -0.0003 -0.0133
24356W        W37770   2.826  13.692  15.602  0.0579  0.0621  0.2009
24357W        W37771   2.539   6.543   0.323  0.2820 -0.1011 -0.1060
24358W        W37772  15.668   3.187  11.597 -0.1388  0.0523 -0.3829
24359W        W37773   2.289  13.694  16.338 -0.5057  0.1854 -0.3345
24360W        W37774  11.028   1.752   4.689  0.0250  0.1859  0.3365
24361W        W37775   3.464   6.031   1.685 -0.4059 -0.2332 -0.2834
24362W        W37776  10.201   0.219  12.311  0.0538 -0.2355  0.1134
24363W        W37777  15.213   8.204   0.878 -0.0871 -0.0184  0.2457
24364W        W37778   8.463  16.969  13.064 -0.2056 -0.2252 -0.3039
24365W        W37779  14.134   9.756   4.632 -0.2011 -0.1371 -0.2807
24366W        W37780   5.052   8.236  16.024  0.1046  0.0287  0.2701
24367W        W37781  13.112  17.949  11.477 -0.0794 -0.1037  0.0307
24368W        W37782  11.506   5.731   1.075  0.2363 -0.0496 -0.0007
24369W        W37783  16.804  18.183  15.851  0.1644  0.2073  0.1649
24370W        W37784  11.045  14.499   3.925  0.1261  0.1855 -0.1182
24371W        W37785   3.231  10.154  11.514  0.1560 -0.2146  0.1068
24372W        W37786  11.539   7.452  14.374 -0.0207  0.0964 -0.0784
24373W        W37787   7.509   5.426  11.887 -0.4778 -0.2480 -0.0927
24374W        W37788   6.931  14.466  15.973 -0.1547  0.0045  0.1409
24375W        W37789  10.210   2.831  13.172 -0.0222 -0.1315 -0.0131
24376W        W37790  14.899  13.992   3.085  0.0974 -0.1210 -0.2173
24377W        W37791  14.093  14.750  13.418  0.1463 -0.1370 -0.0078
24378W        W37792   3.179  15.434   6.193  0.2886 -0.0841 -0.2627
24379W        W37793   6.752   5.914  14.084  0.0226 -0.0020 -0.0953
24380W        W37794  12.401   3.227   2.257  0.0974  0.3861  0.0431
24381W        W37795   0.683  12.608   1.872 -0.1367 -0.3048 -0.0219
24382W        W37796  17.218  18.185   5.807 -0.0727  0.1595  0.1182
24383W        W37797  10.094  10.558  13.097 -0.0039 -0.0004  0.0095
24384W        W37798   3.994   2.395   1.312  0.0316 -0.0488  0.1636
24385W        W37799   4.709  11.771   1.197  0.0394 -0.3530  0.0784
24386W        W37800  17.165  17.027   0.727  0.2782 -0.1760  0.2490
24387W        W37801  11.793  11.188  15.920  0.0578  0.4217  0.0106
24388W        W37802   4.986  11.562  13.358  0.3290 -0.0607  0.1398
24389W        W37803  15.352   9.681   4.383 -0.0245  0.0472  0.5377
24390W        W37804   7.738   0.588  15.925 -0.2581 -0.1981  0.0287
24391W        W37805   6.295   8.721  10.736 -0.0558  0.0576 -0.2493
24392W        W37806   8.408  14.204   4.029 -0.0282 -0.1940 -0.1037
24393W        W37807   9.788  16.599  15.718  0.2117 -0.2217  0.0928
24394W        W37808   6.772   7.364   0.168 -0.0514  0.1958 -0.0090
24395W        W37809   6.346   9.250  12.439  0.1468  0.1895  0.1162
24396W        W37810   1.960   5.178  15.116 -0.1213  0.1070 -0.1413
24397W        W37811   8.106   7.342  11.447 -0.0026 -0.0982  0.0934
24398W        W37812  11.970   6.162  10.033  0.2215 -0.0932 -0.2321
24399W        W37813  10.486   7.077   5.907 -0.1482  0.0517  0.0865
24400W        W37814   7.088   5.109   1.902 -0.0477 -0.3198  0.0584
24401W        W37815   9.402  16.598   3.597 -0.0059 -0.0279  0.1816
24402W        W37816   3.572  15.490   2.986 -0.0661  0.1887  0.0422
24403W        W37817   4.380   9.539  10.093  0.0004  0.3332  0.2313
24404W        W37818  16.779   0.086   5.584  0.0259 -0.0293 -0.1761
24405W        W37819   1.179   7.325  10.831  0.0493  0.3257  0.2352
24406W        W37820   9.922  14.548   5.332 -0.1266 -0.2655  0.2711
24407W        W37821  15.329   4.924  15.051  0.1633 -0.3288  0.0524
24408W        W37822  16.310   5.635   5.014  0.1054 -0.0762 -0.0659
24409W        W37823  10.889   5.070   0.146 -0.0279 -0.1623 -0.4339
24410W        W37824  11.079   1.246   0.398 -0.2305 -0.0329 -0.1042
24411W        W37825   0.412  13.816  14.273  0.2491  0.0602 -0.1584
24412W        W37826   3.086   8.946   0.663 -0.1861 -0.1196 -0.0839
24413W        W37827  16.423   0.877  15.468  0.1277 -0.1508 -0.3868
24414W        W37828   9.740   4.264  11.529 -0.2081  0.0664 -0.2152
24415W        W37829  10.031  13.457   4.952  0.2303  0.1272 -0.2841
24416W        W37830  12.695   9.899   4.318 -0.0393 -0.0643  0.1253
24417W        W37831  18.035  11.156   2.200 -0.2775  0.2487  0.0607
24418W        W37832   7.560  16.027  12.131  0.0302  0.2978 -0.0515
24419W        W37833   3.542  17.084   0.598  0.2654  0.1351 -0.2018
24420W        W37834   2.484   7.105   6.221  0.2508  0.2366  0.1062
24421W        W37835  10.845   7.274  12.604  0.2723  0.0762 -0.0301
24422W        W37836  16.036  10.861  10.337  0.1064  0.2617 -0.0232
24423W        W37837   0.772  15.356   1.484  0.3460 -0.1094 -0.0324
24424W        W37838   3.125   1.226   1.066  0.0082  0.2355 -0.2165
24425W        W37839  15.434  12.777  13.414 -0.2438 -0.1020 -0.0995
24426W        W37840  12.782  17.059   2.629 -0.1871 -0.0860  0.3429
24427W        W37841  11.893  13.007  15.919 -0.0240  0.1928 -0.0855
24428W        W37842   1.553  17.754  13.017 -0.3348  0.2793 -0.0013
24429W        W37843   8.604  17.090   3.447  0.0917  0.0033  0.0301
24430W        W37844  12.417   4.627   3.368 -0.1009 -0.1939 -0.0599
24431W        W37845  13.438  16.359  13.294  0.0620 -0.1438  0.2228
24432W        W37846  16.230   4.671  11.814  0.0075 -0.3379 -0.2239
24433W        W37847   5.799   9.191  11.109  0.1651 -0.0030 -0.3452
24434W        W37848  15.979   2.538   3.853 -0.3102 -0.1790 -0.1039
24435W        W37849   6.434  10.596  15.503 -0.1571  0.0885 -0.1185
24436W        W37850  17.494   0.960   0.353 -0.1984 -0.0942 -0.3608
24437W        W37851   6.214  10.412   3.276  0.0870  0.0655 -0.0862
24438W        W37852  16.192  11.860   4.070  0.0664 -0.2660 -0.2764
24439W        W37853  16.856   2.499  10.022  0.2603  0.2119 -0.1637
24440W        W37854   0.561  13.837  15.892  0.0113  0.2128 -0.0108
24441W        W37855   3.743   2.175   5.276 -0.1413  0.3970 -0.0373
24442W        W37856  15.172  17.868  13.687  0.1456 -0.1447 -0.0420
24443W        W37857  16.154   1.864   2.604  0.1521 -0.1075  0.0636
24444W        W37858   4.571  12.400  14.646 -0.1366  0.0660 -0.2513
24445W        W37859   0.621   3.737   4.059 -0.0749  0.2046 -0.2910
24446W        W37860  16.174   9.488  11.064  0.2523 -0.2927 -0.0961
24447W        W37861   3.589   2.957   5.318 -0.0387  0.0077 -0.1724
24448W        W37862   5.527   2.272   3.336  0.0701 -0.1094 -0.0238
24449W        W37863  14.918  10.654   5.219  0.0574  0.4026  0.0553
24450W        W37864  15.318   6.371  16.052 -0.0459  0.0349 -0.1935
24451W        W37865   0.684   3.148   3.473 -0.1545  0.0519 -0.4195
24452W        W37866   8.710   5.342   3.606  0.1276  0.0623  0.0219
24453W        W37867   5.048  12.292  14.680  0.0765 -0.0186 -0.1708
24454W        W37868   9.052  10.033  10.627 -0.1066 -0.2956 -0.1129
24455W        W37869  15.160  10.215  10.517  0.1190  0.3208  0.0162
24456W        W37870   9.570   5.171  14.637  0.0978 -0.1380  0.2593
24457W        W37871   0.240  16.787   1.412 -0.3172  0.0037 -0.0159
24458W        W37872   3.436   4.890  10.568 -0.1838  0.2990 -0.2527
24459W        W37873  13.214   5.182   3.512  0.0949  0.1603  0.0214
24460W        W37874  17.881   4.292   4.035  0.0780  0.0799 -0.0603
24461W        W37875  12.658  15.550   1.281 -0.2832  0.3149  0.2485
24462W        W37876  14.915  17.423  13.487 -0.0807 -0.0307 -0.1033
24463W        W37877   2.070   7.998   5.961 -0.1946  0.0849  0.2207
24464W        W37878  16.194   4.614  16.167 -0.1310 -0.3330  0.0442
24465W        W37879  12.148   4.145  14.189 -0.1253 -0.2096  0.1832
24466W        W37880  10.528   4.392   4.721  0.1715  0.0121  0.0816
24467W        W37881   2.215  12.367  13.403  0.1262 -0.1374  0.2021
24468W        W37882  10.487   0.002  10.619  0.1199 -0.0620  0.0687
24469W        W37883  11.563  12.925   4.561  0.0681 -0.1913  0.2933
24470W        W37884   9.147  15.644  12.189 -0.1596 -0.2224 -0.1292
24471W        W37885   0.157  16.328   3.801  0.2306  0.4090 -0.2128
24472W        W37886  14.999   3.419  15.235 -0.0570  0.1295 -0.2538
24473W        W37887   2.916   0.735   5.746 -0.1406  0.4607 -0.1189
24474W        W37888  13.894  11.952  15.866 -0.0269 -0.1137 -0.2237
24475W        W37889  12.940   2.126   5.366  0.1022 -0.0024  0.2920
24476W        W37890  12.509   8.543  11.952 -0.1504 -0.2667 -0.1499
24477W        W37891   7.062   6.283  11.015 -0.0785 -0.3855 -0.0100
24478W        W37892   6.831   0.033  12.848  0.1398  0.0745 -0.0884
24479W        W37893  11.822   7.562   2.179 -0.2147 -0.2499  0.3047
24480W        W37894  12.236  12.211   4.177  0.0300 -0.0345 -0.0351
24481W        W37895  14.402   6.561   5.080  0.2828  0.1016  0.1640
24482W        W37896  18.121   9.270   1.022  0.1428  0.0846  0.1256
24483W        W37897   2.510  17.046   0.079  0.1137 -0.0864 -0.1838
24484W        W37898  13.718   7.114   3.989  0.0758 -0.0595  0.1283
24485W        W37899   4.745   5.816  11.179  0.3265  0.3417  0.0635
24486W        W37900   7.494  14.595  10.916 -0.1650  0.5021 -0.0228
24487W        W37901   9.438   3.822   2.473  0.2662  0.1086 -0.1230
24488W        W37902   1.321  11.772  11.790 -0.3139  0.1568  0.2519
24489W        W37903   4.808  11.471  15.817  0.2396 -0.0490 -0.0149
24490W        W37904   2.722   8.681  14.835 -0.3221 -0.1431  0.0004
24491W        W37905  16.464   7.083  11.947  0.0764 -0.4277 -0.2091
24492W        W37906  10.134   9.995  15.740  0.0984 -0.5471 -0.0278
24493W        W37907   6.972   9.444  14.737 -0.2395  0.1229 -0.0734
24494W        W37908  17.873   0.183  16.022  0.0476  0.0211 -0.0710
24495W        W37909   7.868  10.278  11.386  0.1102 -0.1430  0.7343
24496W        W37910   2.758   2.185   0.883 -0.1911  0.0197  0.2265
24497W        W37911  16.197   3.132  10.816  0.1632  0.2871  0.1513
24498W        W37912   6.300   6.848   3.058  0.1628  0.2633 -0.2728
24499W        W37913   4.326  17.958  11.507  0.0628 -0.2965  0.0318
24500W        W37914   5.041  15.705  13.556  0.0998 -0.1752  0.2206
24501W        W37915   8.720   8.000  14.785  0.1390 -0.0362 -0.5293
24502W        W37916   6.987   8.856   2.070 -0.0648  0.1230  0.1605
24503W        W37917   9.889  10.907  11.995  0.4149 -0.1573 -0.2845
24504W        W37918   9.259  14.995  11.379  0.2318 -0.0076  0.0011
24505W        W37919   1.782  14.400   1.702 -0.0536  0.0399  0.0176
24506W        W37920  16.509   6.671   0.453 -0.0095 -0.4357 -0.1311
24507W        W37921   4.080   8.825  14.330  0.2792 -0.1411 -0.0230
24508W        W37922   4.192  15.031  16.180 -0.0100  0.0068  0.2514
24509W        W37923   3.945   7.329  13.843  0.0259  0.2425  0.1150
24510W        W37924   4.589  15.243  14.298 -0.2866  0.2269 -0.2122
24511W        W37925   8.793   6.190   6.003 -0.0955 -0.1271  0.2342
24512W        W37926   9.734  16.468   0.419  0.1961 -0.2230  0.1782
24513W        W37927  17.961   3.876   0.718  0.1083  0.3632  0.1828
24514W        W37928   0.851  15.937   4.102  0.0582 -0.1086  0.3240
24515W        W37929  11.469  16.024   4.666 -0.0077 -0.1292  0.0929
24516W        W37930   5.810  14.740  13.323  0.0447  0.1173 -0.1618
24517W        W37931  16.460  12.228  16.071  0.3287  0.0985  0.1988
24518W        W37932  16.736  12.507  13.038  0.2737 -0.0033  0.1593
24519W        W37933   1.144   5.093  12.557 -0.2781  0.1672  0.0148
24520W        W37934   1.456   9.572   1.072  0.0642  0.3424 -0.1637
24521W        W37935   9.479   3.779   4.398  0.1285 -0.0029  0.2827
24522W        W37936   0.211   0.430   2.304  0.0010  0.0879  0.1373
24523W        W37937  15.624   0.722   2.333  0.1021  0.3408 -0.2304
24524W        W37938  17.450   2.578  11.180 -0.0959 -0.1996 -0.1493
24525W        W37939  12.428  10.779   3.336 -0.3285  0.2712 -0.0832
24526W        W37940  16.870   4.792  10.372 -0.1166  0.1022  0.1737
24527W        W37941  11.694  16.679  15.103 -0.1551  0.0267 -0.1475
24528W        W37942   6.244   6.931  14.430 -0.0363  0.0602 -0.4586
24529W        W37943   3.984   8.909  15.681  0.2290 -0.0995 -0.2467
24530W        W37944   6.444  10.592  11.413 -0.3378  0.0077 -0.3368
24531W        W37945  11.568  13.180   1.558  0.1138  0.4325 -0.0634
24532W        W37946  13.528   3.217  12.377 -0.6096  0.4442  0.0137
24533W        W37947   0.783  10.221   0.127 -0.3139 -0.3346  0.2144
24534W        W37948   9.342   1.480  16.067 -0.2034  0.2998 -0.5142
24535W        W37949   0.165   1.427  16.288 -0.2386 -0.4666 -0.0809
24536W        W37950  17.314  15.723  10.562 -0.1212 -0.0126  0.0366
24537W        W37951   8.691   6.440   5.531  0.0107  0.0073  0.0610
24538W        W37952  10.653  15.554  13.952 -0.0995 -0.0277  0.0026
24539W        W37953   3.944   7.261   1.758 -0.1023 -0.0519 -0.3172
24540W        W37954   3.357   2.638   4.492  0.2797 -0.0243 -0.0383
24541W        W37955   6.630   3.841   3.718 -0.1327 -0.1051 -0.1041
24542W        W37956  14.487  16.231   3.882 -0.0676  0.0513 -0.0413
24543W        W37957   2.106   8.203  13.883 -0.3369  0.1590  0.3563
24544W        W37958  11.130  11.661   1.986 -0.2136 -0.0645 -0.1779
24545W        W37959   6.146  13.649   2.575  0.1454  0.2403 -0.3774
24546W        W37960  10.184  15.746  16.024 -0.1593  0.0507  0.0872
24547W        W37961  16.785  13.528  15.091  0.1345  0.1152 -0.2611
24548W        W37962   8.009  11.535  12.481 -0.0393  0.1978 -0.0403
24549W        W37963  14.807   4.066   1.338 -0.1270 -0.0587  0.0998
24550W        W37964  14.236   3.940   4.656 -0.1998  0.1659  0.0881
24551W        W37965   9.487  13.293   0.865  0.0079  0.0882  0.1441
24552W        W37966  11.838  17.649   0.619  0.3140 -0.1599 -0.0310
24553W        W37967  15.414   1.362   5.642 -0.0167  0.1698  0.0473
24554W        W37968   5.919  15.789   1.453  0.2797 -0.0242 -0.2003
24555W        W37969   6.026   9.297   5.766 -0.0738  0.0814  0.0794
24556W        W37970   8.411  10.203  14.104 -0.2340  0.1656  0.1328
24557W        W37971  15.292  14.363   3.686 -0.0122 -0.1069  0.1371
24558W        W37972   6.136   1.373   1.494  0.0434  0.0546  0.1927
24559W        W37973  12.368   7.869  11.202 -0.3369  0.0209 -0.3324
24560W        W37974   6.663  17.452  16.017 -0.0048  0.2439  0.1220
24561W        W37975  11.172   2.036  11.544  0.1368 -0.1173 -0.0533
24562W        W37976  17.866  15.221  13.369 -0.1170  0.0172 -0.2010
24563W        W37977   4.553   8.881  14.658  0.2303  0.1457 -0.1718
24564W        W37978   4.524  15.627  12.888  0.1712  0.1036 -0.0681
24565W        W37979   7.516  12.937  16.293  0.0267  0.0436  0.2410
24566W        W37980   7.153  13.038  12.234 -0.1076 -0.0331 -0.0003
24567W        W37981   5.313   1.314   0.452  0.0278  0.2091  0.0098
24568W        W37982   4.290   8.377  15.503 -0.1909  0.0248  0.0476
24569W        W37983   4.420  15.476   3.601 -0.0330  0.1733  0.5272
24570W        W37984   4.006   8.328  12.679  0.3388  0.0463 -0.1068
24571W        W37985   6.451  15.083  16.374 -0.0798 -0.3401  0.2662
24572W        W37986  13.400  10.792  10.334  0.0196  0.1495 -0.3070
24573W        W37987  11.756   2.620  15.951 -0.3490  0.3052  0.2940
24574W        W37988   8.554   2.233   2.567 -0.0684 -0.1542 -0.0320
24575W        W37989  13.085  13.067  11.908 -0.1656 -0.0918 -0.3284
24576W        W37990   6.512  16.456  11.719 -0.0523 -0.1124 -0.0111
24577W        W37991  17.075   2.482   2.670 -0.0357 -0.0622  0.1487
24578W        W37992  10.971  14.404   1.334 -0.1889  0.0957 -0.0866
24579W        W37993  12.176  10.715   4.285 -0.0111  0.0341 -0.1549
24580W        W37994  14.337   5.939  11.716 -0.2908  0.1287 -0.1195
24581W        W37995  16.079  18.132  12.567  0.1728  0.1712 -0.1701
24582W        W37996   5.442   3.810   0.478  0.1594  0.2631 -0.2564
24583W        W37997  11.022   1.309   1.882 -0.0640  0.0303 -0.0164
24584W        W37998  13.251  17.810  15.843 -0.0567  0.3971  0.0622
24585W        W37999  12.597   2.030  12.738  0.4234 -0.1831  0.1638
24586W        W38000  12.928  15.285  13.184 -0.1808  0.1489 -0.0716
24587W        W38001  15.870   5.640   5.210 -0.0178 -0.2198  0.1312
24588W        W38002  15.013  17.429   3.269 -0.1093  0.2241 -0.0375
24589W        W38003   8.485   4.642  11.562  0.1201  0.0939  0.1032
24590W        W38004  17.067   8.161  14.822  0.0517  0.0944  0.1333
24591W        W38005  14.698   9.407  10.596  0.0842  0.1857  0.0007
24592W        W38006  13.251  13.278  15.569 -0.1507 -0.0711  0.1492
24593W        W38007   7.230  15.833  15.261  0.0452 -0.0797  0.0678
24594W        W38008   1.192  16.695  16.307 -0.1861  0.1500  0.0120
24595W        W38009  16.587  10.120  11.732  0.2714 -0.1202  0.2429
24596W        W38010   7.478  15.562  13.371 -0.0054  0.0426 -0.2895
24597W        W38011   9.689  12.572   3.137 -0.0814  0.2590 -0.1077
24598W        W38012   1.217   7.152   0.560  0.2084 -0.0942  0.0345
24599W        W38013   3.794  11.818   3.426  0.2862  0.1518 -0.3651
24600W        W38014   3.241  14.242  14.492 -0.2949 -0.3533  0.0025
24601W        W38015   4.469  17.642   0.316  0.1916  0.1948  0.0131
24602W        W38016   6.926  17.339  11.107  0.2304 -0.0544  0.3625
24603W        W38017   3.439   2.515   4.950  0.1583  0.0511 -0.0574
24604W        W38018   0.933  16.228  14.143  0.4337 -0.0489  0.1675
24605W        W38019   2.457   1.311  13.204 -0.1165 -0.0287  0.2856
24606W        W38020   1.710   4.991   0.700  0.1997 -0.0313 -0.0788
24607W        W38021  17.470   1.225   2.109 -0.0771  0.0323 -0.1161
24608W        W38022  14.637  13.578  11.016 -0.2482  0.3482 -0.1189
24609W        W38023   1.675   3.022   3.627  0.2515 -0.0400 -0.0245
24610W        W38024   2.756   9.989   4.084 -0.0031  0.0181 -0.3316
24611W        W38025   5.879  11.772  14.890 -0.1270 -0.1429  0.0967
24612W        W38026  10.638   9.055  11.588  0.1553  0.0588 -0.0157
24613W        W38027   5.720  10.258  13.654  0.1837 -0.1085 -0.0251
24614W        W38028  18.115   4.127   0.196  0.1090 -0.0511 -0.1865
24615W        W38029  12.359   7.054  11.447 -0.1006 -0.2108 -0.0828
24616W        W38030  12.742  10.960  11.111  0.2631  0.1996  0.1405
24617W        W38031  10.947   8.886  10.794  0.2400  0.1602  0.2212
24618W        W38032   1.445  12.850   5.282  0.3007 -0.0769 -0.2101
24619W        W38033  16.323  16.377  15.473  0.0529 -0.0875  0.0903
24620W        W38034  15.389   0.827   1.525  0.1541 -0.2303  0.0621
24621W        W38035   1.592   8.895   5.266  0.2551 -0.0159  0.6631
24622W        W38036   5.308  12.038  10.405  0.1530 -0.1492 -0.0345
24623W        W38037  16.753  18.199   6.609  0.2756  0.1525 -0.0237
24624W        W38038   8.355   9.676   4.391 -0.1662 -0.2652 -0.2217
24625W        W38039   8.911  12.879   0.193  0.1699 -0.1679  0.1530
24626W        W38040  11.638   4.558  13.363  0.1489  0.0097  0.2189
24627W        W38041  11.184  15.226  10.564 -0.2192 -0.0197 -0.4770
24628W        W38042   4.155   5.875   5.430 -0.0760 -0.0240  0.0688
24629W        W38043  18.250  16.430  11.231 -0.0554 -0.0561 -0.0141
24630W        W38044   4.395   1.763   0.166 -0.2116  0.0225 -0.1895
24631W        W38045  10.525   2.574  16.152  0.1589  0.0556 -0.0427
24632W        W38046   4.830  17.513   2.912  0.3146  0.1267 -0.0725
24633W        W38047   9.498   7.749   1.134  0.1777  0.0466 -0.1003
24634W        W38048   9.827  17.363   4.661  0.3774  0.0337 -0.2921
24635W        W38049  13.881  15.354   3.537 -0.2900  0.0213 -0.0503
24636W        W38050  11.827  10.172  15.129  0.1092  0.1535  0.0074
24637W        W38051  15.801  11.031  11.799  0.1813 -0.2040  0.0947
24638W        W38052  14.810  17.255   0.706  0.2759  0.4989 -0.0182
24639W        W38053   3.894   8.147   3.496  0.0496 -0.1282  0.0647
24640W        W38054  11.493   0.895  10.598  0.1159  0.2690 -0.3141
24641W        W38055   3.409   7.465   5.878  0.0399 -0.2589  0.1844
24642W        W38056   3.904   6.310  13.299 -0.0112  0.3038 -0.0458
24643W        W38057  10.021  17.286  14.429 -0.3887  0.2046  0.0815
24644W        W38058   2.851   8.987   4.105  0.3124  0.2436  0.0135
24645W        W38059   5.663   4.321  11.138  0.0401 -0.2006 -0.2164
24646W        W38060   3.892   2.017  16.471  0.3267  0.1309  0.1075
24647W        W38061  17.245  10.852  13.897  0.2171  0.1789  0.0636
24648W        W38062   4.373  16.451  14.957  0.3304 -0.0896 -0.0146
24649W        W38063  16.406  12.137   0.585  0.0350  0.0710 -0.2628
24650W        W38064  17.234   6.653  13.029  0.0185  0.1518  0.0345
24651W        W38065   3.726  15.955   1.263 -0.0736 -0.2598 -0.0650
24652W        W38066   3.968  15.941  12.800 -0.4739 -0.1224  0.1227
24653W        W38067  10.894  17.977  14.031 -0.0881 -0.0987  0.3849
24654W        W38068   2.607   5.236   2.777  0.0439  0.0682 -0.2815
24655W        W38069  12.395   9.297  13.076  0.2231  0.0236  0.0119
24656W        W38070   7.470   8.240   2.164  0.1849 -0.1719 -0.2306
24657W        W38071  11.426  13.616   4.503  0.2232  0.2147 -0.3041
24658W        W38072  12.056  17.113  10.602  0.1399 -0.1509 -0.0741
24659W        W38073  11.929  16.491   2.916 -0.2455 -0.4078 -0.2870
24660W        W38074   3.400  15.858   2.593  0.1919 -0.3039  0.4597
24661W        W38075  17.559  13.027  15.731  0.0106 -0.0784  0.3232
24662W        W38076  13.695  15.641  11.731  0.2447 -0.0617  0.0396
24663W        W38077   7.402   2.046   3.738  0.1505 -0.0223  0.3427
24664W        W38078   6.512   7.427  11.645 -0.1497  0.0145  0.1406
24665W        W38079   9.192   1.304  13.008 -0.1471  0.0724 -0.2389
24666W        W38080  12.077   9.869   6.006  0.3128  0.3885 -0.1116
24667W        W38081  13.550  13.482  15.923 -0.0761 -0.0504  0.2422
24668W        W38082   7.592   2.128  11.172 -0.4634  0.2709  0.0364
24669W        W38083   8.691  17.904   1.191 -0.4707 -0.1334  0.1111
24670W        W38084  10.489  12.169  13.707  0.2706 -0.0176 -0.3476
24671W        W38085  10.644   5.137  10.500 -0.3617 -0.2212 -0.1487
24672W        W38086  16.576   4.867  12.125  0.1345  0.2482 -0.2100
24673W        W38087   1.502  10.863   2.423 -0.1797 -0.2015 -0.1245
24674W        W38088   7.545  10.077   1.534  0.2008  0.0700 -0.0462
24675W        W38089   3.139   2.913  13.575 -0.0853  0.0818 -0.2215
24676W        W38090  18.132   4.162   1.172  0.3432 -0.0235  0.3517
24677W        W38091  15.220   6.056   2.655 -0.2831  0.0493 -0.2358
24678W        W38092  10.982   5.862  11.781 -0.0685 -0.0361 -0.2305
24679W        W38093   3.525   0.034   5.176 -0.2479 -0.1413 -0.0948
24680W        W38094  11.752  15.547  13.046  0.0021 -0.0074 -0.2943
24681W        W38095   0.143   5.195  14.160 -0.1349  0.3168  0.1650
24682W        W38096  17.860  11.923   2.277 -0.1835 -0.1610 -0.5612
24683W        W38097   7.954  14.426  14.761 -0.0241  0.3329  0.2462
24684W        W38098   2.159   3.208   1.771 -0.0629  0.0406 -0.0754
24685W        W38099  15.545   4.272   9.681 -0.0666  0.1478  0.0145
24686W        W38100   4.372   7.845  15.464 -0.5760 -0.2092 -0.0817
24687W        W38101  13.051   3.566  13.225  0.1310 -0.2406  0.1044
24688W        W38102   1.403   2.535   5.739  0.1907 -0.0024 -0.2780
24689W        W38103   8.341   1.500   3.571 -0.1324 -0.2442 -0.0790
24690W        W38104   4.901   0.129   6.026 -0.1148  0.0297  0.0166
24691W        W38105  15.310   9.239   4.170 -0.0370 -0.1921 -0.2232
24692W        W38106  13.347   8.708   1.444 -0.4873  0.0992  0.1122
24693W        W38107   0.118   2.523  13.519 -0.0339  0.0244 -0.0218
24694W        W38108   3.896  11.746   0.452  0.0779  0.0840 -0.0239
24695W        W38109  18.053   8.940   3.336 -0.0924 -0.0679 -0.0413
24696W        W38110   6.109   9.293   2.550  0.0772 -0.0394 -0.0215
24697W        W38111  17.712  11.633   1.243 -0.1055  0.2543 -0.4237
24698W        W38112   7.799   8.004  12.508  0.0842  0.1045  0.0383
24699W        W38113   2.580  12.599  12.120  0.0283 -0.2349 -0.3061
24700W        W38114   8.206  13.811   0.456 -0.2251 -0.0998  0.3482
24701W        W38115   8.612   4.309   0.466 -0.1458  0.0873  0.1101
24702W        W38116  13.775   6.735   0.100 -0.1169  0.2741  0.1698
24703W        W38117  13.169   7.619   2.151  0.0414 -0.0572 -0.0837
24704W        W38118   7.162  15.029  12.992 -0.2132  0.2697 -0.2106
24705W        W38119   3.958   6.369  12.747  0.1505  0.2534 -0.4134
24706W        W38120  14.781  15.369  11.482  0.2587  0.1345  0.1584
24707W        W38121   4.683   8.476   0.830 -0.1523 -0.0765 -0.0625
24708W        W38122  16.601   7.687   1.651  0.1715 -0.0245 -0.0706
24709W        W38123   6.150  16.864   0.464  0.2595 -0.0491 -0.1611
24710W        W38124  11.751  12.578  12.376 -0.0767  0.2892 -0.1900
24711W        W38125  15.723  12.240  11.240  0.0164  0.2785  0.0078
24712W        W38126   0.919   5.804  14.157  0.2083 -0.0996  0.2038
24713W        W38127   5.807  11.132  10.506 -0.0144 -0.0311 -0.0024
24714W        W38128  13.207  16.124  14.883 -0.0747  0.2012 -0.0287
24715W        W38129   2.002  17.140   6.172 -0.0418 -0.1057  0.1112
24716W        W38130  12.961  12.423   5.629 -0.0863 -0.0282  0.0480
24717W        W38131  18.202  17.665   5.586 -0.0515  0.0858 -0.2231
24718W        W38132   5.286  12.920  15.505 -0.1210  0.0243 -0.0445
24719W        W38133  15.383   5.571  13.674  0.0987 -0.1438 -0.0396
24720W        W38134  14.648  17.343  13.003  0.0905 -0.2237 -0.0494
24721W        W38135  13.092   7.288  13.062 -0.0538  0.0460 -0.1406
24722W        W38136   5.219  11.455  15.584 -0.1775  0.0505 -0.1174
24723W        W38137  14.311   5.166   4.394 -0.2617 -0.1894 -0.3380
24724W        W38138   6.102   3.467  12.645  0.2872 -0.0790  0.0241
24725W        W38139  12.673   4.756  13.556  0.1477  0.1223  0.0026
24726W        W38140   3.977  11.008  13.808 -0.1165 -0.1508  0.0676
24727W        W38141   8.227  10.933   5.478  0.1246  0.0103 -0.4890
24728W        W38142   4.106   8.471  16.075 -0.0809 -0.0800 -0.0944
24729W        W38143   8.493  13.322   1.073  0.0250  0.1231  0.2820
24730W        W38144   9.529  10.877  15.947  0.0212  0.1389  0.3086
24731W        W38145   0.580   2.410   2.878 -0.3417 -0.1892  0.2997
24732W        W38146  12.012  10.049   2.156 -0.0435 -0.3087 -0.0139
24733W        W38147   2.170  12.983  12.845 -0.1530 -0.0045 -0.2551
24734W        W38148  17.958  17.401  11.394 -0.2083  0.3715  0.0080
24735W        W38149  13.853   6.641   2.550 -0.4506 -0.3816  0.2189
24736W        W38150  12.809  15.048  15.805 -0.0574 -0.1445  0.0725
24737W        W38151   7.199  12.934   1.009  0.1281 -0.1263  0.0531
24738W        W38152   3.288  15.911   5.977  0.1249  0.1216 -0.1995
24739W        W38153  17.031  11.789  11.439  0.1665  0.3681  0.0326
24740W        W38154  13.744  15.753   4.485 -0.1596 -0.1768  0.0344
24741W        W38155  15.676   1.901  10.719 -0.0596  0.2098  0.2571
24742W        W38156  15.195   8.350   0.056  0.3436 -0.2687 -0.1625
24743W        W38157  15.026  14.759   3.489  0.1413 -0.0079  0.2743
24744W        W38158  10.674   0.116   5.148 -0.1288  0.0980 -0.2214
24745W        W38159  14.001   4.434   4.615  0.2628 -0.0185  0.2711
24746W        W38160  13.958  17.489  10.896  0.2614 -0.3679  0.1424
24747W        W38161  10.056  18.068   4.955 -0.0865 -0.1385 -0.0993
24748W        W38162   5.189  11.809  14.806  0.0951  0.2251 -0.0677
24749W        W38163   2.499  16.081  13.723 -0.1718  0.4063  0.0389
24750W        W38164  15.525  14.986  10.947 -0.3222 -0.1904 -0.1549
24751W        W38165  15.956   8.095   3.608 -0.3713 -0.3010  0.2595
24752W        W38166   4.638   3.389   0.760 -0.0197 -0.0744 -0.1463
24753W        W38167  11.935   5.764   2.232  0.1659  0.0217 -0.1012
24754W        W38168  17.698  10.730  13.708 -0.0594 -0.1483 -0.0952
24755W        W38169  16.951   6.180   3.248 -0.0023  0.2757 -0.2957
24756W        W38170  17.327  15.102  14.729  0.0183  0.4441  0.0260
24757W        W38171  17.131   9.950  14.441  0.0207 -0.0232 -0.2484
24758W        W38172   5.342   2.360  11.228 -0.0969 -0.2731  0.1865
24759W        W38173   8.265   3.574  14.280 -0.1328  0.1968  0.0963
24760W        W38174  16.834   3.949   1.015 -0.3792  0.0699 -0.0697
24761W        W38175  17.049   8.972   3.866  0.1107  0.0015  0.0378
24762W        W38176   7.902   2.171   0.031 -0.1426 -0.0062  0.1282
24763W        W38177  14.505   6.689  11.071  0.0483  0.1464  0.0811
24764W        W38178   7.282   9.818  11.019  0.0217  0.1643 -0.1104
24765W        W38179  14.559   2.732  16.306  0.1802  0.1751 -0.1812
24766W        W38180  16.667  17.309  13.630  0.2505 -0.0553 -0.0156
24767W        W38181  11.868  15.348   1.960 -0.3281  0.1322 -0.0336
24768W        W38182  10.458   3.553  13.618 -0.1013  0.0911 -0.1238
24769W        W38183   4.561  16.980   5.267  0.1149  0.0003 -0.1129
24770W        W38184  17.470  18.114  15.555 -0.1359 -0.2931 -0.3411
24771W        W38185   6.532   4.731   0.012 -0.2649  0.1344 -0.0040
24772W        W38186  13.290   7.020  16.214 -0.1622 -0.0267  0.1900
24773W        W38187  14.659   2.043  14.777 -0.3229 -0.2163  0.1012
24774W        W38188  10.808   9.325   4.761 -0.3047  0.5818  0.1488
24775W        W38189  12.628  11.738  11.419  0.1045  0.1308 -0.0384
24776W        W38190   2.595  17.145   0.544  0.2118  0.2878  0.2534
24777W        W38191  12.245   6.031   2.613  0.3022  0.1532 -0.0898
24778W        W38192  12.962  12.535   0.731  0.0599 -0.2149  0.2744
24779W        W38193   7.372  17.063   0.810 -0.0213  0.0800  0.1474
24780W        W38194   9.362   2.899   5.221 -0.0719 -0.0600 -0.0805
24781W        W38195   0.754  10.632   4.797  0.0747  0.1827 -0.0342
24782W        W38196   2.032   5.564   4.122  0.4131  0.0667  0.0617
24783W        W38197  12.621   3.844   3.597 -0.3971  0.0000  0.0563
24784W        W38198  11.904   1.226   4.677  0.0539  0.3818 -0.1167
24785W        W38199  17.147   0.753  11.023 -0.1654 -0.1274  0.3126
24786W        W38200  12.260  15.210   0.477 -0.1083 -0.1642  0.1274
24787W        W38201  14.606   0.805   2.359  0.0707 -0.0642  0.1089
24788W        W38202   7.677  10.895   5.454  0.3287 -0.0535  0.2325
24789W        W38203  16.515   0.378   0.765 -0.0395  0.1306  0.2537
24790W        W38204  13.571  16.696   4.411  0.0312 -0.1009  0.3336
24791W        W38205   8.078   2.914  10.117 -0.1825 -0.2905 -0.2565
24792W        W38206   0.797   4.498  14.527 -0.0731 -0.0031  0.2973
24793W        W38207   2.293   1.824   4.852  0.1116  0.0044 -0.1134
24794W        W38208   4.713   8.092  11.163 -0.3319  0.2132 -0.0014
24795W        W38209  16.782   3.267   4.209 -0.4734  0.0225 -0.1563
24796W        W38210  10.062  12.266   1.124  0.0161  0.1440  0.2338
24797W        W38211   3.197  12.116  10.685  0.1099 -0.0663  0.2228
24798W        W38212  17.629  11.272  13.619  0.0277  0.1820 -0.2878
24799W        W38213  16.682   4.601   3.350 -0.0792  0.0032 -0.0834
24800W        W38214  14.070  11.891   2.964 -0.0106  0.0345  0.2093
24801W        W38215  15.197  15.114  11.298 -0.0146 -0.2451 -0.0767
24802W        W38216   1.407  12.195  10.571 -0.0414  0.0529 -0.0098
24803W        W38217   2.993   6.682   4.324 -0.0257  0.0870  0.0691
24804W        W38218   8.254   4.694   0.831  0.4028  0.2398 -0.2574
24805W        W38219   4.935  10.689  11.346 -0.1357 -0.0658 -0.2222
24806W        W38220   9.377   8.297  14.642 -0.5540  0.3713  0.1413
24807W        W38221   1.976  10.610   0.649  0.0415  0.0165 -0.1799
24808W        W38222  16.405  13.865  12.434 -0.0376  0.3799 -0.0808
24809W        W38223   5.768  14.518  11.313 -0.0536 -0.0541 -0.4758
24810W        W38224   7.777  10.771  15.945 -0.1475 -0.0765 -0.1757
24811W        W38225   6.310   6.517   3.752 -0.0264 -0.1408  0.0960
24812W        W38226   7.774   9.051   1.067 -0.0264 -0.0203  0.1651
24813W        W38227  16.357  17.854  13.375 -0.1492  0.4174 -0.1444
24814W        W38228   6.923   3.990  13.587 -0.2591  0.2813  0.1723
24815W        W38229   2.732   8.644   2.842  0.0037  0.0354  0.0708
24816W        W38230  15.129   4.626   2.898  0.1845  0.1373 -0.2371
24817W        W38231  15.947  12.981   3.775 -0.1502  0.2658 -0.1402
24818W        W38232   8.201  18.140   1.468 -0.0178 -0.2553  0.0128
24819W        W38233  14.722   1.474  12.750  0.0220 -0.0830 -0.1550
24820W        W38234   0.375  11.198   0.312 -0.0670  0.3624 -0.4126
24821W        W38235   8.923   0.405  11.296  0.1564  0.4607  0.0551
24822W        W38236  13.177   5.173   2.934  0.1772 -0.1514 -0.1469
24823W        W38237  14.292  15.550   2.157 -0.1505 -0.1136  0.1213
24824W        W38238   5.277   3.731  10.847  0.0800  0.1662 -0.1286
24825W        W38239  15.280   2.706   2.670  0.1373 -0.0264  0.4424
24826W        W38240  12.529   5.748  13.393  0.1857  0.0635  0.2275
24827W        W38241   2.378  16.908  16.050  0.1377  0.1933 -0.1278
24828W        W38242   4.662   8.277  10.421 -0.2372  0.0510 -0.3432
24829W        W38243  15.539  12.991   1.522  0.0963 -0.0081 -0.1590
24830W        W38244   5.897   2.458   2.639 -0.1193 -0.2118  0.2017
24831W        W38245  16.046   1.566  10.813 -0.0856 -0.1221 -0.1128
24832W        W38246   4.920  17.152   3.771 -0.0283  0.0150 -0.0314
24833W        W38247  17.623  11.734   0.311  0.1006 -0.1211  0.0938
24834W        W38248   8.463   4.350  16.456  0.1163 -0.1282 -0.1963
24835W        W38249   4.033  12.044  11.793 -0.0990  0.0527 -0.1339
24836W        W38250   9.062   9.226  13.422 -0.4573  0.0863  0.0146
24837W        W38251  10.148  16.469  12.830  0.1568  0.1203  0.1808
24838W        W38252   8.724  15.833   1.333 -0.1044 -0.1136 -0.2410
24839W        W38253   0.558   9.064   1.912 -0.3126 -0.5159  0.1477
24840W        W38254  15.300  10.257  16.066  0.0085  0.3249  0.3416
24841W        W38255   3.727   8.340   1.094 -0.0323 -0.0260 -0.0647
24842W        W38256   7.378  13.790   1.124  0.1951 -0.1825  0.1164
24843W        W38257   8.790   2.060  16.167  0.0453 -0.1176  0.2737
24844W        W38258  17.820   7.565   6.016 -0.2692  0.2298  0.2519
24845W        W38259   1.629   4.265  12.431 -0.2569 -0.0878  0.1683
24846W        W38260  10.796   3.698  15.530  0.1510  0.1903  0.1748
24847W        W38261  17.330   9.095   6.204  0.3437  0.0820 -0.2356
24848W        W38262   8.759  16.633  12.211 -0.2137  0.0640  0.0923
24849W        W38263   5.002   4.615   5.174 -0.0654  0.4546  0.1211
24850W        W38264   1.310  12.486   1.933 -0.4173 -0.2854 -0.0865
24851W        W38265   2.178   6.799   6.534  0.1676 -0.0205  0.0165
24852W        W38266  10.834   6.743   4.114  0.2130 -0.1059  0.2300
24853W        W38267  17.197   2.401   3.565 -0.0770  0.1924 -0.2189
24854W        W38268   9.668   0.017   5.194  0.0541 -0.2338 -0.2990
24855W        W38269  15.792   5.469   0.478 -0.0969  0.0644  0.0911
24856W        W38270   4.411  16.949   1.318 -0.1186 -0.1142 -0.0690
24857W        W38271  15.105   4.447  15.209 -0.0438 -0.1356  0.1005
24858W        W38272   9.084   7.337  12.969  0.0338  0.4451  0.1084
24859W        W38273   6.426   3.142   4.547 -0.2525 -0.0610  0.3501
24860W        W38274   4.624   2.105   2.458  0.0853  0.0486  0.2846
24861W        W38275   9.565   9.513   1.887  0.1067  0.5527  0.1216
24862W        W38276  17.739  13.477  15.383  0.2750  0.0948 -0.1030
24863W        W38277  10.994  14.935  13.946  0.0353 -0.2895  0.0446
24864W        W38278   6.049   0.068   1.008 -0.2201  0.0231 -0.0394
24865W        W38279   5.627   3.956  14.597 -0.2517  0.0833  0.0210
24866W        W38280   3.141   1.039   3.567 -0.1572  0.4627 -0.0614
24867W        W38281   1.343  15.965   4.018 -0.0635  0.1861  0.1488
24868W        W38282  17.268  17.508  12.322 -0.1415  0.0722  0.3633
24869W        W38283   7.516   5.386   3.855 -0.1466 -0.1633 -0.1295
24870W        W38284  12.836   6.688  14.967 -0.1745  0.1918  0.2671
24871W        W38285  15.146  14.420   4.306 -0.2546  0.1070  0.0544
24872W        W38286   0.072   7.478  14.546  0.1450 -0.1042  0.1550
24873W        W38287   7.378  13.465  12.458  0.0902 -0.0334 -0.0011
24874W        W38288   1.317  11.014  16.440  0.0505  0.1606 -0.0023
24875W        W38289  16.988   6.992  11.174 -0.1711  0.1903 -0.2969
24876W        W38290  14.425   2.319   2.592 -0.0096  0.0027  0.2458
24877W        W38291   3.498   5.972   3.919 -0.1538  0.1864  0.4456
24878W        W38292   9.313  14.832   1.921 -0.1098 -0.2283  0.2650
24879W        W38293   3.028  10.972   1.537  0.1612 -0.4154  0.3962
24880W        W38294   7.579   3.707  14.277 -0.0284 -0.1989 -0.0309
24881W        W38295   7.347  15.572   3.623  0.2233 -0.1640 -0.3087
24882W        W38296   6.077   8.438  11.936 -0.3059 -0.3808 -0.0434
24883W        W38297  13.067   9.205  10.035 -0.0831  0.0864 -0.0061
24884W        W38298   3.153  10.659   4.561  0.2220  0.0797 -0.2242
24885W        W38299  10.381  11.381  13.743  0.0068 -0.0904  0.2419
24886W        W38300  13.371  13.375   2.865 -0.3765 -0.1966  0.1248
24887W        W38301  18.094   4.840   4.975  0.0030  0.1145 -0.3179
24888W        W38302  11.428  15.652  10.810 -0.0532  0.1752 -0.2981
24889W        W38303   6.892  14.527  14.000 -0.2339 -0.1695  0.1048
24890W        W38304  10.079   6.301  16.268 -0.2370  0.0063  0.1838
24891W        W38305   1.086   0.475  15.815  0.1497 -0.0041  0.0644
24892W        W38306   0.555  13.525   2.836 -0.1125  0.2331 -0.5054
24893W        W38307   5.433   6.398  13.730 -0.3070  0.3421  0.2082
24894W        W38308  12.309   9.306  12.482 -0.4103 -0.0459  0.1467
24895W        W38309  10.023   8.890  11.008 -0.1708 -0.0196 -0.2564
24896W        W38310  11.081  18.026   2.104 -0.2746 -0.0860  0.0541
24897W        W38311   4.379   1.474   5.405 -0.1412 -0.0160 -0.0373
24898W        W38312  11.666  15.605   0.843 -0.1300  0.3632 -0.0403
24899W        W38313   5.918  10.637   2.508 -0.3222 -0.1929 -0.0871
24900W        W38314  11.666   5.182  11.986  0.1862 -0.2444 -0.0621
24901W        W38315   5.979  16.362   2.507  0.0220 -0.1374  0.1203
24902W        W38316   8.298   5.655   2.298  0.2545  0.0742  0.1923
24903W        W38317   3.042  11.357  14.453 -0.0629 -0.1176  0.2148
24904W        W38318  15.231  11.359   4.757  0.2056 -0.1231 -0.0539
24905W        W38319  13.166   3.939   4.944 -0.0643 -0.0536 -0.3334
24906W        W38320   7.891  17.283   4.087 -0.0225 -0.1664  0.1332
24907W        W38321   2.731  12.845   2.978 -0.2126  0.0868  0.0310
24908W        W38322  16.414   2.954  14.906  0.0883 -0.1846 -0.1141
24909W        W38323  14.397  14.607   1.067 -0.0351  0.1101 -0.0599
24910W        W38324   4.878   2.300  13.719 -0.0160  0.1627 -0.0598
24911W        W38325  17.922   0.639  15.388  0.3029  0.0371 -0.1190
24912W        W38326   0.900  17.210  16.472 -0.0084  0.0472 -0.1969
24913W        W38327  17.480   9.654  14.730 -0.2134 -0.0241  0.0109
24914W        W38328  12.235   7.444   3.525 -0.0017  0.1916 -0.1744
24915W        W38329   3.092   7.491  12.901  0.0177  0.2067 -0.2358
24916W        W38330  10.269   6.111  15.308 -0.1360 -0.3783 -0.4040
24917W        W38331  12.491  13.109   4.622 -0.0619  0.3282 -0.1469
24918W        W38332   9.638  16.681  10.630 -0.1395  0.2034  0.0022
24919W        W38333   5.806   9.705   5.542  0.2651  0.0475 -0.1621
24920W        W38334  14.561   3.225  13.673 -0.1083 -0.0952 -0.0672
24921W        W38335   1.017  15.467   4.998  0.1358 -0.1268 -0.0730
24922W        W38336   7.110  15.037  13.999  0.2534 -0.2127  0.1086
24923W        W38337   7.401   2.958   5.900  0.0273  0.1556  0.1218
24924W        W38338  10.782   9.361   2.725 -0.2440  0.0364 -0.0702
24925W        W38339   6.719  13.676   4.802 -0.0862 -0.1757 -0.2571
24926W        W38340   7.456   8.340  13.400  0.0025 -0.0728  0.0146
24927W        W38341   2.905  12.551   2.117  0.0510  0.0643  0.0610
24928W        W38342   0.781  16.541   4.381  0.1953 -0.0854 -0.0703
24929W        W38343   4.422  11.728   3.179 -0.1582  0.0162 -0.0286
24930W        W38344   3.194  13.153  11.895 -0.1098 -0.0329 -0.1199
24931W        W38345  10.517   3.791  15.947  0.0997  0.1373 -0.0370
24932W        W38346  12.681  12.391  12.706 -0.0013  0.1510  0.3352
24933W        W38347   9.514   8.651  15.590 -0.0668 -0.0338 -0.3946
24934W        W38348  11.676  10.824  14.131 -0.0338  0.0738 -0.2249
24935W        W38349   3.587  17.166   5.623  0.1880 -0.3368 -0.1404
24936W        W38350   7.629   7.008  13.199  0.0393 -0.1469  0.1627
24937W        W38351   2.532   4.892  10.137  0.1818 -0.1173  0.2184
24938W        W38352  12.010  14.113  14.074 -0.0287  0.1287  0.0951
24939W        W38353   5.524  11.578   2.970 -0.2504  0.1940  0.2465
24940W        W38354   4.333  17.461  11.776 -0.2719 -0.0905 -0.0330
24941W        W38355   0.845  15.811  11.058 -0.0764 -0.1699  0.3245
24942W        W38356  11.851   4.126   4.980  0.0446 -0.1307  0.1048
24943W        W38357  16.964  16.411  10.811  0.1653  0.2216  0.1408
24944W        W38358   0.734  12.320  15.157  0.3206 -0.1070  0.2775
24945W        W38359  11.249  14.654   2.218  0.0131 -0.3236 -0.0890
24946W        W38360   0.910   9.331   0.983  0.0520 -0.1741  0.0165
24947W        W38361  14.285  10.220   3.721 -0.2712 -0.0960 -0.3215
24948W        W38362   2.041  17.545  13.042  0.3945 -0.2732 -0.0451
24949W        W38363  12.771   7.040  16.489 -0.0950  0.2128  0.0492
24950W        W38364   5.093   0.558   2.632 -0.1077  0.1212 -0.1928
24951W        W38365   8.560  13.301   4.253  0.1074  0.0816 -0.2099
24952W        W38366   5.112   7.186   1.390  0.1877  0.0195  0.1687
24953W        W38367   3.105  11.904  15.233 -0.3887 -0.1010  0.0608
24954W        W38368   8.173   9.588  12.665  0.0838 -0.0331 -0.0903
24955W        W38369  14.238   2.998  12.917  0.0266  0.0713 -0.0911
24956W        W38370   7.429   6.696   3.875 -0.3532  0.2443 -0.1683
24957W        W38371  11.306  14.721  16.271 -0.2367 -0.1274  0.1001
24958W        W38372   7.039   2.420   1.701  0.0137 -0.0099 -0.0996
24959W        W38373  14.217  12.003  12.653  0.1524 -0.2129  0.0388
24960W        W38374  10.106   1.485   4.843 -0.2161 -0.1577 -0.0853
24961W        W38375   9.198   2.818  15.296 -0.2409 -0.0053  0.0884
24962W        W38376  17.400  11.659   2.644  0.1278 -0.0794 -0.2170
24963W        W38377  17.151  12.281  11.551  0.1298  0.1852  0.1686
24964W        W38378   5.173   3.145  15.042 -0.0292  0.2096 -0.0636
24965W        W38379   4.886  16.575   1.910  0.1264  0.2061  0.4516
24966W        W38380   6.206  17.197   2.936 -0.1761 -0.0994  0.0881
24967W        W38381  16.433  12.277  12.079  0.1453  0.1892 -0.0599
24968W        W38382  10.434   6.649   3.388  0.3853 -0.0338 -0.2952
24969W        W38383   8.470   9.544   5.724 -0.1767 -0.0328  0.1984
24970W        W38384  11.235  17.752   3.117 -0.1380 -0.3767  0.0438
24971W        W38385   9.508  11.657   0.234 -0.0935 -0.0804  0.0490
24972W        W38386   7.363  11.725  11.330  0.0646  0.0091 -0.0966
24973W        W38387  15.710   0.478  10.533  0.1181  0.1515 -0.0573
24974W        W38388   2.686   2.547   2.040 -0.0111  0.1295 -0.1160
24975W        W38389   1.167   7.575   0.893  0.1052 -0.0474  0.5190
24976W        W38390   7.449  16.473  12.744  0.0992  0.2579  0.2030
24977W        W38391   2.847  16.980  11.276 -0.0777 -0.0852  0.0222
24978W        W38392   8.441  14.597  12.376 -0.0369  0.1806 -0.2350
24979W        W38393  14.149   1.461   1.476  0.0028  0.2429 -0.0425
24980W        W38394  15.614  14.378   1.759  0.1377 -0.1625 -0.0465
24981W        W38395   2.691   6.159  12.079  0.3205  0.1887 -0.0602
24982W        W38396   6.366   4.036   6.021  0.0366 -0.0417  0.2028
24983W        W38397  11.928  13.968  11.186  0.1982  0.0302 -0.0235
24984W        W38398   6.581  11.110  11.328 -0.0775 -0.1872 -0.1232
24985W        W38399   1.072  15.607   3.584 -0.2022 -0.5638  0.1389
24986W        W38400  10.012  17.550  11.837  0.0036 -0.0262 -0.1740
24987W        W38401   7.779   2.354   0.513 -0.1802 -0.0729 -0.1194
24988W        W38402  15.716  12.124  16.008 -0.1744  0.0924  0.4305
24989W        W38403  14.312  11.641  14.915 -0.2277  0.2495  0.1486
24990W        W38404  13.240   9.345  14.857  0.0831  0.0743  0.0190
24991W        W38405   1.659   9.576   3.671  0.2469  0.0944  0.0534
24992W        W38406  11.869   7.069  11.295  0.1066  0.0486  0.0836
24993W        W38407   3.806   7.029  10.807  0.1341 -0.0680 -0.2010
24994W        W38408   1.727  10.462   2.210 -0.3601  0.0779  0.4774
24995W        W38409  13.656  13.241  11.346 -0.1499 -0.0289  0.0459
24996W        W38410   3.972   4.234  14.826  0.1120  0.1139  0.1303
24997W        W38411  16.455   8.269   3.696 -0.0434  0.0495  0.0763
24998W        W38412   5.358  17.832  10.790 -0.1934 -0.0570  0.0650
24999W        W38413   8.449  14.221  14.764  0.2970 -0.2723  0.0796
25000W        W38414   4.427  17.830   3.210  0.2025 -0.1330 -0.0738
25001W        W38415   6.818  16.462   9.940 -0.2918  0.0227 -0.2459
25002W        W38416   7.462   5.303   2.264 -0.0586 -0.1787  0.1877
25003W        W38417   1.133   1.117  14.211  0.1515  0.0059 -0.2113
25004W        W38418  10.229  14.742   3.831 -0.2624  0.2445 -0.2193
25005W        W38419   6.809  15.639   3.641 -0.2057 -0.0202  0.2487
25006W        W38420   0.033  16.888   1.984 -0.0038  0.0868 -0.3577
25007W        W38421   4.035  13.662  15.158  0.1851  0.2373 -0.0538
25008W        W38422  11.965  17.553   5.524  0.0796  0.1519  0.1134
25009W        W38423   6.949  13.771   0.810 -0.0949 -0.0851  0.3456
25010W        W38424  13.364   8.625   0.111 -0.0373  0.1739 -0.0646
25011W        W38425  11.921   4.309  12.905 -0.3070 -0.1596 -0.0214
25012W        W38426   2.930  17.089   3.558 -0.1464 -0.0164  0.0299
25013W        W38427   0.375   1.477  15.492 -0.1662  0.0532  0.1339
25014W        W38428  15.624   5.770   3.465  0.1515  0.1596 -0.2062
25015W        W38429  11.295   9.523  15.167 -0.1809  0.1002  0.0079
25016W        W38430  10.399  17.882   5.259 -0.3358  0.1173 -0.2562
25017W        W38431  17.926  12.816   0.569 -0.0756 -0.1788 -0.1804
25018W        W38432   1.327   0.888  15.914  0.0853 -0.2078 -0.3135
25019W        W38433  15.122   7.315  13.961  0.2235  0.0445 -0.1086
25020W        W38434   2.045   4.758  13.184  0.1052 -0.1061  0.1138
25021W        W38435  18.213  12.343  13.902  0.4611 -0.0335 -0.0440
25022W        W38436   0.386   2.966  13.173  0.0414 -0.0399 -0.0759
25023W        W38437   3.911   5.981  14.747 -0.0857  0.1919  0.0871
25024W        W38438  12.286   9.417   2.456 -0.0437  0.0631 -0.0792
25025W        W38439  17.295  11.852   2.201 -0.1860  0.2125  0.1944
25026W        W38440  13.776   8.462   0.469  0.2412  0.1685 -0.0586
25027W        W38441   4.227  17.403   5.079 -0.2789 -0.0679  0.1056
25028W        W38442  13.103   2.730  16.040  0.0517 -0.0512 -0.1434
25029W        W38443  13.318  13.055   1.580 -0.2920 -0.1618 -0.0541
25030W        W38444  14.763  11.336  15.775 -0.4963  0.1635  0.0453
25031W        W38445   8.616   8.032  11.110  0.1093  0.3060 -0.0326
25032W        W38446  10.626   6.694   1.549  0.1599  0.2690  0.4453
25033W        W38447  17.683  10.991   3.820 -0.1414  0.1029  0.0697
25034W        W38448   2.958   4.434   1.542 -0.0009  0.2157 -0.1903
25035W        W38449  15.352   0.713  10.744 -0.1156 -0.0543  0.0093
25036W        W38450   7.127  16.789   3.025 -0.1367 -0.0703  0.1198
25037W        W38451   7.367  13.245  15.908  0.1282 -0.0962 -0.0103
25038W        W38452  14.709   0.692   2.855 -0.3470 -0.2232 -0.0470
25039W        W38453  10.171  15.290  15.690  0.1327 -0.0028  0.1799
25040W        W38454  11.471   7.221   4.137 -0.3694 -0.3555  0.1533
25041W        W38455  14.530  12.073   0.161 -0.0489 -0.0563  0.2316
25042W        W38456   9.332   5.287   5.077 -0.2403  0.0327  0.4063
25043W        W38457   5.880   7.868  12.404  0.2085 -0.2889  0.1408
25044W        W38458  15.522   0.266  12.814 -0.1278  0.0769 -0.1260
25045W        W38459   1.890   6.994  15.658 -0.0306  0.0895  0.2720
25046W        W38460   1.798   6.640   2.362  0.1580 -0.0263  0.0549
25047W        W38461   9.759  10.039  11.987  0.1479 -0.3292  0.0691
25048W        W38462  15.221   0.115   5.506  0.0749 -0.0780 -0.0766
25049W        W38463  13.740   7.344  10.877 -0.2324 -0.0469  0.1383
25050W        W38464   5.644  18.212  14.678 -0.0511  0.0386 -0.2037
25051W        W38465  10.311   6.304  11.797 -0.1511  0.1504  0.0292
25052W        W38466   6.802   1.091  15.335 -0.1057  0.1389  0.2052
25053W        W38467   9.760   0.868  12.827  0.2420 -0.1803 -0.2908
25054W        W38468  15.909   9.791  13.358  0.3417  0.1073  0.2687
25055W        W38469   8.940  13.495   2.477  0.3164 -0.0188 -0.4617
25056W        W38470   7.745  12.787   5.091  0.1347  0.2337  0.1433
25057W        W38471   7.160   9.663  10.509 -0.1297  0.1303 -0.0373
25058W        W38472  10.062   2.502  14.764  0.2415 -0.1617 -0.0555
25059W        W38473   8.126   6.863   1.014  0.1387  0.1064 -0.1694
25060W        W38474  16.402   9.611   3.388  0.4188 -0.3636 -0.1187
25061W        W38475   5.100  14.662  16.103 -0.0346  0.4179 -0.2200
25062W        W38476  11.837  16.610   5.565 -0.1826 -0.1710 -0.1007
25063W        W38477   3.658  15.846  15.099 -0.2629 -0.2606  0.0077
25064W        W38478   5.863  12.588   3.122 -0.0329  0.0268  0.0823
25065W        W38479   3.901  14.018  14.826  0.3631  0.0413 -0.2165
25066W        W38480   7.724   3.385   5.385  0.2303 -0.1204  0.1170
25067W        W38481   9.040  14.832  16.149 -0.0904  0.2400 -0.0395
25068W        W38482   1.967  15.193  16.311  0.5121 -0.0138  0.1222
25069W        W38483   7.313   6.564   5.092  0.1541  0.0995 -0.2511
25070W        W38484   3.082   3.435   1.561 -0.0379  0.1685 -0.1920
25071W        W38485  16.282   3.977  14.310 -0.4138  0.0709  0.0523
25072W        W38486  10.727  12.623  14.689  0.0207 -0.0453 -0.0892
25073W        W38487   1.974  13.651   3.476 -0.1659  0.2333  0.2396
25074W        W38488  10.310   6.699  14.928 -0.4024  0.0189 -0.3138
25075W        W38489  18.116   9.542  12.082  0.0187  0.0840 -0.2353
25076W        W38490   2.010  13.326  15.992  0.1019 -0.1554  0.1149
25077W        W38491  14.275  10.987   4.279 -0.1353 -0.0586 -0.1203
25078W        W38492   0.630  13.546   1.387  0.0220 -0.0449 -0.0895
25079W        W38493   1.236  13.522   5.053  0.3017 -0.0152  0.1733
25080W        W38494  13.953   6.643  11.536 -0.0912  0.1877  0.2454
25081W        W38495   8.983   8.372  13.041 -0.0644  0.1961  0.0411
25082W        W38496   2.957   1.209  13.853 -0.2955  0.2176 -0.0559
25083W        W38497  12.893  16.553  12.209  0.0940 -0.0762  0.0419
25084W        W38498   9.144  15.274  12.573 -0.3274 -0.0579 -0.3171
25085W        W38499   9.593  17.476  11.417 -0.1430  0.0855 -0.2943
25086W        W38500  10.144   1.056  10.988 -0.0849 -0.0190 -0.1572
25087W        W38501   2.861   4.769   5.805  0.0319 -0.1872  0.1950
25088W        W38502  15.801   8.608  15.373 -0.2184 -0.0162 -0.2409
25089W        W38503  15.164   4.155   2.708 -0.0218  0.1185 -0.3008
25090W        W38504   4.947  10.027   4.479 -0.0029 -0.1561  0.2763
25091W        W38505   2.276  15.447  13.264  0.0166 -0.1462 -0.1109
25092W        W38506  14.073   3.177  11.068  0.0051 -0.0154  0.0069
25093W        W38507   1.089   3.411   0.162 -0.1936 -0.1358  0.2563
25094W        W38508  12.388   2.577   2.977 -0.0293  0.1416 -0.1448
25095W        W38509  18.068  15.624  15.967  0.1015  0.0008  0.0375
25096W        W38510  17.703  10.251  13.838  0.2555 -0.1853 -0.1528
25097W        W38511  13.830   2.742  13.699  0.0915  0.1564 -0.0106
25098W        W38512   6.672  11.929  12.852  0.0341 -0.3174  0.0428
25099W        W38513  10.299   3.874  11.812 -0.0371  0.0360 -0.1128
25100W        W38514   1.892  15.767  10.672  0.0250 -0.2553  0.3127
25101W        W38515   0.564  13.905   5.299  0.0702 -0.1168  0.1699
25102W        W38516   6.902   4.305  15.742  0.0243 -0.0999 -0.2246
25103W        W38517  14.623   9.653  11.103 -0.0296 -0.1902 -0.3729
25104W        W38518   2.224  17.345  13.439  0.2336 -0.1939 -0.1815
25105W        W38519  11.337   4.832  15.044 -0.0793 -0.0174 -0.1138
25106W        W38520   6.240   9.516  11.625  0.1694  0.2772  0.0982
25107W        W38521   6.827  12.893   0.276 -0.1812 -0.3227  0.1072
25108W        W38522   2.317   1.464  15.145 -0.2480  0.2091 -0.0685
25109W        W38523   1.630   6.133   2.433 -0.1657  0.3228  0.0821
25110W        W38524  13.061   1.041   0.519  0.0882 -0.0710  0.2722
25111W        W38525  12.032   8.315   1.680  0.0292 -0.0127  0.1457
25112W        W38526  10.768   7.989   1.789 -0.1035  0.0805  0.0943
25113W        W38527  11.876   2.551   2.188  0.4583 -0.1006  0.3441
25114W        W38528  10.811   9.695  10.939  0.0577  0.5225 -0.0601
25115W        W38529   0.733   6.237   4.333 -0.0141 -0.2134 -0.1641
25116W        W38530   2.359   7.519   5.916  0.1059 -0.0443 -0.2164
25117W        W38531  11.075   8.384   1.717 -0.0670 -0.1517 -0.0255
25118W        W38532  12.089  10.019  13.637  0.3602  0.1380  0.1160
25119W        W38533   9.540   5.530   1.176 -0.0955 -0.0259  0.1787
25120W        W38534   3.651   5.651  14.360  0.1519  0.2328  0.2250
25121W        W38535  11.346  17.449  16.072 -0.1974  0.1421  0.3002
25122W        W38536  11.059  15.525  11.187 -0.0102  0.3221  0.1119
25123W        W38537   0.263   9.411  12.859  0.0046 -0.0134 -0.0377
25124W        W38538  16.818   1.143   5.706 -0.0985 -0.0954  0.0831
25125W        W38539  15.941   3.453  13.595 -0.2429  0.0593 -0.0478
25126W        W38540   3.780  15.889  11.440 -0.2122  0.4037  0.0253
25127W        W38541   9.718   9.016  16.495  0.0051 -0.0529  0.0298
25128W        W38542  13.329   9.790   3.204 -0.0322 -0.0137  0.0355
25129W        W38543   0.976   1.367  15.935 -0.1667 -0.2487  0.3538
25130W        W38544  17.780  15.367   2.633  0.1076 -0.0453 -0.3235
25131W        W38545  12.312   7.164   3.115 -0.3403 -0.1602 -0.2164
25132W        W38546   3.963  14.161  12.200 -0.1451  0.2503 -0.1640
25133W        W38547   2.484   6.049   4.825  0.0817  0.0345  0.2377
25134W        W38548   6.313   8.611  13.148 -0.1244 -0.2872  0.1501
25135W        W38549   2.979  14.742  13.414  0.0330 -0.0648 -0.0753
25136W        W38550  14.503   3.742  10.551 -0.0914  0.2735  0.0003
25137W        W38551  11.074   3.607   3.532 -0.1520 -0.2251  0.4922
25138W        W38552  12.106  12.000  14.888  0.3331 -0.1775  0.0189
25139W        W38553   6.481  14.137  10.189 -0.3599 -0.4353  0.0467
25140W        W38554   8.245   3.843   4.089  0.2756 -0.0906 -0.0713
25141W        W38555  12.648  11.759  13.177 -0.3616 -0.2262  0.1613
25142W        W38556   6.309  11.114   1.862  0.0955 -0.0564 -0.0986
25143W        W38557   8.513   2.939   3.766 -0.2031 -0.0246  0.1435
25144W        W38558   4.476   4.351  14.797  0.0668 -0.1362  0.1657
25145W        W38559  12.101  17.526   9.596  0.0192  0.0167 -0.1354
25146W        W38560  11.091   6.580   2.437 -0.0339 -0.3441 -0.0234
25147W        W38561  14.125   5.718  13.197  0.2473  0.3184  0.2478
25148W        W38562  12.194  16.141  12.394  0.2135 -0.0283  0.0091
25149W        W38563  14.996  16.586  15.019  0.1921 -0.2731 -0.3314
25150W        W38564  10.761   6.438  12.026  0.2156  0.0485  0.2231
25151W        W38565   4.642   3.068   1.629  0.1312 -0.3292 -0.1547
25152W        W38566   1.593   7.496  14.205 -0.1230 -0.1237 -0.0294
25153W        W38567   9.356  10.626   0.916 -0.1255 -0.1736 -0.1351
25154W        W38568   2.955   0.982  10.268 -0.0353 -0.3905 -0.0694
25155W        W38569  11.731  12.198  13.352  0.2381 -0.1642  0.0721
25156W        W38570  16.251  15.444   0.816  0.1802  0.0722  0.0938
25157W        W38571  13.515   1.545  14.681  0.2474  0.2799 -0.0598
25158W        W38572   3.344   0.684  15.912 -0.1679  0.0935  0.0549
25159W        W38573   1.879   9.930  14.991  0.0439 -0.0266 -0.2077
25160W        W38574   8.745  14.329  13.192 -0.0991  0.2076 -0.5937
25161W        W38575   3.245   1.913   0.166  0.3255 -0.2951  0.1538
25162W        W38576  18.069   8.670  12.925  0.1012 -0.1107  0.3991
25163W        W38577  13.643  13.203   5.025  0.1138 -0.1412 -0.0979
25164W        W38578   0.501   0.405  11.821  0.1403 -0.0667 -0.1460
25165W        W38579   8.883  11.046   1.618  0.0373 -0.1571  0.1638
25166W        W38580  13.309   0.680   5.145  0.0570  0.3641 -0.0054
25167W        W38581   3.442  14.679   1.532 -0.2204 -0.0286 -0.3186
25168W        W38582   5.728   5.183   4.907  0.2080 -0.1757 -0.0315
25169W        W38583   8.208  13.313   0.453 -0.2814  0.4561 -0.2506
25170W        W38584   0.548   4.497   3.855  0.0425 -0.0822  0.0203
25171W        W38585  16.168   5.485  15.329 -0.0962  0.0570  0.3385
25172W        W38586  10.441   4.645   5.192 -0.1647 -0.0287  0.2720
25173W        W38587  14.256   1.354   3.274 -0.0770 -0.5280 -0.0152
25174W        W38588   8.432  11.969   5.522  0.0726 -0.2429  0.4383
25175W        W38589   3.551  13.398  14.149  0.1681  0.3542  0.3136
25176W        W38590  11.597  16.674  14.424  0.1516  0.0395  0.0261
25177W        W38591   1.099   8.340  15.123  0.0663 -0.0679  0.3049
25178W        W38592   9.429   2.988  10.645  0.4955  0.1879 -0.1205
25179W        W38593   3.546   9.606  13.507  0.1575 -0.2848 -0.1276
25180W        W38594   3.113  16.971   5.596 -0.2007  0.1497 -0.0569
25181W        W38595  10.241   4.171  14.479 -0.1415 -0.2317  0.3255
25182W        W38596   9.067   7.335   0.967 -0.1844  0.1272 -0.0762
25183W        W38597   1.234   5.543  16.237 -0.2325 -0.1189 -0.0245
25184W        W38598  17.694  11.563   1.992 -0.0244 -0.1213 -0.2009
25185W        W38599  15.932   0.606  12.661  0.2200 -0.0057 -0.0886
25186W        W38600  14.527   2.938  10.806  0.3245  0.1605  0.0930
25187W        W38601   8.015  14.047   1.705  0.3074 -0.0274  0.0736
25188W        W38602   3.117  10.541   5.470  0.2461 -0.1893  0.0845
25189W        W38603  17.347  13.164  16.284  0.1916 -0.0267  0.1457
25190W        W38604   2.254   3.857  16.230  0.2038 -0.2500  0.3025
25191W        W38605  12.642  15.455   5.495 -0.2639  0.2193 -0.1953
25192W        W38606   1.213  14.972  12.902 -0.1261 -0.1125 -0.0216
25193W        W38607  17.060   8.810   4.440  0.3638 -0.2881 -0.1419
25194W        W38608   5.697   1.704   3.963  0.0646  0.0163 -0.0093
25195W        W38609   2.348   5.591   4.683 -0.1745  0.3305 -0.4261
25196W        W38610  18.085  15.061  11.676  0.1749 -0.2163  0.0942
25197W        W38611   6.383   7.943   4.021  0.3645 -0.1729 -0.1949
25198W        W38612   5.691  14.217   4.928  0.0786  0.0036  0.1297
25199W        W38613   7.083  16.852   1.211  0.0519 -0.0299  0.0415
25200W        W38614   0.824   0.734  11.657  0.1382 -0.0622 -0.2589
25201W        W38615  16.368   1.845  14.412  0.2110  0.2046  0.3226
25202W        W38616   0.255   4.781  16.059  0.2334  0.2522  0.0579
25203W        W38617   3.134  17.945   3.509  0.0252 -0.1504  0.1323
25204W        W38618  13.933   3.065   0.024 -0.1673 -0.4605  0.0316
25205W        W38619   4.256  10.466   1.966  0.0064  0.0310  0.2417
25206W        W38620   1.564   3.548   4.536  0.0254 -0.2013 -0.0230
25207W        W38621   8.163  10.456  16.044 -0.0632  0.2150  0.0155
25208W        W38622   6.139   0.500   5.015 -0.3399  0.0871  0.0487
25209W        W38623  16.769   5.779  11.992  0.0569 -0.0717 -0.0750
25210W        W38624  13.559   6.933  15.760 -0.2238 -0.1912  0.0076
25211W        W38625   5.260  14.975  14.904 -0.0393  0.1515 -0.0404
25212W        W38626  15.196   8.694   1.643 -0.0087 -0.0900  0.0260
25213W        W38627   4.271   2.557   2.826  0.0644  0.0167 -0.0748
25214W        W38628   6.845  10.450   2.105 -0.4347  0.0739  0.2429
25215W        W38629   5.579   6.827  16.373 -0.3896  0.3745 -0.0703
25216W        W38630  10.222   7.739   1.491  0.0883 -0.1336  0.1757
25217W        W38631   3.354  17.326   4.689  0.0916  0.0315  0.1447
25218W        W38632   1.340  15.356  12.052  0.1289 -0.0026 -0.0618
25219W        W38633   5.349   1.752   1.324  0.0811 -0.1867 -0.2067
25220W        W38634   2.660   4.892   1.369  0.1954 -0.2226  0.1312
25221W        W38635   8.057   2.498  15.849 -0.3514  0.1069 -0.0105
25222W        W38636  15.142   8.607   4.965 -0.2091  0.0595 -0.2097
25223W        W38637  13.930   7.164   3.325 -0.4247  0.2243  0.0569
25224W        W38638  10.942   8.349   3.723  0.0361 -0.0775 -0.0657
25225W        W38639  13.442   0.567   2.665 -0.1151 -0.4288  0.2861
25226W        W38640   2.875  12.282  15.018 -0.1588  0.3136 -0.3560
25227W        W38641   2.993  15.217   0.834  0.0688 -0.1120 -0.2054
25228W        W38642  18.216   6.206   4.638  0.0645 -0.2755  0.0398
25229W        W38643  17.811  12.600   2.633 -0.3957 -0.0652 -0.5758
25230W        W38644   1.503   9.789   4.669 -0.3444  0.0810  0.3971
25231W        W38645   1.822  13.231   1.043 -0.1614  0.0391  0.2017
25232W        W38646   1.233  14.221  15.311  0.0144  0.4176  0.0021
25233W        W38647  10.877   4.724  10.766  0.1682  0.1178  0.0345
25234W        W38648  13.086   7.833   1.603 -0.0867  0.0830 -0.3774
25235W        W38649   8.888   6.498   4.956  0.1795 -0.1777 -0.1451
25236W        W38650   0.907  13.627   4.347  0.0164  0.0387  0.3554
25237W        W38651   2.624   1.087  14.865  0.3349 -0.3499 -0.2647
25238W        W38652   9.576   9.679   4.202 -0.5106 -0.1245  0.4288
25239W        W38653   4.576   5.900   1.135  0.1441  0.0449  0.0865
25240W        W38654  11.474  13.899  15.630 -0.0947  0.1683 -0.1769
25241W        W38655  11.410  16.369  10.988  0.0596  0.0757  0.1482
25242W        W38656  12.995   5.661  14.199 -0.0726 -0.1505 -0.1510
25243W        W38657  12.630  10.517  11.413 -0.0374 -0.1752 -0.0068
25244W        W38658   7.755  17.661  13.233  0.0659 -0.1384  0.0845
25245W        W38659   3.926   6.152   0.170  0.3321 -0.1168 -0.1675
25246W        W38660  17.539   9.366  15.761  0.1316  0.0243 -0.1486
25247W        W38661   3.285   2.377   5.432 -0.1101  0.0048 -0.0338
25248W        W38662   7.967  11.629  13.777  0.1105  0.0597 -0.1917
25249W        W38663   7.869  16.094  15.196  0.0216  0.0427 -0.1703
25250W        W38664  16.879  17.487   3.991  0.2723  0.0248 -0.2616
25251W        W38665  16.049   9.502  10.594 -0.3304  0.2516 -0.1138
25252W        W38666   2.109   7.804  11.960  0.3193 -0.0750 -0.0590
25253W        W38667   1.649   6.424   4.333 -0.0312  0.1676 -0.1698
25254W        W38668   5.063  14.315   0.005  0.2650  0.0267  0.4127
25255W        W38669   3.007  14.552  14.851 -0.0484  0.0526  0.1660
25256W        W38670  11.586   1.766   0.702  0.0391 -0.0863 -0.1250
25257W        W38671   2.534   2.374  13.054  0.0141 -0.3367 -0.0164
25258W        W38672   5.682   9.520   2.443  0.2945 -0.0829  0.0647
25259W        W38673  14.794   3.990  12.103 -0.1122  0.1815 -0.0497
25260W        W38674   2.179  11.528  16.201 -0.1655 -0.0243  0.1474
25261W        W38675  13.432  15.141  13.243 -0.1954  0.3087 -0.1796
25262W        W38676  17.804   2.137  15.949 -0.0342  0.0678  0.2776
25263W        W38677  12.197  11.120  14.727  0.1741 -0.2573 -0.2276
25264W        W38678   9.545  10.958   4.702  0.3043 -0.2636 -0.0701
25265W        W38679  14.132  14.072   6.315 -0.1564  0.0662  0.1400
25266W        W38680   0.920  13.005  13.903  0.0660  0.0966 -0.4683
25267W        W38681  15.760   2.726   5.093 -0.1276 -0.0405  0.0273
25268W        W38682   1.991   0.596   5.535 -0.1234  0.0321  0.0050
25269W        W38683  14.243   8.599  12.963  0.3098  0.1261 -0.1036
25270W        W38684   2.241  12.433   3.802  0.1338 -0.0504 -0.1261
25271W        W38685  17.666   7.576  15.450 -0.0142  0.0756  0.1683
25272W        W38686  15.320  16.252   4.815 -0.1909  0.1331  0.3156
25273W        W38687   6.563   2.093   3.877 -0.0379 -0.0203  0.2199
25274W        W38688   4.984   2.762  16.067 -0.5609 -0.0581  0.0431
25275W        W38689  15.365   7.620   5.085 -0.2290  0.2970  0.1347
25276W        W38690   0.208   9.891   3.481 -0.1254 -0.3563 -0.0143
25277W        W38691   5.393   3.926   5.152  0.0691  0.3190 -0.0015
25278W        W38692   2.497   0.117  11.977  0.1450 -0.1749 -0.0021
25279W        W38693   5.798   1.054   2.363 -0.3345 -0.0531 -0.1111
25280W        W38694   0.963   9.762   6.318  0.0474  0.3416 -0.2939
25281W        W38695   3.871   5.568   5.066 -0.0679  0.1098 -0.1209
25282W        W38696  12.715   2.728  11.261 -0.1393 -0.0413 -0.0244
25283W        W38697  16.766  17.705  14.069  0.0306  0.0334 -0.2066
25284W        W38698   6.724   6.916  13.203  0.1621  0.4289  0.1763
25285W        W38699  12.594  14.473   0.478 -0.2223 -0.1762  0.3462
25286W        W38700   3.567  12.677   0.670 -0.0525 -0.1684 -0.1055
25287W        W38701   0.030   7.801  11.762 -0.0876  0.2190 -0.1132
25288W        W38702   7.835   4.875  15.097 -0.2864  0.3402  0.0841
25289W        W38703  14.994  17.534   1.083  0.0307 -0.0288  0.0212
25290W        W38704  10.840  17.448  14.055  0.2716 -0.1849 -0.0619
25291W        W38705  16.386  17.403   1.938  0.1964  0.1884 -0.2347
25292W        W38706   3.379   5.903   6.263  0.0400  0.0978  0.2499
25293W        W38707   9.407   7.276   1.950 -0.1672 -0.0985  0.1444
25294W        W38708   1.368  13.010  11.486  0.0387  0.0378 -0.1244
25295W        W38709   1.443   8.580  12.645 -0.0188  0.1110 -0.0183
25296W        W38710  13.439   4.050   3.895 -0.1452  0.0071  0.0993
25297W        W38711   9.508  18.041   1.565  0.1277 -0.1136 -0.0544
25298W        W38712  10.489   9.463   4.351  0.1224  0.1922  0.0029
25299W        W38713   6.719  17.068  15.137  0.0561 -0.5914  0.2224
25300W        W38714  17.571  17.229   3.164 -0.2139  0.1395  0.0900
25301W        W38715  14.971   5.449  15.913 -0.2727 -0.2812  0.0521
25302W        W38716   4.654   1.828   1.138 -0.1606  0.0965 -0.0790
25303W        W38717  15.949   6.098   4.949 -0.1220  0.0189 -0.3023
25304W        W38718   5.732  17.912   1.211  0.0615  0.1306 -0.0606
25305W        W38719  17.089   3.389  10.161  0.0421 -0.0392  0.0621
25306W        W38720  14.181  10.577  13.250  0.0375 -0.1611  0.2037
25307W        W38721   8.065   6.594  15.391 -0.0750  0.0485 -0.1915
25308W        W38722   3.147   5.356   2.677 -0.0843 -0.0726 -0.0718
25309W        W38723   5.088   4.818   2.072 -0.0708  0.0133  0.0841
25310W        W38724  10.292   6.327   1.743 -0.3257  0.0591 -0.1210
25311W        W38725   4.092  14.774   3.719 -0.0549 -0.2377 -0.1804
25312W        W38726   3.674   5.415  11.615 -0.0177 -0.1840  0.5058
25313W        W38727  11.654  11.070   2.122  0.2471  0.0686  0.0148
25314W        W38728   9.447  17.336  12.930 -0.0759 -0.0711 -0.0495
25315W        W38729   1.076  12.718   1.005 -0.2340  0.0015 -0.0500
25316W        W38730   5.559   9.302   3.543  0.0390  0.1738 -0.0937
25317W        W38731  13.846  14.689   2.547  0.0286 -0.0827 -0.0026
25318W        W38732   4.699   5.076   0.607 -0.2977  0.1178  0.0620
25319W        W38733   5.484  11.866  15.207  0.1404  0.0754 -0.2493
25320W        W38734   4.280  10.210  16.134 -0.2001 -0.0260 -0.4166
25321W        W38735   0.665   2.395  12.112  0.0627 -0.2611 -0.1953
25322W        W38736   1.726   7.353   5.082  0.1089  0.2943 -0.0822
25323W        W38737  16.321  10.434   0.921  0.0051 -0.0408 -0.4566
25324W        W38738   2.678   7.145   0.493  0.1787  0.0156  0.1620
25325W        W38739  15.835   3.984  10.871  0.0653  0.1245 -0.2233
25326W        W38740   0.287   0.959   5.749  0.1354  0.1466  0.0041
25327W        W38741   5.757   0.435   5.817 -0.1230  0.1914  0.0125
25328W        W38742   7.987   0.451   3.684 -0.0505 -0.1345  0.0222
25329W        W38743  14.461  14.221   2.070 -0.1805 -0.0800  0.2061
25330W        W38744  16.823   2.174   3.063 -0.0301 -0.1988  0.1306
25331W        W38745   8.677   4.929   0.513  0.0715 -0.1272  0.2157
25332W        W38746   8.516   0.584  12.669  0.1040 -0.0837  0.1759
25333W        W38747   3.716   5.435   0.827  0.3800 -0.5311 -0.1035
25334W        W38748  10.803   8.729  13.685 -0.1267  0.2941 -0.1252
25335W        W38749   0.987   5.465  11.139  0.0974 -0.1602  0.0463
25336W        W38750  17.238   6.512   4.731 -0.4301  0.3057  0.0016
25337W        W38751   3.666   5.903  12.993 -0.0002 -0.1870 -0.0643
25338W        W38752   9.903   9.358  13.855 -0.1028  0.0270  0.0474
25339W        W38753   3.092   0.132   1.645 -0.1649 -0.0063 -0.2693
25340W        W38754   5.503   4.654   5.651 -0.2586 -0.0090  0.2677
25341W        W38755   9.218  15.578   3.396 -0.0813  0.0032  0.0088
25342W        W38756   0.233   8.456  13.170  0.0887  0.1669 -0.0008
25343W        W38757  14.933  10.894   6.158  0.0918  0.1686 -0.0561
25344W        W38758   0.878  10.019   2.652 -0.1105  0.2428 -0.2135
25345W        W38759  17.720   0.646   1.263 -0.1211 -0.2531 -0.0739
25346W        W38760  13.590  11.824  15.493 -0.1522 -0.3406  0.1230
25347W        W38761  12.665  12.808  16.394  0.0131  0.1430 -0.1277
25348W        W38762   6.798   9.218   1.447  0.3999 -0.0173  0.0948
25349W        W38763   0.237   9.152  13.843  0.1797 -0.1245 -0.0650
25350W        W38764   6.245  15.100  11.701  0.0547  0.0244 -0.4757
25351W        W38765   6.597  11.939   3.553 -0.2175  0.1467  0.1721
25352W        W38766  15.306  15.818   6.060 -0.1053  0.0692  0.0276
25353W        W38767  14.996  11.874   6.235  0.1964  0.1113 -0.0273
25354W        W38768  15.717   9.684   4.756 -0.0942  0.0263 -0.0910
25355W        W38769   7.144  15.198  13.507  0.0258 -0.0459  0.2845
25356W        W38770  16.018   3.007   4.762  0.1883 -0.0892  0.3035
25357W        W38771   7.676   4.544  15.939 -0.0085 -0.1669  0.0282
25358W        W38772  16.017   6.787   2.219 -0.2029  0.0866  0.2118
25359W        W38773  17.951   1.390  16.222 -0.0255  0.0966 -0.0678
25360W        W38774   4.454  12.056   5.931 -0.0290  0.0320 -0.3748
25361W        W38775   2.096  12.299   3.121 -0.1120  0.0171  0.0510
25362W        W38776   1.550   2.563   4.865  0.1559 -0.2610 -0.0609
25363W        W38777   8.302   5.199  13.350 -0.1955 -0.0328 -0.2003
25364W        W38778  16.366  13.859   3.600  0.2303  0.0693 -0.2499
25365W        W38779   2.916  10.942  16.327  0.2221  0.0417 -0.3904
25366W        W38780   5.382   0.044   4.104  0.2341 -0.2419 -0.1733
25367W        W38781  13.171   3.662   3.597 -0.0508 -0.0833  0.0369
25368W        W38782   3.562  12.535   5.522  0.0238 -0.2033  0.0293
25369W        W38783  14.674   5.718   1.198  0.1775 -0.0833  0.1923
25370W        W38784  15.768   7.973  13.978  0.1303  0.0670  0.0533
25371W        W38785   9.714   5.172  11.223  0.3823  0.1999 -0.0016
25372W        W38786  10.103   7.982   3.433  0.0144 -0.1677 -0.0523
25373W        W38787  13.889   8.476  14.185 -0.2689 -0.0477 -0.4274
25374W        W38788   5.178   9.883   1.432  0.1264  0.2470 -0.1313
25375W        W38789   8.968   6.469   2.509 -0.0406 -0.0829 -0.0909
25376W        W38790   2.866   2.446   5.019  0.0736 -0.1563  0.1727
25377W        W38791   7.703  11.136  12.307 -0.0326  0.3561  0.0264
25378W        W38792   0.589  16.368   1.480  0.1925  0.1720 -0.2067
25379W        W38793   5.010  17.276  15.977 -0.1235  0.0114  0.0457
25380W        W38794  14.845  13.445  14.041  0.0787 -0.3487 -0.0103
25381W        W38795   2.284  17.463  10.915 -0.1504  0.1267  0.2208
25382W        W38796   6.690   8.723   1.623 -0.1725 -0.0512  0.1533
25383W        W38797  16.956   5.443   4.062  0.2905 -0.0095  0.3684
25384W        W38798   4.136  12.210   2.572  0.0081  0.1134 -0.1039
25385W        W38799   5.591   0.879   1.854 -0.1170 -0.2230 -0.1472
25386W        W38800  10.205   0.624   1.921 -0.0478  0.3719 -0.0311
25387W        W38801  15.625  16.940   4.449  0.3258  0.0440 -0.3708
25388W        W38802  14.264  13.888  14.526 -0.2792  0.3105  0.1169
25389W        W38803   9.632  10.443  15.466  0.0195 -0.2809 -0.0837
25390W        W38804  13.710  15.986  14.844 -0.1932 -0.0466 -0.0842
25391W        W38805  18.050  10.833  12.876  0.0535 -0.1569  0.3594
25392W        W38806   1.190  14.608   5.150  0.2257  0.0824  0.1066
25393W        W38807   8.975  18.161  14.002  0.0060 -0.2818 -0.0712
25394W        W38808   6.414  16.253  14.122  0.2340  0.1193 -0.0740
25395W        W38809   0.127  10.957  15.587 -0.1345 -0.2319 -0.0548
25396W        W38810  16.273  17.062   6.122 -0.2851 -0.0705  0.1950
25397W        W38811  12.442   6.673  16.442 -0.3341 -0.0219 -0.0640
25398W        W38812  13.505   8.893  11.191 -0.1115 -0.0648  0.0874
25399W        W38813   7.379  15.115   4.836 -0.2388  0.0572  0.0424
25400W        W38814  15.758  13.343  13.624 -0.1427 -0.0707 -0.2984
25401W        W38815  10.124   0.750   2.373 -0.0632  0.0040  0.1025
25402W        W38816   3.231   6.069   0.781 -0.1953  0.0867 -0.1769
25403W        W38817  11.612   0.306  14.422  0.1029  0.1175 -0.0039
25404W        W38818   9.596  15.947  14.924 -0.2236  0.0432 -0.1470
25405W        W38819   2.069   3.544  13.877  0.0751 -0.0242  0.2072
25406W        W38820   8.478  14.202  15.756  0.1860  0.0497  0.1380
25407W        W38821   4.666   8.311  14.816  0.0092  0.0590 -0.1382
25408W        W38822   8.833  16.105   0.675  0.0840 -0.0876  0.3416
25409W        W38823  13.446  14.938   3.461  0.1460  0.1900 -0.1210
25410W        W38824  14.505   5.008   3.556 -0.0337  0.0928 -0.0190
25411W        W38825  17.201  11.648   5.181 -0.3293  0.0305  0.1595
25412W        W38826  12.105   5.466   0.828 -0.0006 -0.1535 -0.2863
25413W        W38827  15.801   8.110  12.433  0.0185 -0.0320 -0.1936
25414W        W38828   0.538  13.453  10.965 -0.0997  0.0202  0.0929
25415W        W38829   4.667  10.364   5.785  0.2088  0.0964  0.0462
25416W        W38830   2.821   5.166  11.217  0.0454  0.2015  0.1668
25417W        W38831  14.010   0.833   1.376 -0.2687  0.2047  0.0165
25418W        W38832   5.938   4.665  14.967 -0.1379 -0.2071  0.0598
25419W        W38833   3.934  17.511  13.447  0.3711  0.1722 -0.3332
25420W        W38834  15.192  15.911   3.155 -0.4094  0.0398  0.1627
25421W        W38835  11.053   5.699   2.791 -0.2022  0.0007 -0.2227
25422W        W38836   8.765   0.035   2.157 -0.1955 -0.0304 -0.0076
25423W        W38837  17.205  12.167   1.406  0.0623  0.0739  0.0367
25424W        W38838   2.556   6.860   1.926  0.2867  0.3275  0.2933
25425W        W38839   7.376  12.449  16.172  0.0409  0.0147  0.0944
25426W        W38840   0.521  17.700   5.285 -0.0467 -0.1882  0.2434
25427W        W38841   5.636   4.176   9.824  0.0518  0.2598 -0.1681
25428W        W38842  11.226   4.446   2.905  0.3238  0.1423  0.0193
25429W        W38843   3.820  18.101   5.914 -0.1480 -0.2607 -0.1102
25430W        W38844   7.377   2.463  10.878 -0.0205  0.1481  0.0844
25431W        W38845   9.532   6.962  13.854 -0.1710  0.1146 -0.0743
25432W        W38846  11.567  11.727  12.597  0.0245  0.2004  0.0740
25433W        W38847   9.773   0.340  10.701  0.1431  0.3118  0.0738
25434W        W38848   1.913   4.225  11.959  0.0019  0.4039 -0.1555
25435W        W38849  15.228  13.449   4.458 -0.0928 -0.0457  0.1792
25436W        W38850  12.348  14.336  11.234  0.0542  0.1073 -0.1139
25437W        W38851  12.911   9.544  15.266 -0.2691 -0.2236  0.0809
25438W        W38852  16.611   3.078  11.703  0.5647  0.1003  0.2521
25439W        W38853   2.663   8.299   0.678  0.2012 -0.1818 -0.1786
25440W        W38854  10.413  15.923  12.733  0.0946 -0.3588  0.0664
25441W        W38855  18.169   9.115   6.834  0.2034  0.1878  0.0695
25442W        W38856   7.003   5.529  11.325 -0.1151  0.1978 -0.0068
25443W        W38857  12.692   4.650   2.944 -0.0377  0.4690  0.0280
25444W        W38858   1.233  10.386  12.633 -0.1837 -0.0129  0.1514
25445W        W38859  16.346   2.100   2.205 -0.0739 -0.0097 -0.4149
25446W        W38860   8.699  11.301  15.552  0.2357  0.0329 -0.0977
25447W        W38861  14.839  14.862   6.696  0.0843 -0.0520  0.0183
25448W        W38862   3.706  15.080   5.033 -0.0667  0.0020  0.1190
25449W        W38863  15.157   6.427  15.111  0.1876 -0.1507  0.0034
25450W        W38864  16.138  14.287   0.231 -0.0731 -0.1730  0.0996
25451W        W38865   2.290   4.514  13.562  0.1030 -0.1855  0.2070
25452W        W38866  13.149   1.111  16.487 -0.2198 -0.2229 -0.2747
25453W        W38867  11.784  11.618   4.681  0.2069 -0.1348  0.0584
25454W        W38868   4.598  16.526  15.542  0.3163 -0.2887 -0.3926
25455W        W38869   5.873   5.522  10.671 -0.0994  0.0337 -0.2594
25456W        W38870   7.072   5.073  10.376 -0.0824  0.0795  0.1663
25457W        W38871   7.726   0.792   3.980 -0.0589  0.2397 -0.0630
25458W        W38872   7.735  13.548  11.200 -0.1960 -0.3592 -0.0749
25459W        W38873  14.710  17.581   2.881  0.0342 -0.0246 -0.2033
25460W        W38874   7.425   8.334  12.877 -0.2697 -0.4978  0.0152
25461W        W38875   5.755  16.054  15.489 -0.0452 -0.1840  0.0884
25462W        W38876   5.020   7.817   5.592 -0.0466 -0.1041 -0.0992
25463W        W38877   6.492   8.565  16.146 -0.0577 -0.2177 -0.2410
25464W        W38878   5.399   9.081  13.237  0.0412  0.3764  0.1015
25465W        W38879  17.688   4.480   2.282  0.0578  0.2440  0.0191
25466W        W38880  10.131  18.141  16.404  0.1474  0.1932 -0.1001
25467W        W38881   9.368   5.334  13.479 -0.0286  0.2418  0.2185
25468W        W38882   6.139  13.499   3.381 -0.0509  0.0014  0.4147
25469W        W38883  15.841  18.042  12.995  0.1095  0.1802  0.2118
25470W        W38884   7.265  11.539  11.751  0.3991  0.0685  0.0395
25471W        W38885  15.045  15.559  13.972  0.0258  0.1463 -0.0253
25472W        W38886   9.057  10.858   0.634 -0.1665  0.0380  0.3337
25473W        W38887   5.138  10.479   5.722  0.0838  0.1367 -0.0581
25474W        W38888   2.523   0.140   2.019  0.0478 -0.0882  0.1132
25475W        W38889  17.894   1.213   3.143 -0.0263  0.0637 -0.2114
25476W        W38890   7.592  11.108   2.224 -0.0813 -0.1043  0.1758
25477W        W38891   1.902  10.602  12.412  0.0007  0.2348 -0.1045
25478W        W38892  15.663  14.655   4.441  0.1157  0.1950 -0.0205
25479W        W38893   7.330  15.441  12.104 -0.1052 -0.1817 -0.0277
25480W        W38894   5.543   3.911  14.082 -0.1536 -0.0767 -0.3609
25481W        W38895  15.716   4.406  12.338  0.0242  0.1808  0.0744
25482W        W38896   9.357  15.986   4.385 -0.3568 -0.3753 -0.0713
25483W        W38897   0.973  10.979   3.904  0.1451  0.2152  0.1701
25484W        W38898  16.478   3.421   5.350 -0.1726  0.1290  0.0202
25485W        W38899  12.731   5.564   5.429 -0.2483  0.1508 -0.1284
25486W        W38900   1.211  17.752   0.973  0.1291 -0.2074  0.0529
25487W        W38901  13.756   1.840  10.900 -0.2717 -0.1522 -0.0637
25488W        W38902   9.277  10.118   0.915 -0.0608  0.1148 -0.2894
25489W        W38903   9.290   0.793   2.436  0.1810  0.2371  0.0233
25490W        W38904  10.438  10.749  15.755 -0.0090 -0.0204 -0.0961
25491W        W38905  17.506  10.382  14.735  0.0814 -0.1089 -0.2557
25492W        W38906   1.315   3.265   4.847  0.0712 -0.1028 -0.0209
25493W        W38907   7.165  10.195   6.090  0.1364  0.0706 -0.1116
25494W        W38908   6.408   8.164  12.874  0.0287 -0.3146  0.2448
25495W        W38909  12.391   0.265  16.226  0.0384 -0.1412 -0.0538
25496W        W38910  12.828  10.781   0.687 -0.2007  0.0109 -0.0487
25497W        W38911   2.425   9.930  13.389  0.1101 -0.1006 -0.0479
25498W        W38912   9.954   1.158   5.197  0.1148  0.3778 -0.1306
25499W        W38913  12.201  16.896   3.218  0.2066 -0.0879 -0.2480
25500W        W38914   7.453   2.720   1.683 -0.1314  0.0006 -0.0087
25501W        W38915  17.634   6.838   5.593  0.0823 -0.2856  0.0280
25502W        W38916   8.300  10.700   1.814 -0.0175 -0.2062  0.1683
25503W        W38917   4.624   8.535   6.091 -0.1715 -0.3377 -0.2055
25504W        W38918  11.680   3.641   4.789  0.0744 -0.1502  0.0172
25505W        W38919  10.613  14.411   3.708  0.0534  0.3883 -0.3724
25506W        W38920   4.026  13.618  12.286  0.2620 -0.3334  0.2626
25507W        W38921  16.491  14.597  14.233  0.2948 -0.2844  0.0878
25508W        W38922   4.365  10.849   3.293  0.0394  0.2169 -0.0080
25509W        W38923   4.734  12.478   6.112 -0.1330 -0.0747 -0.1055
25510W        W38924  14.492  12.156  11.806 -0.2188 -0.1009 -0.0019
25511W        W38925  17.372  16.077   3.309  0.0272  0.1035  0.0545
25512W        W38926   7.929   6.252  12.800  0.0873  0.2419 -0.2624
25513W        W38927  12.562  10.142  15.531 -0.1175 -0.4485 -0.0167
25514W        W38928  14.553   4.653   3.180 -0.0329  0.0814  0.1917
25515W        W38929   8.631  15.399  15.446  0.2570 -0.0998 -0.2031
25516W        W38930  15.349   3.211  14.428 -0.4707  0.0491  0.3769
25517W        W38931  12.457  17.553  15.516 -0.0802 -0.1321 -0.0372
25518W        W38932   9.495  15.535  10.394 -0.1006  0.1581 -0.1971
25519W        W38933   0.943   7.169  12.230  0.0696  0.1507 -0.1238
25520W        W38934   0.100  13.349  15.259 -0.2693 -0.0108 -0.1342
25521W        W38935  13.861  16.525   4.861 -0.0620 -0.4016 -0.1000
25522W        W38936  16.186   5.153  11.615 -0.0324 -0.0844  0.0486
25523W        W38937  14.076   1.709  11.410  0.0785 -0.0097  0.2840
25524W        W38938  15.069   0.184  11.437 -0.0122  0.2390 -0.2262
25525W        W38939   3.680  15.066   0.262 -0.1410  0.0528 -0.0191
25526W        W38940  13.969  17.380  12.465  0.0641  0.0780  0.0003
25527W        W38941  16.551   0.033   4.923 -0.0974  0.0642  0.4362
25528W        W38942  10.993   8.109   4.265 -0.0508  0.0961 -0.2352
25529W        W38943   2.965   0.353  13.826 -0.1516 -0.1336  0.0056
25530W        W38944   2.713   4.872  11.821 -0.0658 -0.0090  0.4142
25531W        W38945  16.130   5.036   1.348 -0.2645 -0.0973  0.1075
25532W        W38946   1.739  12.458  16.277  0.0798 -0.0422 -0.1595
25533W        W38947   6.591  11.175  15.420  0.0859 -0.0921  0.1091
25534W        W38948  16.464   4.451  11.400  0.2522 -0.1376 -0.2335
25535W        W38949  10.808  10.763   2.176  0.1464  0.0540 -0.2305
25536W        W38950   7.819  18.031  16.337  0.1121 -0.0175  0.2764
25537W        W38951  14.148  17.304   4.722  0.0917  0.0443 -0.1446
25538W        W38952  14.014  11.518  10.625 -0.0146  0.0556 -0.1422
25539W        W38953   4.079  17.721  12.100 -0.1152  0.1085 -0.2986
25540W        W38954   1.200   7.838   5.547 -0.3643  0.0716 -0.0857
25541W        W38955   8.119   5.635   0.323  0.2033  0.2199 -0.2631
25542W        W38956   2.799  16.225  13.124 -0.0987  0.2768 -0.0046
25543W        W38957  12.805   6.822   4.151  0.0263 -0.1058 -0.1114
25544W        W38958  11.905  11.137   5.578  0.2378  0.0695 -0.1942
25545W        W38959  15.714  11.855  11.632 -0.2664  0.2086 -0.2023
25546W        W38960   3.616   0.037  12.726 -0.0706  0.0301 -0.0310
25547W        W38961   6.945   6.109   2.171  0.1613 -0.1706  0.3256
25548W        W38962   8.840  15.463  11.283  0.1205  0.0336  0.0293
25549W        W38963   7.660  15.348   2.213  0.0292  0.1197 -0.0078
25550W        W38964  12.030   9.128  10.973 -0.0961 -0.3078  0.5345
25551W        W38965   7.618   0.023  11.798  0.1490  0.0862  0.2042
25552W        W38966   3.443  17.450  16.055  0.3340  0.0738 -0.0292
25553W        W38967   1.713   6.906  15.203 -0.0061 -0.0390  0.1830
25554W        W38968   5.132  15.703   1.082 -0.0584 -0.2849 -0.0824
25555W        W38969  11.414   3.122  12.394  0.2614  0.0879  0.0087
25556W        W38970  16.875   6.869   4.888  0.0850 -0.1126  0.1303
25557W        W38971  16.389   5.014   0.033 -0.0622  0.3414  0.1130
25558W        W38972   0.050   3.799   3.244 -0.0567  0.0289 -0.1925
25559W        W38973  13.762  14.441  15.951 -0.1670  0.1372  0.2170
25560W        W38974   4.922   3.410   4.163 -0.0748 -0.0259 -0.2402
25561W        W38975   0.563  10.184  15.426  0.1176 -0.2720  0.2149
25562W        W38976  14.011   4.734   3.266  0.1253 -0.0434 -0.3415
25563W        W38977  11.978   1.794   5.563  0.0012  0.1047  0.3315
25564W        W38978   8.982  11.330   2.825  0.0846 -0.2764 -0.2245
25565W        W38979   3.484  13.857  12.925 -0.0327  0.3825  0.0246
25566W        W38980   5.207  11.595  11.228  0.2232 -0.1132 -0.3093
25567W        W38981   9.325   5.926   4.122  0.1010  0.1456  0.4494
25568W        W38982   9.090  15.381  16.108 -0.2586 -0.0021 -0.0234
25569W        W38983   7.712   5.094   5.323  0.0434 -0.1622  0.0172
25570W        W38984  11.605  16.325   1.046 -0.1012 -0.2303 -0.1377
25571W        W38985   1.180   9.056  12.050 -0.1442 -0.1726 -0.1808
25572W        W38986  17.672   6.475  13.994  0.0450 -0.0807 -0.0812
25573W        W38987   4.650  13.215  11.676 -0.2672  0.0470 -0.1015
25574W        W38988  15.291   4.973   0.053 -0.1956 -0.0249 -0.0456
25575W        W38989  12.313   3.937  13.770  0.2075 -0.1070 -0.3294
25576W        W38990  12.642  16.356  14.849 -0.1024 -0.2648  0.0990
25577W        W38991   5.425   6.647   4.052 -0.1581 -0.1409 -0.1069
25578W        W38992   9.597  13.282   6.026 -0.1636  0.0415 -0.0058
25579W        W38993  14.177   7.010   0.295  0.1280  0.1177  0.2115
25580W        W38994  14.283  12.940   2.909 -0.1665 -0.2403 -0.2015
25581W        W38995   7.023   0.204   2.474 -0.1051 -0.2130 -0.0185
25582W        W38996   9.029  10.495   0.054 -0.1140 -0.0350  0.1527
25583W        W38997   1.646   2.164  15.435 -0.4747  0.0283 -0.1251
25584W        W38998  15.014   6.626   1.280 -0.2980 -0.0567 -0.1245
25585W        W38999   5.460  16.918  15.198  0.1498 -0.1406  0.0315
25586W        W39000   5.509  14.707   2.949 -0.2349 -0.1516 -0.3047
25587W        W39001   3.895  17.356  12.546 -0.0619 -0.1794  0.1283
25588W        W39002   8.985   5.359   0.341 -0.2746 -0.0583  0.0513
25589W        W39003   0.902   4.822   4.818 -0.1863  0.1099 -0.1036
25590W        W39004  13.079  13.579  12.678 -0.2206  0.1420  0.0089
25591W        W39005   9.528   5.608   3.031 -0.1132 -0.1905 -0.0152
25592W        W39006   4.699  15.087  16.479  0.0085  0.0442  0.3173
25593W        W39007   6.042   7.792  12.902  0.1037 -0.0680  0.0823
25594W        W39008   8.726   3.433   2.994 -0.3169 -0.0198  0.0896
25595W        W39009  14.472  11.479   3.981 -0.1139  0.3391  0.2721
25596W        W39010  12.665   3.877   4.978  0.0971  0.0219  0.1372
25597W        W39011   4.158  13.509  13.285 -0.1519 -0.0062 -0.1521
25598W        W39012  14.162  16.866   5.107  0.2891 -0.0580  0.2331
25599W        W39013   3.447  15.106  12.565 -0.1161  0.0003 -0.2651
25600W        W39014   8.973   8.274  11.528 -0.1514 -0.4131 -0.2021
25601W        W39015   7.498   6.196   5.489 -0.3961  0.1810  0.1060
25602W        W39016  15.130   7.056   2.562 -0.3272  0.1672 -0.3546
25603W        W39017  11.315   8.688   3.626  0.0509  0.3194 -0.0433
25604W        W39018  14.411  14.575  14.795  0.3690  0.0754 -0.1870
25605W        W39019   1.821  11.607   0.320 -0.2670  0.1260 -0.2535
25606W        W39020  13.049   1.269  11.336  0.1423 -0.2337  0.2333
25607W        W39021  13.142   8.629   5.022 -0.2618 -0.0851 -0.0924
25608W        W39022   3.572   9.200   2.289 -0.0776 -0.2144  0.0941
25609W        W39023   6.578  11.234  12.233 -0.0133 -0.0042  0.1187
25610W        W39024   1.886   2.525   5.836  0.0499  0.0724  0.2430
25611W        W39025  15.156  13.683   1.744 -0.0041  0.0078  0.0238
25612W        W39026   5.076  14.677   2.420  0.1251 -0.1902  0.2483
25613W        W39027  16.264   1.946  11.575 -0.0394 -0.1687  0.0265
25614W        W39028   4.096   4.563  14.321  0.1978 -0.1832  0.0310
25615W        W39029  14.992  10.857   2.897  0.0012  0.0568 -0.0079
25616W        W39030   2.929   5.106  14.595 -0.1410  0.0643 -0.3526
25617W        W39031   5.710   4.298   5.327 -0.0300 -0.1240  0.0229
25618W        W39032  12.651   2.887   5.781  0.1466  0.1201 -0.2818
25619W        W39033   1.562  14.243   0.937 -0.0460 -0.1182  0.4053
25620W        W39034   6.176   6.497   2.757 -0.1700 -0.1596  0.1214
25621W        W39035   6.884  11.150   4.282  0.3311  0.0281  0.1274
25622W        W39036  11.834   1.885   1.490 -0.1281 -0.3186  0.1407
25623W        W39037   5.417  15.289   0.842  0.1151  0.1057  0.1021
25624W        W39038   0.069   2.827   3.371 -0.0069  0.0331 -0.0462
25625W        W39039   4.984  11.695   2.862  0.3840 -0.2700  0.1323
25626W        W39040   4.430  15.950  13.686 -0.3137 -0.4276 -0.1600
25627W        W39041   9.327  14.782   0.666 -0.1238 -0.0150  0.1277
25628W        W39042   5.947  18.050   2.968 -0.0897  0.0029  0.1218
25629W        W39043  11.693  16.372   1.945  0.0278  0.0493 -0.1249
25630W        W39044  12.490  10.115   4.686 -0.3123 -0.2543 -0.1622
25631W        W39045  11.702   9.143   2.979  0.1585 -0.0171 -0.0178
25632W        W39046  17.540  12.701   1.765 -0.1852  0.3265  0.0351
25633W        W39047   0.014   8.229   3.777  0.2643 -0.1842 -0.0225
25634W        W39048   0.329   7.206   2.828  0.1207  0.1164  0.1771
25635W        W39049  13.454  16.438   6.551  0.2030 -0.0079  0.2859
25636W        W39050  10.161   4.731   1.293 -0.0168  0.0446 -0.4606
25637W        W39051   3.866   6.722   0.353  0.2998  0.3908 -0.0934
25638W        W39052  15.331   9.347  10.073 -0.0208 -0.3406 -0.0228
25639W        W39053  11.162   9.953   0.104  0.1885  0.1012  0.0346
25640W        W39054  17.494  15.181  12.532  0.1234  0.1010 -0.1091
25641W        W39055   3.142   3.820   3.612  0.1733 -0.1711 -0.0464
25642W        W39056  15.257   9.781   2.446  0.0500 -0.5542  0.3238
25643W        W39057  12.149   3.126  11.898 -0.0041 -0.2517  0.3146
25644W        W39058  14.234  16.639  14.467 -0.0551 -0.0511 -0.2287
25645W        W39059  16.504  11.024  15.743  0.1791 -0.2441 -0.2345
25646W        W39060  13.595   5.532  10.536 -0.3887 -0.0577 -0.3334
25647W        W39061  16.426   8.495  11.471 -0.0102 -0.1340  0.4368
25648W        W39062   4.765   6.634  14.133  0.1124 -0.0927 -0.0372
25649W        W39063   8.539  15.673   4.877  0.0410  0.0152  0.1596
25650W        W39064   4.229   7.571  11.445 -0.0079  0.0169 -0.0631
25651W        W39065  12.483   4.265  12.843 -0.1258 -0.1016 -0.0006
25652W        W39066  15.912   5.885  12.373 -0.0178  0.3872  0.0629
25653W        W39067  14.178  10.493  12.719 -0.2828  0.0077 -0.0117
25654W        W39068   4.973   0.981   5.571  0.1251  0.0412 -0.1306
25655W        W39069   2.595   3.767  13.707 -0.0196  0.2497  0.2097
25656W        W39070  16.802  16.570  15.172 -0.1247 -0.0170  0.1223
25657W        W39071  15.956  15.928   5.845 -0.0444  0.0925 -0.0391
25658W        W39072   5.981   7.646  11.274 -0.3752 -0.0178 -0.0166
25659W        W39073   9.326   4.384  13.273 -0.1190 -0.0248 -0.2001
25660W        W39074   4.563   7.761  11.736  0.1903  0.2833 -0.0970
25661W        W39075  10.227   7.946  12.584 -0.1082  0.0263  0.0652
25662W        W39076  11.894  16.628   0.524 -0.1899  0.4100  0.2569
25663W        W39077   8.929  12.713  14.666 -0.0286 -0.0849 -0.0197
25664W        W39078   0.798   4.900   3.525  0.1169 -0.1529 -0.1454
25665W        W39079   1.786   2.171  10.739 -0.0316 -0.1957  0.1424
25666W        W39080   8.493  10.449  16.389  0.1156 -0.1507 -0.2195
25667W        W39081   8.464   8.850   0.624  0.0185  0.2102 -0.0089
25668W        W39082   0.960  16.747   0.878 -0.0300  0.1321  0.0544
25669W        W39083  16.605   6.676  14.002 -0.0495 -0.1908  0.1091
25670W        W39084   6.035   1.318   0.879  0.3976 -0.0306 -0.0971
25671W        W39085  11.648  10.719   4.885  0.1096 -0.0181 -0.0514
25672W        W39086  16.443   7.773  16.367 -0.1650 -0.2782 -0.1061
25673W        W39087  14.261   0.281  11.718 -0.2092 -0.0218  0.0401
25674W        W39088   5.802   6.112  14.904  0.3132  0.2915  0.3268
25675W        W39089   2.874  13.129   1.280  0.1816 -0.0104  0.1424
25676W        W39090  16.855  11.441   2.547 -0.0628 -0.1509  0.2613
25677W        W39091   2.521  10.603   0.231 -0.0501 -0.0905  0.4082
25678W        W39092  10.975  13.160  11.295  0.3211 -0.1240 -0.0404
25679W        W39093  10.589   1.486  11.665  0.4134  0.0784  0.2419
25680W        W39094   0.481  13.355  12.444 -0.1003 -0.1228  0.0516
25681W        W39095   7.868   0.033   4.565  0.0207 -0.0662  0.3018
25682W        W39096  16.890  14.940  11.801 -0.1928  0.0951  0.1534
25683W        W39097   9.779  14.929   2.689  0.1814  0.0904  0.0604
25684W        W39098  18.044   4.329   2.756 -0.0832 -0.1988 -0.0501
25685W        W39099   3.430  15.415  15.192  0.1856  0.1681 -0.0425
25686W        W39100   0.291   4.794  14.554  0.0148 -0.1083  0.2734
25687W        W39101  16.605  10.755   4.347  0.0915  0.1580 -0.3440
25688W        W39102  12.861   3.653   5.397 -0.0127 -0.1104 -0.1758
25689W        W39103  15.691   4.976  13.012  0.0202 -0.2463  0.2297
25690W        W39104   1.062   3.151  13.353  0.1414  0.0693 -0.1323
25691W        W39105   1.613  17.081   5.807 -0.2050  0.1678  0.2752
25692W        W39106  17.605  15.886   2.478  0.3183  0.1017 -0.3226
25693W        W39107   8.796   9.415   6.407  0.0800 -0.1434  0.0050
25694W        W39108   1.496   1.433   4.229  0.0272  0.0830 -0.0336
25695W        W39109   3.918  10.545  14.209  0.1781 -0.1658  0.3523
25696W        W39110  11.863   3.633   3.165  0.0455  0.2163 -0.2514
25697W        W39111  14.046   6.434   0.368 -0.0748 -0.0548  0.1555
25698W        W39112  10.829   5.216  14.305 -0.3907 -0.0616  0.1467
25699W        W39113  16.407  13.901   0.617  0.1849 -0.2796  0.0468
25700W        W39114   2.510   2.032  12.565  0.0633  0.0956  0.3059
25701W        W39115  10.208   1.390  13.502  0.1213  0.2715  0.0212
25702W        W39116  12.552   9.832   0.178 -0.1644  0.2859  0.1165
25703W        W39117   4.036   0.375   0.748 -0.1222 -0.0227 -0.0447
25704W        W39118   3.019   9.353   5.046  0.1507 -0.0653 -0.2105
25705W        W39119   9.697   3.173   0.106 -0.0281  0.0596 -0.0170
25706W        W39120  15.016   9.727  13.851  0.1735 -0.1765  0.0369
25707W        W39121  11.870   7.151   2.929 -0.3881 -0.1705 -0.3583
25708W        W39122  12.081  11.431   5.125  0.0557  0.1375 -0.0346
25709W        W39123   0.294   0.354   5.448  0.3321  0.2571  0.3870
25710W        W39124  12.851   5.533   4.287  0.0965  0.0191  0.1458
25711W        W39125  17.026  15.429   3.953  0.1550  0.2438 -0.0386
25712W        W39126  14.054   6.241   2.271  0.0245 -0.0632 -0.2814
25713W        W39127   8.826  10.247  16.101  0.3890 -0.2180 -0.1692
25714W        W39128   9.041   9.855   6.403  0.2384  0.1103  0.2206
25715W        W39129   5.290   8.224   2.160 -0.2065  0.1813 -0.1160
25716W        W39130   1.140   6.207  13.785 -0.0422 -0.1239  0.1925
25717W        W39131  11.931   3.017  10.712 -0.1187  0.0076  0.0998
25718W        W39132  12.423  10.813   2.103  0.3029 -0.0508 -0.2761
25719W        W39133   3.547   3.703   2.817 -0.2308  0.2860  0.1799
25720W        W39134  11.242  11.679  14.583  0.1697  0.0923  0.0250
25721W        W39135  16.434   9.352  14.148 -0.2372 -0.1020  0.0209
25722W        W39136  15.274  13.614  15.237  0.0063 -0.0555  0.0047
25723W        W39137   6.459  15.686   4.816  0.2584 -0.0689 -0.0021
25724W        W39138   2.768   5.448   2.203  0.1970  0.3743 -0.2669
25725W        W39139   2.456  17.194   1.574  0.0778 -0.1025  0.2273
25726W        W39140  12.781  12.074  13.925 -0.1371  0.0188  0.0550
25727W        W39141  15.818   9.000  16.242  0.1135 -0.1895 -0.1534
25728W        W39142   0.199   0.882  11.062 -0.1209 -0.1421 -0.2791
25729W        W39143  17.294   6.216  10.681 -0.0927  0.0937 -0.1553
25730W        W39144   4.995  16.208   1.300  0.0514 -0.1578  0.3342
25731W        W39145  13.354   4.286   2.507 -0.0729 -0.0026  0.0289
25732W        W39146  15.095  17.869   3.553 -0.0518 -0.2410 -0.0639
25733W        W39147  13.404  10.354   3.744  0.1130 -0.0556  0.0589
25734W        W39148   1.535  15.410   6.022 -0.0828 -0.3587 -0.2004
25735W        W39149   9.392   3.883  15.355  0.0733 -0.3558 -0.0035
25736W        W39150   1.126   1.951   2.354  0.1263 -0.2426  0.1224
25737W        W39151  13.022  10.426   1.013  0.3063 -0.0013 -0.3294
25738W        W39152   4.627  10.552   3.781  0.2472 -0.2349 -0.0579
25739W        W39153   6.156   2.885   1.752  0.2520  0.1345 -0.0981
25740W        W39154   6.331  15.377  15.094 -0.0312 -0.0102  0.0751
25741W        W39155  12.586  16.540  15.454  0.0628  0.0239 -0.0820
25742W        W39156  14.684   2.010   3.319  0.1102 -0.1252  0.0953
25743W        W39157   0.346  17.420   4.729 -0.1599  0.3282  0.2005
25744W        W39158   5.832  16.486   4.691  0.1366  0.4089 -0.0848
25745W        W39159  14.194   8.361  11.957  0.1203 -0.2254 -0.1044
25746W        W39160   2.806   1.901  11.368  0.0508  0.1068 -0.1879
25747W        W39161  13.131   6.014   4.631  0.0542 -0.1760  0.0558
25748W        W39162  14.181   5.694   4.378  0.0896 -0.0704  0.2455
25749W        W39163   4.657  11.249   3.087  0.0440 -0.0266 -0.1400
25750W        W39164  13.026  14.715  14.712 -0.0728  0.1130  0.0123
25751W        W39165   6.903   0.777  13.345 -0.0867  0.0756  0.4443
25752W        W39166  10.441   1.935  14.990  0.0247 -0.1443 -0.0127
25753W        W39167  17.801  17.879  11.506  0.1807 -0.0922 -0.1031
25754W        W39168   0.451   3.282   4.195 -0.2003  0.0539 -0.0715
25755W        W39169  17.983  11.350   0.902  0.3782  0.1847 -0.1642
25756W        W39170  10.641   2.467  15.625 -0.1234 -0.3959 -0.3405
25757W        W39171   9.619   8.024  11.821 -0.0852 -0.1373  0.1258
25758W        W39172   0.772   6.322  14.117 -0.0873  0.1658  0.1504
25759W        W39173   3.709   8.911  10.512  0.0258 -0.3850  0.2443
25760W        W39174   3.453  12.743   2.984  0.0751  0.2151  0.0604
25761W        W39175   8.204  18.082  10.855 -0.1357 -0.2581 -0.0614
25762W        W39176   2.581  16.304   1.492  0.0331 -0.0887 -0.0828
25763W        W39177  13.730  16.019  14.102  0.2085 -0.0297 -0.1019
25764W        W39178  10.394  13.964   1.810  0.0195  0.1361 -0.0066
25765W        W39179   9.218   8.598  14.283  0.2114  0.0764 -0.0234
25766W        W39180   5.136   3.690  14.540  0.0500  0.1100  0.0082
25767W        W39181  11.077   6.618   0.387 -0.2584 -0.1704  0.1854
25768W        W39182  14.675  12.802  14.339  0.0504 -0.3239 -0.2428
25769W        W39183   0.460  15.192   2.041  0.1382  0.3367  0.1875
25770W        W39184  15.314   3.174  11.971  0.3761 -0.1306 -0.2968
25771W        W39185  14.502  10.204   0.274  0.0696  0.0915 -0.1364
25772W        W39186  12.516   2.362  10.915  0.0384 -0.0350  0.2304
25773W        W39187  15.591  15.780  15.124  0.2734  0.0084  0.1720
25774W        W39188   6.311   0.620   0.368 -0.1792  0.0799  0.2099
25775W        W39189   0.464  18.077  13.850  0.2636 -0.0102 -0.0627
25776W        W39190   5.304  12.017  11.438 -0.0551 -0.0897  0.1917
25777W        W39191  15.775   2.832   1.983  0.0031 -0.0494 -0.1718
25778W        W39192  11.023  16.519   0.825 -0.0005  0.4690 -0.0875
25779W        W39193  17.446   1.450   5.898 -0.2148  0.0266 -0.0742
25780W        W39194   4.703  10.152   7.094 -0.1358  0.0365 -0.1190
25781W        W39195  17.919   1.417   2.322  0.3352  0.1414  0.0004
25782W        W39196  16.445  15.217   6.034 -0.3395  0.1345 -0.0305
25783W        W39197   4.194   6.338   1.100 -0.0253 -0.2611 -0.0435
25784W        W39198   1.321  10.682   5.719 -0.0020  0.0266  0.0003
25785W        W39199   0.760   9.793   3.576 -0.0717 -0.1446  0.0937
25786W        W39200   7.646  17.476   1.684  0.0823 -0.1473  0.0936
25787W        W39201  14.269   9.309  10.743 -0.1140  0.0758 -0.0169
25788W        W39202  15.407   9.759  13.543  0.3080 -0.0160  0.0746
25789W        W39203   9.975  15.819  15.284 -0.0106 -0.1058 -0.2683
25790W        W39204   5.919   6.521  12.814  0.2234  0.0632  0.0960
25791W        W39205  15.454  16.061   0.916  0.3222 -0.1792  0.2001
25792W        W39206   4.288  17.900   6.234 -0.2814  0.2351 -0.0184
25793W        W39207  14.561  16.371  11.182 -0.0963  0.0951 -0.1451
25794W        W39208   6.272   1.556   0.526  0.0764 -0.2529  0.1799
25795W        W39209   6.458   2.288   3.377 -0.0363 -0.0964 -0.3536
25796W        W39210   1.143   5.879   4.113  0.0970 -0.1871 -0.2816
25797W        W39211  16.226   8.666  12.946  0.0847  0.0739 -0.3685
25798W        W39212   1.694  10.293  13.719  0.1221 -0.0451  0.0553
25799W        W39213   2.940  15.327  14.999  0.1097  0.2510 -0.1467
25800W        W39214   6.632  17.174   1.217  0.0590  0.0782  0.1197
25801W        W39215  17.118   4.520   5.114  0.1316  0.0075 -0.0602
25802W        W39216   8.081   0.146   5.451 -0.2450 -0.2899 -0.0448
25803W        W39217  17.628   9.410  12.853  0.0484 -0.3516  0.0412
25804W        W39218  13.954   1.482   4.001  0.0480  0.1643 -0.4780
25805W        W39219  12.237  16.078  15.500 -0.1466 -0.3630 -0.0410
25806W        W39220   4.478   2.122   4.431 -0.4368 -0.0073 -0.1190
25807W        W39221  16.355  15.707  12.554  0.1596 -0.0552 -0.0380
25808W        W39222  17.229  16.321  15.059 -0.0929 -0.1259 -0.0250
25809W        W39223   1.337   1.844  13.197  0.0039  0.1540 -0.2328
25810W        W39224   3.835  13.869   4.722  0.0474  0.1272  0.1337
25811W        W39225   9.799  12.986  11.175  0.1189 -0.0153  0.1941
25812W        W39226   4.053   2.172  10.996  0.0030 -0.1338 -0.0285
25813W        W39227  14.976   9.974  14.301  0.2711  0.1384 -0.0333
25814W        W39228  12.374   0.178   5.737 -0.2097  0.2083 -0.2134
25815W        W39229   7.467   9.118   3.277  0.2487  0.1712 -0.2270
25816W        W39230   9.737   6.851  15.523  0.0481  0.1034  0.0636
25817W        W39231   8.169   5.564   0.863 -0.0665  0.2131 -0.2803
25818W        W39232   8.529  10.723  15.337  0.0405  0.0495  0.0085
25819W        W39233  11.549  12.674   5.460 -0.1814  0.0716 -0.0117
25820W        W39234  15.278   3.612  11.679  0.0339  0.0622 -0.0260
25821W        W39235   5.354  10.072  12.052  0.3147  0.1307 -0.2708
25822W        W39236  17.754   5.920   4.748  0.2984 -0.0163 -0.3380
25823W        W39237   8.310  13.791   0.948  0.2220 -0.0988 -0.0068
25824W        W39238  12.793  13.415  14.134 -0.2549  0.0649  0.1814
25825W        W39239  12.040   5.157  16.369  0.2543 -0.2216 -0.2443
25826W        W39240   6.781  13.706  13.030  0.1743 -0.3682 -0.4123
25827W        W39241  10.310   5.394   4.857 -0.1084 -0.3726 -0.2465
25828W        W39242   7.237  15.063   2.263  0.1158  0.2042  0.2401
25829W        W39243  15.331   6.717  11.227 -0.0818  0.1369 -0.3050
25830W        W39244   8.181  14.053   4.633 -0.0266 -0.1209 -0.1233
25831W        W39245  13.875  17.999   1.567 -0.0227  0.0027  0.3502
25832W        W39246   9.866  14.289   1.206  0.2440  0.0918  0.0183
25833W        W39247  16.050   3.588  10.985 -0.1609  0.0307  0.0495
25834W        W39248   0.959  16.210  12.031  0.3274  0.0809 -0.2327
25835W        W39249  16.895  13.495  14.524  0.0500 -0.0577  0.0849
25836W        W39250   8.753  13.852   1.922  0.2984 -0.2160 -0.1056
25837W        W39251  15.465  13.693   4.909 -0.0906 -0.1795 -0.0195
25838W        W39252   4.827  12.033  12.126 -0.0289 -0.0599 -0.0288
25839W        W39253  10.122   0.005   3.986  0.1495 -0.0897  0.0931
25840W        W39254  12.485  12.649  14.492  0.0554 -0.2034 -0.0220
25841W        W39255   7.712   9.769  11.584  0.5488 -0.2082 -0.0947
25842W        W39256  17.506  15.772  11.023 -0.0173  0.2779  0.1425
25843W        W39257  15.356   7.432   1.576  0.1211  0.0120  0.0310
25844W        W39258   9.005  15.390  13.056 -0.0700 -0.0852  0.0620
25845W        W39259  15.088   5.524   1.781 -0.3334 -0.2851  0.1051
25846W        W39260  15.453   4.994   3.794  0.1211  0.0609 -0.1687
25847W        W39261  10.393  11.940  11.785  0.0235  0.2112 -0.2189
25848W        W39262   5.222  17.993   1.147  0.0904  0.0200  0.4201
25849W        W39263  13.266   6.951   1.929 -0.0757 -0.1886  0.1793
25850W        W39264   4.269  12.634   0.258  0.0980 -0.0364  0.0479
25851W        W39265   7.946   7.475   4.904  0.2806  0.1382 -0.0549
25852W        W39266  17.499   4.106   2.024 -0.0241  0.1207 -0.0396
25853W        W39267   1.733   9.615   2.902 -0.0627  0.1358 -0.2936
25854W        W39268  16.322  13.910  13.018  0.1990 -0.0074 -0.0279
25855W        W39269  14.653  15.902  11.338  0.1118  0.0831  0.2537
25856W        W39270   4.312   6.253  14.901  0.1222 -0.2513  0.1606
25857W        W39271   6.592   3.819   2.226  0.1848 -0.3119  0.2649
25858W        W39272   8.298  17.324  13.451 -0.0668 -0.0230  0.0208
25859W        W39273   9.434   0.027  12.667 -0.1449  0.1048  0.1285
25860W        W39274  14.234  10.561  16.455 -0.1385  0.0354 -0.0249
25861W        W39275  17.416   4.897   5.308 -0.2100 -0.0425  0.2115
25862W        W39276   3.380  11.253   5.806 -0.0355  0.2872  0.0596
25863W        W39277   7.551  10.142   2.037 -0.1760 -0.0913 -0.0729
25864W        W39278  17.581   0.053  11.758 -0.1348 -0.1574 -0.1332
25865W        W39279  11.984   5.391  15.773 -0.0981 -0.0631  0.1636
25866W        W39280  16.654  12.032   3.167  0.0716 -0.2792  0.0230
25867W        W39281  10.369   7.360   0.867  0.0597 -0.0747 -0.1579
25868W        W39282   9.602   6.047  12.554 -0.0643  0.0545  0.2353
25869W        W39283   1.637   4.564   1.131  0.1275 -0.1870 -0.0563
25870W        W39284   0.564   4.620   0.751 -0.3130 -0.0490 -0.2222
25871W        W39285   5.326  11.418  13.729  0.0405 -0.0397 -0.1705
25872W        W39286   0.379  17.613  13.755 -0.3394  0.1447 -0.4202
25873W        W39287  12.844   3.707  11.850  0.0687  0.1541  0.2064
25874W        W39288   1.434  17.509   0.536 -0.2705 -0.0657 -0.2060
25875W        W39289  10.396   3.343  12.488  0.1308 -0.0262 -0.1370
25876W        W39290   1.227  14.753   4.637 -0.2912  0.0695  0.4399
25877W        W39291   0.434   1.601  14.987  0.1719  0.1715 -0.0934
25878W        W39292   2.613  16.729  12.973 -0.0910 -0.0413 -0.2793
25879W        W39293   6.724  10.455   2.561  0.3161 -0.1538  0.0575
25880W        W39294   2.049   2.754   4.865 -0.0385 -0.0220  0.0398
25881W        W39295  10.416   1.212   4.512  0.0082  0.2317  0.0821
25882W        W39296  11.968   9.921   4.180  0.1067  0.2970 -0.0695
25883W        W39297  10.733  17.166   4.310 -0.0285 -0.3462 -0.0684
25884W        W39298  17.941   9.686   6.066  0.0751  0.0606 -0.0195
25885W        W39299   4.889   5.886   0.262  0.0811 -0.2612 -0.3969
25886W        W39300  16.396  10.183   3.507  0.0450  0.0086  0.3852
25887W        W39301  15.789   1.571   2.540  0.2303 -0.0937  0.0204
25888W        W39302  10.986   1.821  10.213  0.0358 -0.0978  0.5205
25889W        W39303   9.520  10.936  11.090  0.0086  0.0598 -0.2890
25890W        W39304   5.061   1.430  12.095 -0.1058  0.1061 -0.1985
25891W        W39305  12.022  12.981   4.780 -0.1332  0.0631 -0.0081
25892W        W39306   7.384   8.790   2.917 -0.0444 -0.0744  0.0339
25893W        W39307  12.304   5.627   5.668  0.2922 -0.1815  0.3346
25894W        W39308  14.928  12.703  10.986 -0.1056 -0.2039 -0.0658
25895W        W39309  11.555  14.592   4.827 -0.2925  0.3530 -0.0265
25896W        W39310   9.396  16.104  11.886 -0.0365 -0.2864  0.1519
25897W        W39311  11.122   1.672   0.684 -0.1293 -0.0805 -0.2272
25898W        W39312   2.534   6.329   2.006  0.4192 -0.2619  0.1006
25899W        W39313   7.009   1.593   5.481 -0.0607  0.0287 -0.1082
25900W        W39314  15.881   3.885   0.858 -0.1242 -0.0512 -0.1294
25901W        W39315   4.790  12.564   2.429  0.1403  0.2137 -0.0596
25902W        W39316  17.505  18.115  11.121  0.1274  0.1647  0.1007
25903W        W39317   2.694  14.606   4.226 -0.2871  0.1359 -0.0745
25904W        W39318   7.117  16.784  10.907 -0.2169 -0.3269 -0.5635
25905W        W39319  15.700  14.675   2.247 -0.0081  0.0774 -0.0759
25906W        W39320   1.057  16.404   3.178  0.0193  0.1579 -0.0597
25907W        W39321   6.183   2.897   6.385  0.0669 -0.0881 -0.1143
25908W        W39322  14.945  12.754  13.443 -0.2327  0.0917  0.0718
25909W        W39323  16.448   4.744  10.760  0.2329 -0.1497 -0.0134
25910W        W39324   0.806   7.897  15.195 -0.0377 -0.0728  0.2267
25911W        W39325   5.080   9.278   5.411  0.0227  0.1265  0.0255
25912W        W39326  16.296  15.095   4.516  0.2818  0.1842  0.2175
25913W        W39327  12.560   5.951  11.201 -0.1384  0.2359  0.1047
25914W        W39328  17.584   1.000  14.565  0.2506  0.0568  0.3902
25915W        W39329   0.380   5.285  15.002  0.1193  0.0420 -0.0789
25916W        W39330   7.295  17.470  11.677 -0.0338 -0.2094 -0.1193
25917W        W39331  15.738   5.416  12.183 -0.0238  0.0282 -0.2031
25918W        W39332  15.169   1.287   1.170 -0.0620  0.2323  0.1062
25919W        W39333   2.588  17.947   3.608 -0.4156  0.1185  0.0207
25920W        W39334  17.476  11.198   5.267 -0.0780 -0.0161  0.1059
25921W        W39335  13.355  17.186   4.581 -0.0034 -0.0212  0.1208
25922W        W39336   5.260   2.665   0.772 -0.1282  0.3595  0.1200
25923W        W39337   8.988  14.084   3.226 -0.1885  0.2148 -0.1667
25924W        W39338   7.431  15.767  10.043  0.1497  0.0872 -0.0263
25925W        W39339   2.547   4.151   1.828 -0.1320 -0.0827 -0.2653
25926W        W39340  15.840  11.202   1.712 -0.3376  0.2684  0.4310
25927W        W39341  16.050  15.872   3.354  0.0845  0.2670 -0.2719
25928W        W39342  13.509  11.644   5.264 -0.2819 -0.4608 -0.0828
25929W        W39343   1.411   2.241  12.501 -0.1831 -0.0326 -0.1132
25930W        W39344  16.333  15.390  10.316  0.2381  0.1190 -0.0073
25931W        W39345  17.467   8.532  13.882  0.0928 -0.7428 -0.0163
25932W        W39346  11.965   1.040   2.260 -0.3306 -0.1853  0.1686
25933W        W39347   4.049  15.219   5.888  0.1532 -0.1319 -0.1457
25934W        W39348  17.252   1.232  11.071 -0.0981 -0.0097 -0.2789
25935W        W39349   0.976   1.437   0.866 -0.3929 -0.0935 -0.0665
25936W        W39350  18.034   2.598  15.888 -0.2276 -0.1553  0.1835
25937W        W39351  10.335   9.362   5.056 -0.1072  0.2324 -0.3538
25938W        W39352   5.355  10.923  15.743 -0.0022  0.0928  0.1938
25939W        W39353  18.164   4.446  12.938 -0.0090 -0.0265 -0.0820
25940W        W39354   9.650  11.250   4.165 -0.4176 -0.1315  0.0224
25941W        W39355  18.108   0.724   4.215  0.0959  0.2049  0.2232
25942W        W39356  17.087   5.752   3.666 -0.1739 -0.4419 -0.0861
25943W        W39357   9.712   8.656  14.492 -0.0008  0.1195 -0.1271
25944W        W39358   3.622   2.372  10.138 -0.1772 -0.1886 -0.5121
25945W        W39359   7.779   3.587   4.010 -0.3260  0.1521 -0.0017
25946W        W39360  13.980   4.092  13.260 -0.1363 -0.0756 -0.1237
25947W        W39361   9.206  10.194   5.401 -0.2462 -0.1265 -0.2136
25948W        W39362  16.889   9.687  16.494 -0.3353 -0.0923  0.3266
25949W        W39363   7.672  10.860  16.415 -0.3204 -0.2551  0.0798
25950W        W39364   1.951   9.128   5.738 -0.0885  0.4442  0.0426
25951W        W39365   8.846   2.313   4.967  0.0226  0.1310  0.1265
25952W        W39366   4.738   4.328   5.632  0.0285 -0.1431 -0.0414
25953W        W39367   7.342   8.205   4.577 -0.2011  0.0237 -0.3100
25954W        W39368   4.628   5.095   1.103  0.1323  0.2437  0.3257
25955W        W39369  18.169   3.776   2.096  0.1096  0.2411 -0.2952
25956W        W39370   2.156  16.127   5.652  0.0188  0.2613 -0.2059
25957W        W39371   4.659   6.081  12.150  0.1295  0.2750  0.2291
25958W        W39372   4.780  14.854   1.905 -0.2353 -0.0713  0.1404
25959W        W39373   0.929  17.410   0.483 -0.2100  0.2301  0.1753
25960W        W39374  15.425   5.754   0.766  0.0569 -0.2987 -0.2012
25961W        W39375  12.254  10.794  14.312 -0.1362 -0.2252 -0.0974
25962W        W39376  11.209  10.624  11.182 -0.1338 -0.0246  0.0937
25963W        W39377  13.573  14.179  11.446  0.1879 -0.0606  0.1718
25964W        W39378   6.054  17.133  12.546  0.0678  0.1430 -0.2495
25965W        W39379   6.586   5.598  12.078 -0.0778  0.2169  0.0629
25966W        W39380  14.178  14.268  15.654 -0.1291  0.2875 -0.0544
25967W        W39381  17.483  16.668  13.485  0.0027 -0.1326  0.1121
25968W        W39382   7.763   6.370   3.715 -0.0750 -0.0772  0.1631
25969W        W39383   5.136  13.323  11.862 -0.3290  0.2087 -0.0251
25970W        W39384  17.080  10.836   6.536  0.0184 -0.1148 -0.0148
25971W        W39385   7.051   1.218  11.161  0.0755  0.1025  0.3617
25972W        W39386  14.440  12.066   2.513  0.0226  0.0685  0.2161
25973W        W39387   3.445  12.261  12.913  0.2258  0.0577 -0.1426
25974W        W39388  17.919  11.472  14.109 -0.1661 -0.1159 -0.0973
25975W        W39389  18.172   5.233  15.809 -0.2100  0.0777  0.0716
25976W        W39390   6.894   3.647  14.885 -0.2653 -0.1366 -0.0329
25977W        W39391   2.272  15.974  13.242 -0.0060  0.1188 -0.2401
25978W        W39392   3.016   7.952  13.091 -0.1220  0.0305 -0.0192
25979W        W39393  11.722  14.979   4.377  0.1869 -0.1205 -0.3094
25980W        W39394  12.986   3.159  11.879  0.2780 -0.2172  0.2383
25981W        W39395  10.291   4.878   4.755  0.1138  0.3161  0.1008
25982W        W39396   1.883   8.067   2.052 -0.1975 -0.2340  0.0335
25983W        W39397  13.938  10.645  14.044 -0.0647 -0.2499  0.1620
25984W        W39398   5.047   5.928   6.010 -0.0594 -0.0208  0.2031
25985W        W39399  14.729   4.918  12.900 -0.1877  0.0403  0.0356
25986W        W39400  17.245  17.138   4.113 -0.0060 -0.0174 -0.0480
25987W        W39401  13.548  15.669   5.558  0.1150 -0.1718 -0.1599
25988W        W39402   4.441  10.344   6.349 -0.1174 -0.4088  0.1572
25989W        W39403   0.230  11.569  12.491 -0.2377 -0.1177 -0.0617
25990W        W39404   7.080  12.966   2.678  0.0894 -0.0835  0.0508
25991W        W39405  10.687  14.368  13.155  0.0214 -0.1022 -0.0291
25992W        W39406  10.201   9.469  15.690 -0.1389 -0.0679  0.1102
25993W        W39407  11.475   3.044   2.093  0.0825  0.0363  0.1755
25994W        W39408  17.870   5.128   5.825 -0.0996 -0.2529 -0.0836
25995W        W39409   2.203  12.435  13.872 -0.3101  0.2733 -0.0193
25996W        W39410  11.634   3.795  12.697 -0.1104 -0.4421 -0.1286
25997W        W39411  13.155  11.202  14.826 -0.1475  0.0924 -0.0130
25998W        W39412   4.461  11.607  12.551  0.1092  0.0432 -0.2330
25999W        W39413   5.084   6.017   5.351 -0.2455 -0.0276  0.0092
26000W        W39414   5.112  16.115   4.831  0.3136 -0.1345  0.1855
26001W        W39415   6.592   7.123   4.909  0.0615  0.2892 -0.3085
26002W        W39416  14.019   5.953   3.434 -0.0269  0.3137 -0.2305
26003W        W39417   3.073   2.084   2.438 -0.0751  0.1790 -0.0921
26004W        W39418  16.582  14.008   2.335  0.1682 -0.1929  0.0210
26005W        W39419   7.463   1.530  10.772  0.1178  0.0812  0.0280
26006W        W39420  16.137   1.653   1.970  0.1324  0.4852  0.0091
26007W        W39421   3.827   6.509   5.065  0.0337 -0.0812  0.2395
26008W        W39422  13.603   1.052   2.533  0.1164  0.0635 -0.0745
26009W        W39423  15.443  13.904  13.642  0.3301 -0.5001 -0.1826
26010W        W39424   5.300  16.529   1.503  0.0049 -0.1681  0.2729
26011W        W39425   1.735   0.189  12.700 -0.0452  0.1829  0.1696
26012W        W39426   7.358  14.860   0.325 -0.2186 -0.0442 -0.1223
26013W        W39427   4.653   0.869  15.621  0.1305  0.1351 -0.1139
26014W        W39428  11.739   0.638   3.743 -0.1048  0.2447 -0.4932
26015W        W39429   9.578  13.143  15.086 -0.1894 -0.0398  0.0507
26016W        W39430   1.050   8.938  13.495  0.1558  0.1731  0.0248
26017W        W39431   0.108  13.981  11.342 -0.1553  0.0933  0.0659
26018W        W39432   1.813  17.968  16.249  0.2159  0.3309  0.1685
26019W        W39433   7.175  17.332  15.972  0.1660 -0.0214  0.3643
26020W        W39434  16.795   3.152  13.262 -0.0473  0.2262 -0.1874
26021W        W39435  10.392   2.432   3.356  0.2196  0.2336  0.1540
26022W        W39436  15.885   6.979   3.938 -0.0177  0.3555  0.1810
26023W        W39437   6.699  10.955   2.163 -0.2018  0.0220 -0.0264
26024W        W39438  13.541   3.695   1.009 -0.2175  0.0201  0.2934
26025W        W39439   8.383   6.633   0.466  0.4046 -0.1704 -0.1254
26026W        W39440   7.841   9.004   6.152 -0.2463 -0.0087  0.1332
26027W        W39441   6.260   8.961  14.937  0.0369 -0.1178  0.5172
26028W        W39442  12.529   9.212   0.133 -0.0459 -0.0221 -0.0172
26029W        W39443  16.074  11.731   1.960  0.1412  0.0709  0.0895
26030W        W39444  14.081  14.749  14.411  0.1479  0.1092  0.0944
26031W        W39445  14.627   2.671   1.325 -0.2207  0.1402  0.0358
26032W        W39446   2.054  16.641  14.383  0.1815 -0.0809 -0.1121
26033W        W39447  17.565  12.869   0.912 -0.3239 -0.0742 -0.1951
26034W        W39448   6.291   0.615   3.077  0.0390  0.3421  0.0021
26035W        W39449   2.344  14.897  12.389  0.0378 -0.0153  0.0650
26036W        W39450  12.862  17.948   4.877 -0.0172  0.2699 -0.1266
26037W        W39451  15.961  17.466   0.610 -0.2621  0.0870  0.1441
26038W        W39452  11.363  10.361   0.333 -0.0291 -0.1639  0.1893
26039W        W39453   1.846   7.250  12.733 -0.2597  0.1992  0.0006
26040W        W39454  13.623   7.025  11.271  0.1762  0.1305  0.0154
26041W        W39455   9.516   8.012   4.066  0.0613 -0.3609 -0.0822
26042W        W39456   6.650  18.195   2.977 -0.1466  0.0071  0.0677
26043W        W39457  14.458  10.079   4.593 -0.0254  0.1689  0.1062
26044W        W39458  16.328   9.832   2.606 -0.3088  0.2458 -0.2595
26045W        W39459   1.634  14.215  13.146 -0.0302 -0.1481 -0.2831
26046W        W39460   8.145   8.009   4.282 -0.1840 -0.0456  0.3072
26047W        W39461  15.370  13.536  10.040  0.0423 -0.3839  0.0606
26048W        W39462   4.785  12.475   1.489  0.2384  0.1492  0.0364
26049W        W39463   1.904  17.430   5.688 -0.1895 -0.1107  0.1581
26050W        W39464   8.558   4.194   2.768 -0.1000 -0.3911  0.0459
26051W        W39465   4.270  11.868   4.223 -0.1885 -0.1558 -0.0858
26052W        W39466   2.884   4.901   3.012 -0.1878  0.0127  0.1959
26053W        W39467   2.583   3.433   1.586  0.1490  0.0127  0.0519
26054W        W39468   2.270   7.032   2.782 -0.0521 -0.1326 -0.0218
26055W        W39469  16.792  15.199   3.563  0.0547 -0.1192  0.0479
26056W        W39470   4.156   9.031  16.242  0.1420  0.2077  0.0833
26057W        W39471  12.218   3.697  12.848 -0.1355  0.3538  0.0584
26058W        W39472  12.732   8.568  15.462  0.1081 -0.0143 -0.0976
26059W        W39473  12.783   4.427   0.651  0.0836 -0.2335 -0.1239
26060W        W39474  12.912   1.468  15.705  0.1326 -0.3949 -0.0316
26061W        W39475   9.045  14.366  14.858 -0.0460 -0.1304  0.3933
26062W        W39476   0.957   4.989  13.728 -0.1182 -0.0861 -0.2801
26063W        W39477  10.808  15.866   2.572  0.1416  0.1935  0.0936
26064W        W39478   7.466   5.924  12.667 -0.3597 -0.1325  0.0088
26065W        W39479   3.643   9.499  15.582 -0.1775 -0.0431 -0.0980
26066W        W39480  10.306  15.599   0.043  0.1859  0.0383 -0.2703
26067W        W39481  12.343   8.414  13.235 -0.0867 -0.3008 -0.2939
26068W        W39482   9.943  17.909   5.427 -0.2972 -0.0207  0.4188
26069W        W39483   5.810  11.587   3.921  0.0024  0.1637  0.2053
26070W        W39484   1.465  10.003  10.758 -0.1707  0.1230  0.1104
26071W        W39485   5.351   6.591  14.996  0.1530  0.0532  0.2064
26072W        W39486  15.332  13.466   5.389  0.2604 -0.0548  0.1423
26073W        W39487  17.058  14.200   5.201  0.0023 -0.0568 -0.2067
26074W        W39488   4.615  15.001   0.936 -0.0467  0.1305 -0.1938
26075W        W39489   6.130  14.131   1.159 -0.3234  0.2608  0.2504
26076W        W39490   3.684   3.000   4.629  0.0593 -0.1316 -0.3183
26077W        W39491  12.920   1.980  15.163 -0.0148 -0.1369  0.3122
26078W        W39492   5.379  11.390  12.253  0.0529 -0.0097  0.2094
26079W        W39493   0.018   9.396  11.676  0.1454  0.0011  0.1084
26080W        W39494   3.972   5.506  10.928  0.1115 -0.1708  0.0386
26081W        W39495   2.820   9.583   5.763 -0.3644 -0.2093  0.0769
26082W        W39496   3.345   1.121   6.394  0.0109 -0.2148  0.0346
26083W        W39497   5.027  17.567   4.015  0.3331  0.0392  0.1271
26084W        W39498   9.389   8.747   4.324  0.3826  0.2260 -0.1275
26085W        W39499   5.740   6.417  13.296 -0.0987  0.0629  0.2023
26086W        W39500  16.319  15.006   0.586  0.1342  0.2820  0.1304
26087W        W39501   7.044  10.098   1.757  0.4069 -0.1914  0.2807
26088W        W39502   6.313  12.833   0.272 -0.1153 -0.0522  0.0361
26089W        W39503  17.636  15.048   0.152  0.0419 -0.2281  0.1307
26090W        W39504  11.891   2.116  13.045  0.1387  0.0503  0.0585
26091W        W39505   9.965   8.143  13.738 -0.2422  0.0095  0.0782
26092W        W39506  10.009  10.609   0.153  0.2851  0.2178 -0.0313
26093W        W39507  13.200   3.992  15.558  0.1406  0.0141  0.0836
26094W        W39508  13.343  10.614  12.786  0.1611  0.0396 -0.1859
26095W        W39509   8.949  14.524   1.478  0.1553 -0.1869 -0.1489
26096W        W39510   4.211   1.974   1.469  0.0446 -0.2652 -0.1769
26097W        W39511  16.406  15.808  15.391  0.0990  0.0786  0.1190
26098W        W39512  10.087   6.168   4.594 -0.1066  0.1428 -0.1171
26099W        W39513   8.733  15.079   4.815  0.0203  0.2373 -0.1097
26100W        W39514  16.315  15.103   3.877 -0.1015 -0.0336  0.0298
26101W        W39515  11.944   2.273   5.557  0.0720 -0.0021  0.1584
26102W        W39516   3.552   9.161  13.786  0.1887 -0.1112 -0.1946
26103W        W39517   1.038  13.690   3.649 -0.2352 -0.2989 -0.0817
26104W        W39518   1.765   9.345   1.382 -0.0874 -0.3288 -0.0994
26105W        W39519   9.273  16.890  13.270  0.1306 -0.0894  0.1507
26106W        W39520   7.623  15.203   0.602 -0.2466 -0.0410  0.1094
26107W        W39521  11.615   7.815  15.100  0.2220  0.0332  0.0788
26108W        W39522   0.399   6.643  13.475 -0.0795  0.2331  0.1300
26109W        W39523  10.086   7.636  16.017 -0.1510 -0.2363 -0.1179
26110W        W39524  11.104   2.353  14.759  0.0578  0.3464  0.0050
26111W        W39525   5.353   1.487  13.574  0.0547 -0.2824 -0.0006
26112W        W39526   3.953   0.539   4.649  0.1743 -0.1323 -0.3438
26113W        W39527   9.580  15.572  12.589 -0.0568  0.0061 -0.1264
26114W        W39528   7.029   0.431  11.473 -0.1654  0.3815  0.0195
26115W        W39529  10.903   1.847  14.771  0.0387  0.3969 -0.2152
26116W        W39530  13.710  11.331   2.244 -0.1504  0.0982  0.0195
26117W        W39531   8.946  12.600   4.148  0.0828 -0.0699  0.0500
26118W        W39532   1.130   7.375  13.152  0.0767 -0.0530  0.2204
26119W        W39533   1.396  17.007  15.307  0.2645  0.3078 -0.0634
26120W        W39534   0.762   0.390   1.092  0.0244  0.1256 -0.0499
26121W        W39535  15.998  14.338   5.386 -0.1624 -0.0549 -0.0058
26122W        W39536  14.356   8.190   1.100 -0.0573 -0.1074 -0.1513
26123W        W39537  13.923  13.092   4.234 -0.0633 -0.0564 -0.0072
26124W        W39538  17.095   6.076  15.994  0.0531  0.0911 -0.0796
26125W        W39539   6.006   3.550   5.872 -0.0422  0.1074  0.1699
26126W        W39540   7.475   2.225  12.538  0.2438 -0.0634  0.2638
26127W        W39541  16.746  12.560   5.657  0.1779 -0.0642 -0.1501
26128W        W39542  16.292  11.687   0.440  0.0642 -0.0071  0.0541
26129W        W39543  18.184  10.429   1.650  0.1185  0.2796  0.1402
26130W        W39544  11.135  15.387  11.670  0.2375 -0.0387  0.1202
26131W        W39545   4.459   0.985   5.575  0.0623 -0.0369 -0.0400
26132W        W39546  13.345   5.582   0.128  0.0098 -0.1691 -0.0988
26133W        W39547   9.324  17.787  11.132  0.0284 -0.0232  0.2057
26134W        W39548  17.590  17.967  10.631 -0.1632 -0.1699  0.0810
26135W        W39549   9.031   0.488  12.396 -0.4076 -0.0518 -0.1367
26136W        W39550  17.289   3.906   5.633 -0.0359 -0.1920  0.3154
26137W        W39551  13.767  11.858  14.653  0.1146 -0.0149  0.3337
26138W        W39552  14.298  15.892   5.975  0.0583  0.1952 -0.1109
26139W        W39553   8.250  17.187  11.551  0.1889 -0.1127  0.1293
26140W        W39554   3.593  12.210  11.876 -0.0665 -0.1258  0.1072
26141W        W39555  14.004   4.059   5.950 -0.2466 -0.2603  0.1386
26142W        W39556  13.541  17.580  13.802 -0.1421 -0.3211  0.1134
26143W        W39557   5.150   5.630  12.564 -0.0039 -0.1450 -0.1281
26144W        W39558   6.090   8.024   1.965 -0.0687  0.3809  0.0617
26145W        W39559  17.861   6.964   0.095  0.3197  0.1817 -0.2837
26146W        W39560   4.451  17.804  10.838 -0.1582 -0.2815 -0.1048
26147W        W39561   4.767  11.069  14.218  0.1906 -0.1351  0.0594
26148W        W39562   1.994   6.850  13.216 -0.0935  0.1892 -0.4718
26149W        W39563   4.060  17.590  12.960 -0.1742 -0.0091  0.1450
26150W        W39564   6.385   7.189  15.646  0.2591 -0.2304 -0.0529
26151W        W39565   1.120   8.103   4.762  0.0215  0.1498 -0.2970
26152W        W39566  18.035   1.129  12.626  0.2188 -0.3174  0.0090
26153W        W39567   4.277  14.339  16.243 -0.0376 -0.1916  0.0071
26154W        W39568   5.543   2.031   0.931  0.0560  0.1495 -0.2499
26155W        W39569  16.919   5.891  15.286 -0.3826  0.2819 -0.1089
26156W        W39570   3.149   4.026  11.691  0.1762  0.1658  0.0602
26157W        W39571   2.488  14.424  14.955  0.1299  0.1945  0.2250
26158W        W39572   8.541  14.866   1.284  0.1352  0.3707  0.0381
26159W        W39573  16.969  14.355  14.383  0.0005  0.2232  0.4577
26160W        W39574  12.055  13.756  11.994  0.0221  0.0750 -0.2517
26161W        W39575   5.801   8.378   2.222  0.3557 -0.2306  0.1597
26162W        W39576   5.524  15.009  16.141  0.2527 -0.2479  0.0248
26163W        W39577   5.540   8.533  15.151  0.3355 -0.3274 -0.1377
26164W        W39578  15.832  16.439   2.215  0.1102  0.1839  0.3491
26165W        W39579   1.204   3.676   3.891  0.1454 -0.2208  0.0968
26166W        W39580  10.403  16.420  15.452 -0.2367 -0.0997 -0.2406
26167W        W39581   5.177  12.308   3.595  0.0569 -0.0103 -0.0106
26168W        W39582   5.665  10.790  11.311 -0.1387 -0.0538 -0.0278
26169W        W39583   3.879   5.128   2.808 -0.0270  0.1108 -0.1599
26170W        W39584   7.461   2.163   1.870 -0.3507 -0.3224 -0.0814
26171W        W39585   5.090   1.971  13.331  0.0293  0.2744 -0.2825
26172W        W39586  15.569   9.435  11.707  0.0011  0.2466 -0.1211
26173W        W39587  14.449   3.709   1.588  0.4940  0.1037 -0.1442
26174W        W39588   6.025  13.656  11.725 -0.0481  0.0309 -0.2028
26175W        W39589   0.387   6.082  12.242 -0.0227  0.1480 -0.0473
26176W        W39590  10.265  13.118  16.131  0.1516 -0.1859  0.0541
26177W        W39591   9.294   0.380  13.189 -0.0023 -0.1017 -0.1443
26178W        W39592  11.684   5.875   0.633  0.0766 -0.0134 -0.0601
26179W        W39593   9.647  10.201   2.836 -0.0187 -0.1506  0.2748
26180W        W39594   8.336   4.724  15.282 -0.0816 -0.3837  0.2246
26181W        W39595   4.502   2.654  15.605  0.0763  0.1229 -0.3688
26182W        W39596   2.340   3.888   4.171  0.1293 -0.1619 -0.1206
26183W        W39597  13.316   8.127   3.379 -0.1422 -0.2573  0.3057
26184W        W39598   7.137   0.267  11.969  0.2654  0.0684  0.0944
26185W        W39599  10.140   6.703  12.597  0.0148  0.0050  0.0765
26186W        W39600  18.132   4.474  15.463  0.2850  0.1229 -0.3775
26187W        W39601   8.161   4.701  10.670 -0.0572  0.0204  0.1104
26188W        W39602  10.661   7.899  10.804 -0.1919 -0.4875 -0.2269
26189W        W39603  11.224   9.472   0.380  0.1385  0.0533 -0.1871
26190W        W39604  16.839   1.582  12.379  0.1108  0.2655  0.0491
26191W        W39605   8.350   8.012   3.159 -0.2620  0.1627  0.0338
26192W        W39606  16.058   1.829   1.219 -0.0290 -0.2122  0.1190
26193W        W39607  16.335   4.176  15.998  0.0842 -0.0300  0.1436
26194W        W39608   2.232   7.613  15.024 -0.1765  0.1900 -0.0422
26195W        W39609   3.286  12.961   2.181  0.1252 -0.0974 -0.1308
26196W        W39610  16.028   7.627   2.457 -0.0488 -0.0155 -0.0946
26197W        W39611  18.221   1.789  14.740 -0.0064 -0.2797  0.0671
26198W        W39612   6.987  18.110  13.443  0.0327 -0.1533  0.2695
26199W        W39613  15.475  11.676   6.088  0.0721  0.0421  0.3563
26200W        W39614   2.824   4.135  13.929  0.1167 -0.0366 -0.4820
26201W        W39615   9.347   3.336  13.342  0.0300 -0.1032  0.0655
26202W        W39616  17.358   9.492   3.751  0.1041  0.2680  0.1341
26203W        W39617  13.807   2.343  10.555  0.1175  0.2512  0.1756
26204W        W39618   0.748   6.031  14.937  0.1409 -0.2015 -0.4681
26205W        W39619   6.173  18.212   4.150  0.0103 -0.2392 -0.2467
26206W        W39620   2.051   0.622   3.394  0.1675  0.1605  0.0372
26207W        W39621  12.809   5.301  11.244 -0.0300 -0.1484  0.1790
26208W        W39622  18.061   5.668  14.584 -0.2619 -0.0699  0.0326
26209W        W39623  13.295   6.642  10.373 -0.0355  0.2300  0.4827
26210W        W39624   7.775   5.640   1.929  0.0640  0.0846 -0.1764
26211W        W39625   2.501   9.959   3.118 -0.0439  0.0304  0.0163
26212W        W39626  15.656  13.896   1.821 -0.0555 -0.0585 -0.0706
26213W        W39627  12.796   0.714   2.262  0.0743  0.2161 -0.2301
26214W        W39628  10.998   0.983  10.566  0.1273 -0.1574 -0.2164
26215W        W39629  14.871  16.573   3.616 -0.1806 -0.0177 -0.0293
26216W        W39630   9.817  17.272   2.062  0.1661 -0.2037  0.1405
26217W        W39631   8.023  15.637  14.977  0.0113 -0.0943  0.2399
26218W        W39632  12.825  13.127  11.009  0.0920 -0.1741  0.2739
26219W        W39633  17.029  12.514  13.936  0.0386 -0.0874  0.0984
26220W        W39634   0.858   8.232  13.875  0.0093  0.1341 -0.3113
26221W        W39635  12.020  17.040  12.247 -0.0149  0.1420 -0.0626
26222W        W39636   4.246  10.147   5.837  0.0184  0.1329  0.0315
26223W        W39637   8.056   5.928  12.376  0.0517  0.1022 -0.1103
26224W        W39638  10.239   0.089  14.165 -0.0667 -0.1587 -0.1064
26225W        W39639  12.889   8.328   1.604 -0.1779  0.0742 -0.0316
26226W        W39640  15.432  13.055   5.687 -0.0109 -0.1799  0.4270
26227W        W39641   1.393   4.363  11.991  0.1627 -0.0011  0.0497
26228W        W39642  16.065  11.686  15.195  0.1031 -0.0775 -0.0290
26229W        W39643  11.823   9.773   1.405  0.0102 -0.0173 -0.3148
26230W        W39644   2.512   8.706  13.117  0.1758  0.2539 -0.1055
26231W        W39645   2.758   3.062  15.564 -0.3215 -0.3379  0.0359
26232W        W39646  14.804   4.542  12.156 -0.0733 -0.1299 -0.3787
26233W        W39647  11.319  10.619   3.300 -0.3043  0.3888  0.0253
26234W        W39648  15.365   8.807  12.208  0.0601  0.0047 -0.4371
26235W        W39649  12.352   5.941   5.292 -0.1183 -0.3099 -0.0313
26236W        W39650  16.917  14.550   2.189  0.0095 -0.0423 -0.1149
26237W        W39651   7.012  14.174   2.678 -0.0769  0.1372  0.0519
26238W        W39652   5.522  13.904   2.894 -0.0165 -0.0367 -0.2764
26239W        W39653   0.247   1.805   4.762 -0.2408 -0.0767 -0.3064
26240W        W39654   1.299   9.047  13.903  0.2511  0.2995  0.0365
26241W        W39655  11.428  12.792   0.166  0.2942 -0.2145  0.1685
26242W        W39656  18.026  14.927  14.788 -0.0597  0.1470  0.3545
26243W        W39657  15.208   7.556   4.453  0.1986 -0.1993 -0.0158
26244W        W39658   4.399  14.241  13.375  0.0331  0.1074 -0.1009
26245W        W39659   7.253   3.307   2.290 -0.0051  0.3550  0.2320
26246W        W39660  15.724   6.293   5.671 -0.2091  0.1405  0.0848
26247W        W39661   5.228   5.657   3.058  0.5016 -0.0594  0.2671
26248W        W39662  18.058   1.022   6.796 -0.0365 -0.1417 -0.1192
26249W        W39663  18.238   5.170  14.707  0.4301 -0.1720 -0.1918
26250W        W39664   1.757  14.583   1.229  0.1573  0.1501 -0.1201
26251W        W39665   0.509   8.085   0.697 -0.2246  0.2794 -0.2519
26252W        W39666  11.285   2.938   0.391 -0.2952  0.0352 -0.3645
26253W        W39667   6.029   1.771  14.260  0.0562  0.1693  0.1831
26254W        W39668  15.371  17.703  11.410 -0.3345 -0.0462  0.0184
26255W        W39669   8.959  16.215  15.729  0.0516  0.0499  0.0898
26256W        W39670  11.167  10.139  11.585  0.3392 -0.1366 -0.0010
26257W        W39671   4.912  10.252  13.719  0.2434 -0.0645  0.3822
26258W        W39672   1.129   9.035  15.895 -0.2305 -0.1715 -0.0689
26259W        W39673   3.747  10.233  13.856 -0.2497  0.3195 -0.0936
26260W        W39674  15.130  10.846   1.686  0.1183 -0.1271 -0.0720
26261W        W39675  12.431   6.746  11.845 -0.0423 -0.2409 -0.1233
26262W        W39676   4.574   3.610   5.018 -0.1636 -0.3663 -0.2779
26263W        W39677   2.951   6.185   2.122  0.0884  0.3239  0.0136
26264W        W39678  14.501  12.798  12.268 -0.3060 -0.0290 -0.1012
26265W        W39679  13.134   0.788   4.212  0.2907 -0.2116 -0.0736
26266W        W39680  15.109  12.407  14.253 -0.1801  0.0703 -0.3481
26267W        W39681   1.504   3.538  11.774 -0.0272 -0.1049 -0.1738
26268W        W39682  10.278   0.463  16.385  0.2123 -0.1310 -0.0250
26269W        W39683  16.594  12.907  11.148 -0.1468  0.0767 -0.0634
26270W        W39684   9.375   7.328  14.123  0.0996  0.1381 -0.1271
26271W        W39685   9.010  17.488  12.710 -0.1159 -0.0243  0.0470
26272W        W39686  10.971   8.675   5.477 -0.1392  0.1552  0.1926
26273W        W39687   8.208  12.762   3.770 -0.0611  0.1392  0.0186
26274W        W39688  15.141  15.711  11.371  0.0273 -0.2462  0.0798
26275W        W39689   9.340   2.556   1.191  0.0952 -0.0300  0.0108
26276W        W39690   0.380   2.615   1.497  0.1007 -0.0662  0.0999
26277W        W39691   8.720   0.295   2.762 -0.0159 -0.0847  0.1629
26278W        W39692   3.691  11.660   0.999 -0.0439  0.0535 -0.0529
26279W        W39693   8.605   1.340  12.977 -0.4362 -0.2044 -0.2175
26280W        W39694   6.366   8.425  11.321 -0.1742 -0.1058  0.0694
26281W        W39695  17.375  13.117   2.598  0.0703 -0.2707  0.1991
26282W        W39696   4.795  16.255  13.588 -0.0383  0.3041 -0.1959
26283W        W39697  15.370   9.195  14.719  0.1705  0.0868  0.1612
26284W        W39698   9.092  10.174  11.663  0.2680 -0.3536 -0.3902
26285W        W39699   3.742  15.458  11.851  0.1415  0.0998  0.0950
26286W        W39700   0.704  10.200  12.531  0.2487  0.1176  0.2468
26287W        W39701  11.955   6.289   0.588 -0.0115  0.0740 -0.1579
26288W        W39702   0.779  16.217   5.446  0.2214  0.1815 -0.1009
26289W        W39703   7.744   1.797  14.354 -0.2886 -0.2877 -0.1295
26290W        W39704  11.482  13.959   2.066 -0.2008 -0.0398  0.1951
26291W        W39705   6.355   3.333   1.959  0.0039  0.2221 -0.0282
26292W        W39706  16.808  16.216  14.610  0.0655  0.2491  0.1599
26293W        W39707  10.035  16.432   0.841  0.0755  0.2170 -0.4818
26294W        W39708   5.528   1.801   6.020  0.0983  0.4395  0.1353
26295W        W39709   3.778  11.059  10.889  0.1809 -0.0824 -0.1634
26296W        W39710  15.939   7.952   4.187  0.3896 -0.2678  0.2798
26297W        W39711   2.617   7.076  11.479 -0.0436  0.1292 -0.2032
26298W        W39712   6.161   9.200  15.348  0.0491 -0.0557 -0.2093
26299W        W39713   0.873   5.956   3.399  0.0308  0.0464 -0.1753
26300W        W39714   5.267   8.095  13.249 -0.0874 -0.1186  0.0219
26301W        W39715   1.058  12.825   0.488 -0.0890 -0.2073 -0.3008
26302W        W39716   7.873   2.064   1.101  0.1279  0.2532  0.2986
26303W        W39717   7.958   7.065   5.324 -0.0397 -0.1922 -0.0062
26304W        W39718   5.612  15.496   0.284 -0.0625  0.2559 -0.3291
26305W        W39719   8.825   2.600   1.207 -0.2048 -0.0544  0.0769
26306W        W39720   0.069   3.973  10.896  0.1461 -0.1511 -0.1344
26307W        W39721   7.232  10.466  11.930  0.5456 -0.1242  0.2782
26308W        W39722   2.545  15.490  15.287 -0.1448 -0.0699  0.3988
26309W        W39723   0.901   7.647   4.617  0.2336 -0.0199 -0.0509
26310W        W39724   8.114   5.496   3.623 -0.0983 -0.0358 -0.0725
26311W        W39725  13.223  10.478   3.252 -0.1522  0.3407 -0.1254
26312W        W39726  14.427  14.005  11.322 -0.0187 -0.2141  0.0467
26313W        W39727  10.421   5.128   4.327 -0.0596 -0.0666 -0.2246
26314W        W39728   7.598   2.127   2.401 -0.0874 -0.2591  0.0990
26315W        W39729  16.381   8.679   6.646  0.0938  0.0086  0.1198
26316W        W39730   8.208   1.988   1.500 -0.0446  0.3731 -0.0638
26317W        W39731   4.493   7.879   5.267 -0.1522  0.1229 -0.2960
26318W        W39732  10.550   7.465  14.343 -0.2657  0.1092  0.1836
26319W        W39733   9.469  13.145  13.152  0.0912 -0.1864  0.0392
26320W        W39734  16.436  17.482   7.008 -0.0901 -0.0517 -0.2645
26321W        W39735   5.972   9.385   2.060  0.1746  0.0833 -0.0264
26322W        W39736  10.758   0.255  12.227 -0.0998  0.2545  0.0011
26323W        W39737  15.740   1.618  13.680 -0.0499  0.1853  0.3508
26324W        W39738  14.554   7.784  13.380 -0.0165  0.0073 -0.0959
26325W        W39739  12.058  10.891   5.989 -0.0077  0.2636  0.3197
26326W        W39740  10.196  10.097  12.649  0.1035  0.1983 -0.1824
26327W        W39741   3.148  15.321  13.459 -0.1012  0.1587 -0.0678
26328W        W39742   4.835  17.399  11.705  0.0740  0.2506 -0.0378
26329W        W39743  10.703  15.351   2.462 -0.1518  0.1077 -0.0866
26330W        W39744  18.251  13.699  10.907  0.1400  0.1618  0.1340
26331W        W39745   8.081  15.432  12.736 -0.0154  0.2427  0.5754
26332W        W39746  11.922   1.845  16.371  0.1381 -0.0855 -0.0273
26333W        W39747   7.325   9.151   4.724 -0.0564  0.0268  0.0659
26334W        W39748   6.077   5.068  10.825 -0.1373 -0.0528 -0.0802
26335W        W39749  15.216   7.493  15.778  0.0100  0.0272  0.0693
26336W        W39750  14.299  10.961  12.807 -0.1438  0.1249  0.1315
26337W        W39751   1.823   7.918   1.089  0.2148  0.3204  0.2052
26338W        W39752  16.809   8.387   1.695  0.1586  0.1674  0.0955
26339W        W39753   9.579   7.303   2.492  0.0012  0.0938 -0.0930
26340W        W39754  17.287   5.692  12.022 -0.2769 -0.0318 -0.0211
26341W        W39755  15.003   3.104   2.698  0.1982  0.2460 -0.0503
26342W        W39756   7.997   0.408   2.013  0.0301  0.1139 -0.1014
26343W        W39757  10.012   9.261  12.279 -0.0982  0.0497 -0.0158
26344W        W39758   8.230  18.188  16.006 -0.0374  0.0255 -0.3511
26345W        W39759   8.433  16.782  16.331  0.1993 -0.1098 -0.1668
26346W        W39760  11.115  16.052  15.428  0.0306  0.0398  0.0043
26347W        W39761  13.842  15.406  16.009 -0.3073 -0.0199 -0.0287
26348W        W39762  17.890   0.808  12.267 -0.0475  0.1028  0.0219
26349W        W39763   7.697  11.554   0.022 -0.0798 -0.1747 -0.0544
26350W        W39764  12.915  14.637   4.028  0.0280 -0.0373  0.0593
26351W        W39765  16.281  12.319  15.532 -0.0699 -0.2053  0.1828
26352W        W39766   0.885   6.517  15.152  0.0983 -0.2663  0.1486
26353W        W39767  13.725  14.880  11.902  0.0908 -0.0011  0.1702
26354W        W39768   7.672   3.633  13.193  0.4082 -0.2299  0.4360
26355W        W39769   6.782   7.498   1.227  0.1888 -0.0720 -0.2522
26356W        W39770   2.454   0.821   5.591  0.0068  0.1165 -0.0966
26357W        W39771   0.895   6.975  14.876  0.3726  0.3942 -0.2218
26358W        W39772   0.229   6.355  16.425 -0.0551 -0.2900  0.0061
26359W        W39773  15.200   0.409   1.105 -0.1682  0.0185  0.1597
26360W        W39774  14.514  10.354   5.311 -0.1023 -0.1625 -0.0780
26361W        W39775  14.794   0.726  14.910  0.1702 -0.1408  0.1055
26362W        W39776   9.164  16.205   3.439 -0.2904 -0.1302  0.1459
26363W        W39777   0.629   9.269   5.228  0.1110  0.2127  0.3652
26364W        W39778  13.035   2.285   0.929  0.0650 -0.0471 -0.1119
26365W        W39779   4.087  17.860  10.400 -0.0706  0.2066 -0.0073
26366W        W39780   3.917  12.227  16.495  0.4721  0.2153 -0.3113
26367W        W39781  14.975   0.426   1.589 -0.1690 -0.3362 -0.2666
26368W        W39782   1.161  16.962  14.868  0.0411  0.2192  0.0253
26369W        W39783  17.192  17.856  11.393 -0.2693  0.2790  0.3099
26370W        W39784  13.795   6.930   4.443  0.2419  0.2533 -0.2696
26371W        W39785  15.827  13.647   0.786  0.0020  0.1381  0.2789
26372W        W39786  16.856   9.487  12.845  0.0645  0.0159  0.1084
26373W        W39787  10.937  12.050   1.567 -0.1149  0.3849  0.2539
26374W        W39788   9.077  10.757  16.072 -0.1260 -0.0361  0.1670
26375W        W39789   7.555   8.095  14.047  0.0768  0.2675 -0.2019
26376W        W39790   4.581   0.565   2.779 -0.0133  0.2089 -0.0161
26377W        W39791  10.096  15.573   3.695 -0.1665  0.0377  0.2073
26378W        W39792  12.615   7.545   3.259 -0.0321  0.0174  0.0302
26379W        W39793   5.865   2.818  13.322  0.0283 -0.0207 -0.3061
26380W        W39794   3.567  10.328   2.595 -0.1952  0.1038 -0.2553
26381W        W39795  10.354  12.428   4.296 -0.0717  0.2492  0.0080
26382W        W39796  16.790  16.037  13.444  0.1552 -0.0744 -0.1643
26383W        W39797  11.603   0.249   1.089  0.0382  0.0086 -0.2250
26384W        W39798  12.363   8.880  15.328 -0.0982  0.0169 -0.0952
26385W        W39799   2.632  10.550   2.415  0.1941  0.0238 -0.0281
26386W        W39800   7.871   3.413  15.995  0.1688 -0.1137  0.2979
26387W        W39801  13.245   1.723   1.078  0.0707 -0.2934 -0.2590
26388W        W39802  18.015  16.205  12.386  0.0177  0.1078 -0.0659
26389W        W39803   1.825   3.570   4.974 -0.2409 -0.1401 -0.0110
26390W        W39804   8.803   5.032  15.119  0.0034  0.2303  0.1062
26391W        W39805   0.192  10.715   0.143 -0.0882  0.2971  0.1734
26392W        W39806   5.206   8.619   6.180 -0.0773  0.0348  0.0086
26393W        W39807   3.556  13.634   2.520 -0.1315 -0.3107 -0.2924
26394W        W39808   2.649  13.200  11.341  0.0316 -0.0353  0.2654
26395W        W39809   3.635  15.267  16.172 -0.0643 -0.3673 -0.1631
26396W        W39810   4.329   1.402  15.088  0.1293 -0.0658 -0.3795
26397W        W39811  14.858  12.823   2.063  0.2837  0.1294  0.0505
26398W        W39812   8.583   2.894   4.276 -0.1205 -0.3287  0.1185
26399W        W39813  12.063  15.047   3.291  0.1061 -0.0387  0.1260
26400W        W39814   4.667   4.100  15.730 -0.0109  0.0897  0.0233
26401W        W39815   8.322  15.236  13.736 -0.4942 -0.2872  0.2870
26402W        W39816   9.594   4.786  10.168  0.0537 -0.2473 -0.1271
26403W        W39817   3.470   0.967   5.396  0.0049  0.0170 -0.0261
26404W        W39818   0.486   2.393  13.102  0.1822 -0.1483 -0.1624
26405W        W39819  16.423  10.860   5.277  0.0080 -0.0240  0.0927
26406W        W39820  12.117  11.192  12.618 -0.1772  0.0448  0.0597
26407W        W39821   4.136  13.474   6.871  0.2718  0.0022  0.4618
26408W        W39822  12.095  14.759   3.700 -0.3176  0.1006  0.1501
26409W        W39823   8.103   6.696   1.735  0.2742  0.2474  0.1519
26410W        W39824   3.403  18.072   1.956 -0.1243  0.1293  0.0696
26411W        W39825  13.950   3.691  13.569  0.1395  0.2858  0.0767
26412W        W39826   3.911   1.717   5.450 -0.2301  0.3024 -0.2447
26413W        W39827   1.887  14.499   2.171 -0.0646  0.0331 -0.0232
26414W        W39828  17.292   6.158  12.727 -0.0267 -0.3418  0.0422
26415W        W39829  13.559  10.150   1.646 -0.0211 -0.0859  0.0224
26416W        W39830  17.844  16.123   1.447 -0.1301  0.0967  0.0473
26417W        W39831   3.926   5.049   1.037  0.1109 -0.0580  0.2034
26418W        W39832   3.329  16.648  14.908 -0.2297 -0.0707  0.0233
26419W        W39833   6.509  13.708   5.450  0.0733  0.1602  0.0001
26420W        W39834  17.069  15.667   5.428 -0.1082 -0.0845  0.1826
26421W        W39835   9.544  10.938  15.407  0.1097 -0.0109 -0.3689
26422W        W39836   8.263   7.915   4.737  0.1411  0.1927  0.1022
26423W        W39837   1.484   9.468  15.695 -0.0418  0.2208  0.0210
26424W        W39838   2.552  11.839   4.087  0.0751 -0.1304 -0.5292
26425W        W39839  12.617   0.677  15.227  0.2726 -0.1817  0.2697
26426W        W39840   9.641  14.339   4.254  0.0475 -0.0949  0.0625
26427W        W39841  10.206  17.736   3.894 -0.0451  0.2064 -0.4146
26428W        W39842   4.018   5.850  11.703 -0.0245  0.0287 -0.1188
26429W        W39843  14.592  10.012   1.581  0.0975 -0.0937  0.1302
26430W        W39844  11.006  12.841  15.059  0.1395  0.2237  0.0194
26431W        W39845  16.970   9.216   0.080 -0.1759  0.1764  0.4043
26432W        W39846   7.731   5.020  13.297  0.1802 -0.1097  0.0925
26433W        W39847  14.912   5.721  10.457  0.3579 -0.2418  0.2037
26434W        W39848   6.678   1.541   1.711  0.0961  0.0569  0.1254
26435W        W39849  17.621   6.555  15.273  0.0407  0.0835 -0.1185
26436W        W39850   3.526  12.390   4.491  0.2728 -0.0787 -0.0581
26437W        W39851   4.709  13.220   3.991  0.1443  0.0081 -0.1836
26438W        W39852  12.792   3.705  13.627 -0.0491  0.1103 -0.0592
26439W        W39853  13.642  14.280  15.050  0.0209  0.0021  0.3854
26440W        W39854   7.787   9.875  12.561  0.1068  0.0838  0.0360
26441W        W39855   3.802  15.826   0.726 -0.0567 -0.2326  0.1423
26442W        W39856  11.951   1.004   4.142  0.0864  0.1181  0.1464
26443W        W39857  14.349   7.223  12.395 -0.3161  0.0346 -0.1251
26444W        W39858   9.169   5.946  10.964  0.1858  0.0717 -0.2041
26445W        W39859  10.007   3.285   3.028  0.0638 -0.1062 -0.2208
26446W        W39860   5.030   7.561  14.234 -0.3561 -0.0967 -0.0871
26447W        W39861  17.342   0.100  12.243  0.0005 -0.1815 -0.0119
26448W        W39862  11.434   2.893   3.592  0.1751 -0.2443  0.1107
26449W        W39863   6.795  12.077  13.295  0.0058  0.2171 -0.2918
26450W        W39864  11.474  16.380  13.995  0.2136  0.1345  0.1950
26451W        W39865   8.870   1.006  14.881  0.0328 -0.1529 -0.0121
26452W        W39866  11.824   5.712   4.470 -0.2136  0.1496  0.2606
26453W        W39867  16.509  10.313  13.167 -0.3166 -0.1167  0.0469
26454W        W39868  17.304   1.973   3.320 -0.0067  0.2177 -0.3062
26455W        W39869   6.910   5.172   3.692  0.0299  0.2315  0.0809
26456W        W39870  12.800   2.444  12.964 -0.3098 -0.1420  0.3167
26457W        W39871   9.522  17.828  10.182  0.1426  0.0123  0.1180
26458W        W39872  16.725  15.761   3.778 -0.0709  0.0624  0.2143
26459W        W39873  15.556   1.137  12.313 -0.0614  0.1418  0.1009
26460W        W39874   9.283  10.464  10.868 -0.0903 -0.2248 -0.1525
26461W        W39875   9.272   5.665  12.681  0.2798 -0.0441  0.2042
26462W        W39876   4.171   0.744  12.964 -0.2295  0.0349  0.3962
26463W        W39877   3.146   8.008  15.949 -0.1637 -0.0357 -0.1357
26464W        W39878  13.753   7.941  14.241 -0.1842 -0.4779  0.0728
26465W        W39879   3.880   2.319  13.956 -0.1515 -0.0811  0.1934
26466W        W39880   9.524   4.357   2.470  0.2217 -0.2607  0.2853
26467W        W39881  15.855  14.545  15.724 -0.0204 -0.0154  0.0901
26468W        W39882  12.670   0.193  15.390  0.2784 -0.0801  0.2554
26469W        W39883   0.182  10.072  15.766 -0.0694 -0.3377 -0.0033
26470W        W39884   3.776   1.456   4.526  0.0532  0.1470 -0.0610
26471W        W39885   2.408  15.631   5.703  0.0234 -0.2071  0.1922
26472W        W39886   0.694  17.550   3.458  0.0804  0.0678 -0.2674
26473W        W39887  10.181  16.681  14.578  0.3485  0.4425  0.0561
26474W        W39888   8.683   8.259  13.935  0.1895  0.0789 -0.1118
26475W        W39889   2.467  12.938   2.524  0.3278 -0.0724  0.0899
26476W        W39890  14.030   6.612   3.965 -0.2937 -0.2795  0.0699
26477W        W39891   3.415   0.438  13.639 -0.1176 -0.0831 -0.3466
26478W        W39892  13.998   6.562  15.851 -0.2018  0.0442 -0.0769
26479W        W39893  13.883   8.349  11.194 -0.0762  0.1483 -0.0032
26480W        W39894   7.542  11.099  13.301 -0.0984 -0.2186 -0.0688
26481W        W39895  14.650   8.133  16.408  0.0623 -0.0709  0.2310
26482W        W39896   9.021  11.057  11.475  0.1323  0.0074  0.2056
26483W        W39897  16.761  15.943  12.958  0.1639  0.0016 -0.0341
26484W        W39898   5.155   5.518  13.431  0.5249 -0.1706 -0.2235
26485W        W39899  15.130   8.624  10.455  0.0738 -0.0221 -0.2259
26486W        W39900  12.292  10.291  15.078  0.0383 -0.1786 -0.0399
26487W        W39901  11.357   7.685   0.608  0.5137 -0.0994  0.3510
26488W        W39902   6.696   3.093  16.355 -0.0312  0.0703  0.0452
26489W        W39903   2.104  17.291   1.232  0.3941  0.1447  0.0932
26490W        W39904   7.189   0.666   3.372 -0.0266 -0.0500 -0.0213
26491W        W39905   0.941  13.017   5.444  0.0835  0.0337 -0.1382
26492W        W39906   7.623  18.255  10.878  0.1867  0.1001  0.0661
26493W        W39907  14.710   4.998  13.447  0.3841  0.1802  0.0953
26494W        W39908  11.179  10.067  15.986  0.2721 -0.1594 -0.1777
26495W        W39909   3.139   2.849   2.769 -0.1571 -0.3762  0.1343
26496W        W39910   5.288   5.637   2.531 -0.4683  0.1134 -0.0891
26497W        W39911   6.544   2.207  11.058 -0.0373 -0.0507  0.2992
26498W        W39912   7.216   0.954   5.545 -0.1512 -0.2847 -0.3411
26499W        W39913   8.031   6.736  14.686 -0.0544  0.2280  0.1849
26500W        W39914   7.963  15.893   0.728  0.1654 -0.2578  0.1590
26501W        W39915   4.917   5.242  15.430 -0.2127  0.0393  0.2929
26502W        W39916  14.607  11.878   1.137 -0.1765  0.0433  0.0493
26503W        W39917  11.885  11.752   5.674  0.3168 -0.1123  0.2272
26504W        W39918   5.915   1.274   1.936  0.0430  0.1423 -0.0163
26505W        W39919  14.967   4.202   5.087  0.0534  0.1328 -0.0087
26506W        W39920   3.911   3.178   2.086  0.4060  0.0308  0.1640
26507W        W39921   5.952  14.130   4.193  0.0138 -0.1424  0.2886
26508W        W39922   5.110   8.482   1.781 -0.1134  0.2281  0.0038
26509W        W39923   7.386  17.758  11.007 -0.2665  0.3301  0.1424
26510W        W39924  10.788   3.826  11.689 -0.2112  0.2656 -0.0846
26511W        W39925  13.929  12.101   6.269  0.0636 -0.1746 -0.3327
26512W        W39926   1.640   3.022   5.671 -0.1171  0.0129  0.1542
26513W        W39927  16.180   6.047   4.190 -0.0362 -0.3886  0.0631
26514W        W39928  11.754  12.390  15.080 -0.2086 -0.1316 -0.0649
26515W        W39929  17.620   1.353  12.891 -0.3471 -0.1498 -0.0927
26516W        W39930   2.091   0.663  11.949 -0.2128 -0.0641 -0.0072
26517W        W39931  16.616   2.363   0.379  0.0229 -0.0919 -0.1624
26518W        W39932  15.793  13.762  15.485 -0.3523  0.1436  0.1360
26519W        W39933   3.934   2.802   1.629 -0.2414 -0.0163 -0.0037
26520W        W39934  11.452  13.327  11.497 -0.1796  0.1215 -0.0217
26521W        W39935   1.609   8.052   0.642  0.2005 -0.1663  0.3544
26522W        W39936  17.329   4.931   2.616 -0.0116 -0.2481  0.1700
26523W        W39937   8.326  12.956   2.025  0.0653  0.0722 -0.0685
26524W        W39938  16.126  11.840   3.033  0.0073 -0.2704  0.1797
26525W        W39939   6.558  17.604   2.742  0.3118  0.3025 -0.2761
26526W        W39940   6.565  14.930   3.182 -0.0012  0.1254  0.0944
26527W        W39941  17.834   4.182  10.963  0.1871  0.0016 -0.1109
26528W        W39942  16.959  15.913  10.965  0.2167 -0.0132 -0.1664
26529W        W39943   1.309   5.422  12.916 -0.2026  0.0197  0.1859
26530W        W39944  13.379  12.583  13.565  0.1396 -0.0212 -0.4760
26531W        W39945  15.617   6.707   0.443 -0.3206 -0.2379  0.1999
26532W        W39946  13.141   9.528   2.833  0.1106  0.1452  0.1009
26533W        W39947   1.890   4.364  16.369  0.3988  0.0462  0.0452
26534W        W39948   0.480  16.480  15.363  0.0681 -0.3524  0.2393
26535W        W39949  17.667   4.087   3.585  0.0450  0.0311  0.2521
26536W        W39950  16.273  14.803  15.261  0.1049  0.1536  0.1462
26537W        W39951  17.207  14.726  12.502  0.1219  0.2463  0.3200
26538W        W39952  17.182   2.499  15.517 -0.2025  0.0127  0.0268
26539W        W39953   8.128   3.164  14.060  0.2764  0.3916 -0.1401
26540W        W39954  16.151  10.501   4.290  0.0553  0.0127 -0.2963
26541W        W39955  13.324   9.325  12.480 -0.2815 -0.0728 -0.0895
26542W        W39956  13.262  12.303  16.444  0.0994 -0.1402  0.1073
26543W        W39957  12.723   0.115  13.599 -0.2443  0.4416  0.1630
26544W        W39958   2.316   9.873  14.200 -0.0861  0.0467  0.1499
26545W        W39959   8.560  13.151   2.517 -0.0607 -0.2173 -0.0433
26546W        W39960  11.375   4.292   1.154  0.1604  0.0421  0.0343
26547W        W39961  14.823   0.598  11.866 -0.0851  0.1300  0.2125
26548W        W39962   4.631   4.451   1.251 -0.1498 -0.1127 -0.1478
26549W        W39963  13.411  11.291   1.770 -0.1543  0.1320  0.2007
26550W        W39964  16.347  10.441  16.012 -0.4209 -0.1382  0.1488
26551W        W39965  14.739  16.537  15.423  0.3292  0.4450  0.1033
26552W        W39966   1.896   6.948  11.636 -0.2015 -0.1672  0.1273
26553W        W39967  17.862   3.974   3.071 -0.0629  0.0783 -0.0029
26554W        W39968  10.301  15.134  10.898 -0.1614  0.1399 -0.0688
26555W        W39969   3.974  10.219   4.248 -0.1161  0.0837 -0.3546
26556W        W39970   3.745  12.204  14.478 -0.1873  0.2296  0.3924
26557W        W39971  14.912   3.208   1.699 -0.1427 -0.2819 -0.3011
26558W        W39972   2.798  14.569  14.379 -0.2102 -0.0422 -0.1504
26559W        W39973   1.178  18.107  12.221  0.0981  0.1031 -0.0549
26560W        W39974   8.126  15.557   2.117  0.0992 -0.1782 -0.0745
26561W        W39975   7.342   9.082   2.332 -0.0258  0.0585 -0.0273
26562W        W39976  10.930  17.145  13.097 -0.1676 -0.1604 -0.0224
26563W        W39977   7.568  16.219  16.025  0.0796 -0.2152  0.2646
26564W        W39978  10.402   3.794   3.996  0.1662 -0.0482 -0.0842
26565W        W39979  13.516  16.503  11.562 -0.3955  0.3672 -0.2553
26566W        W39980   9.146   0.254   0.731  0.2915  0.1494 -0.0107
26567W        W39981  10.227  11.166  10.499  0.3009  0.0139 -0.2286
26568W        W39982  17.067  10.905   4.359  0.0546  0.0094 -0.1769
26569W        W39983  11.183  17.240   4.577 -0.0778  0.2110 -0.0187
26570W        W39984  12.794   7.221  11.277  0.3197  0.0534 -0.3633
26571W        W39985  14.259  14.853  13.973 -0.2442  0.1724 -0.1457
26572W        W39986   5.115   0.622  15.844  0.1492 -0.1671  0.0681
26573W        W39987  11.903   0.056  14.866  0.1108 -0.0939  0.0052
26574W        W39988  12.521   7.714  13.451 -0.0881 -0.0575  0.0641
26575W        W39989   1.911   1.164   4.366  0.1400 -0.0241  0.0243
26576W        W39990  13.905   4.142   2.190 -0.1739 -0.0371  0.1374
26577W        W39991  13.390  14.023  10.888  0.0635  0.2302 -0.0462
26578W        W39992  17.915  10.642   6.187 -0.0706 -0.1851 -0.2077
26579W        W39993   5.478   4.551   1.863  0.1175 -0.1095  0.3872
26580W        W39994  14.667   7.796  15.497 -0.2161 -0.2709 -0.1093
26581W        W39995   7.520   8.570  13.842 -0.2568 -0.4292 -0.3145
26582W        W39996   3.597  16.557   3.217 -0.2473 -0.0448 -0.0277
26583W        W39997  17.814   4.976   2.345 -0.0580  0.0301  0.0790
26584W        W39998  13.907  10.340  16.129 -0.1570  0.0908  0.1321
26585W        W39999   6.667  16.767   2.224  0.0536 -0.1212  0.0460
26586W        W40000   0.294   8.890  12.819  0.1006  0.0529 -0.0585
26587W        W40001   4.851  16.228   5.835  0.4023  0.3023  0.1756
26588W        W40002   4.918   0.660   4.768  0.1097 -0.3326  0.1533
26589W        W40003  17.794   1.052  11.101  0.0909  0.1345  0.2049
26590W        W40004  18.099   8.106   5.357 -0.1300  0.3253 -0.0932
26591W        W40005  15.699   7.150   1.870  0.1352 -0.2411  0.1092
26592W        W40006   6.761   0.915  12.498 -0.2060 -0.2744 -0.3178
26593W        W40007   8.343  11.072  12.440  0.4007 -0.2838 -0.2299
26594W        W40008  11.962   6.068  15.117 -0.1210 -0.0294 -0.1225
26595W        W40009  11.462  11.104  11.888 -0.1273  0.1760  0.0698
26596W        W40010   7.551   9.957   2.887 -0.1518  0.0784  0.0328
26597W        W40011  17.712   7.460  13.389 -0.0614 -0.2806  0.0340
26598W        W40012   6.349  11.414   2.608  0.1269 -0.0878  0.2760
26599W        W40013   1.534  15.654   2.901 -0.1982 -0.1173 -0.0445
26600W        W40014   4.707   7.376  15.288 -0.0038  0.3730  0.0283
26601W        W40015   4.271   2.265  15.963  0.2241 -0.0287 -0.0258
26602W        W40016  16.889   7.298  13.566 -0.2910  0.0680  0.4291
26603W        W40017   9.449   5.842   2.531 -0.1316 -0.5304  0.0407
26604W        W40018  12.184   3.222  12.492  0.1394 -0.4110  0.2513
26605W        W40019  17.986  15.310  15.317 -0.5848 -0.0093 -0.1103
26606W        W40020  16.858  13.884   5.662 -0.0551  0.0110 -0.0830
26607W        W40021  14.844   7.486   5.286 -0.0052  0.0021  0.0579
26608W        W40022  14.496  10.955  13.392 -0.3718 -0.0583  0.3713
26609W        W40023   4.413   7.348   5.225 -0.0548  0.0279 -0.1785
26610W        W40024   1.549   4.192   1.505  0.0591  0.1589 -0.0300
26611W        W40025   7.724   6.659  15.737 -0.3385  0.1003  0.3341
26612W        W40026   1.901   2.725  15.637  0.0020  0.0844  0.3625
26613W        W40027   1.599  11.286  14.181 -0.1270 -0.0378 -0.0944
26614W        W40028  12.581  10.789   1.628  0.1089  0.1878 -0.1029
26615W        W40029   3.410  12.840  14.041 -0.1773 -0.1269 -0.1747
26616W        W40030  12.063  13.832  14.852  0.0147  0.4318 -0.0529
26617W        W40031  17.215   8.534   2.947  0.4742 -0.3567  0.0107
26618W        W40032   1.775   5.244   3.235  0.0577  0.0141  0.1971
26619W        W40033   4.481   1.990   5.470  0.0881  0.2900 -0.2313
26620W        W40034   2.532   6.657   1.450  0.1960  0.3792 -0.3375
26621W        W40035  16.532   9.517   4.258  0.2349  0.0436 -0.0963
26622W        W40036   1.931   5.990  15.230  0.0418  0.0441 -0.1258
26623W        W40037   4.607  10.085   1.625 -0.1352 -0.1706 -0.1938
26624W        W40038   1.893  13.807   4.350  0.3232 -0.4086 -0.2296
26625W        W40039   3.132   0.196   6.035 -0.0160 -0.1446  0.1482
26626W        W40040   2.579  15.248  12.743 -0.0087  0.1054 -0.2407
26627W        W40041  14.704   4.497   3.839 -0.1162 -0.0221  0.0030
26628W        W40042   0.128   5.939  11.229 -0.1084 -0.2850 -0.2026
26629W        W40043   6.221  12.762  11.889  0.2951 -0.0104 -0.3390
26630W        W40044  13.828  17.691  15.149 -0.2462  0.0087 -0.2436
26631W        W40045   1.673   8.399  16.461 -0.1354 -0.1942  0.1853
26632W        W40046  11.827  18.096  14.295 -0.3533  0.0301  0.3661
26633W        W40047  17.415  10.012   6.043 -0.1263  0.2091  0.0244
26634W        W40048  14.178   5.383  12.840 -0.0247 -0.2467  0.1280
26635W        W40049   8.216   5.082  15.634 -0.1964  0.0416 -0.1213
26636W        W40050   0.957   7.371   2.355  0.2728 -0.3290  0.0573
26637W        W40051  11.955  17.761  12.530  0.0711 -0.0060 -0.0811
26638W        W40052   9.373   7.272   5.247  0.1786 -0.3327 -0.1777
26639W        W40053  10.554   9.855  12.974  0.1080 -0.0192  0.1182
26640W        W40054   6.730   8.245  15.296  0.2404  0.2037  0.1044
26641W        W40055   3.652   8.740   1.357 -0.0514 -0.4386  0.3471
26642W        W40056  10.954   1.142   3.317  0.5195 -0.0544  0.2979
26643W        W40057   0.634  13.025   2.695  0.0696  0.0799 -0.0999
26644W        W40058   3.321   1.428   3.950  0.0303  0.1385  0.2515
26645W        W40059   1.464   7.654  12.836  0.0696  0.4759 -0.1461
26646W        W40060   8.075  14.575   4.322 -0.0357  0.0087  0.1980
26647W        W40061   3.218  12.615  14.934 -0.1694 -0.1203 -0.0108
26648W        W40062   0.989  10.802   6.169 -0.1512  0.2980  0.3280
26649W        W40063  15.890   4.315   4.672  0.0243  0.1149 -0.1293
26650W        W40064   4.532  17.328  13.416 -0.2732  0.2098  0.0606
26651W        W40065   0.991  14.108   0.088 -0.1374 -0.0583 -0.3852
26652W        W40066  13.765  13.866   4.166 -0.0261  0.0431 -0.3340
26653W        W40067  14.712  15.283  12.435 -0.0303  0.0145 -0.2224
26654W        W40068  13.549   5.477  14.800 -0.1543 -0.2799 -0.1675
26655W        W40069  16.619   0.358   3.159  0.0746 -0.0391 -0.2921
26656W        W40070  14.447  12.484   2.138 -0.0628  0.0296  0.2676
26657W        W40071   2.251  17.407   0.260 -0.1243  0.0486  0.0070
26658W        W40072  11.210   0.835   0.172 -0.0001 -0.0129  0.0620
26659W        W40073   8.506  17.441  12.847 -0.0547 -0.1731 -0.2737
26660W        W40074   9.535   0.059  11.759 -0.2055  0.1755  0.0277
26661W        W40075  13.227   3.494  16.410 -0.2429 -0.2306 -0.1076
26662W        W40076  10.340  14.808  15.700 -0.1529  0.0786 -0.1144
26663W        W40077   1.144   4.389   1.185  0.1063  0.2675  0.2374
26664W        W40078  17.341   3.157  12.337  0.2114  0.2301 -0.1340
26665W        W40079  11.490   0.226   5.517  0.2157  0.0759  0.1344
26666W        W40080   8.478   0.190   0.110 -0.0593 -0.1737  0.1337
26667W        W40081   1.745  10.136  12.482 -0.0445 -0.0035 -0.3218
26668W        W40082  12.947   0.856  12.671 -0.0090 -0.2522 -0.0302
26669W        W40083   1.305   9.048   1.769 -0.1008  0.0738 -0.1450
26670W        W40084   1.792  17.871   4.767  0.2594  0.2507 -0.0863
26671W        W40085  15.778  11.020   5.596 -0.1902 -0.2214 -0.2430
26672W        W40086  12.040   3.373   4.566 -0.1952  0.1187  0.0401
26673W        W40087   3.881   7.585  15.663 -0.1554 -0.2647 -0.0282
26674W        W40088   2.923   0.627   2.621  0.1068  0.0203 -0.2007
26675W        W40089  16.845   1.362   5.250 -0.3725  0.0445 -0.0085
26676W        W40090  14.355   2.808  13.800  0.0482 -0.2190 -0.1369
26677W        W40091   3.336   9.000  15.755 -0.0534 -0.1726  0.1176
26678W        W40092  15.187  15.698  15.942 -0.0181 -0.1531  0.3345
26679W        W40093   8.372   3.761   9.947 -0.0637  0.0036  0.0085
26680W        W40094  10.535  12.099   3.957 -0.1027  0.2593  0.2564
26681W        W40095  10.111   5.465  13.148 -0.0779 -0.3696  0.3598
26682W        W40096  15.533  15.972  11.518 -0.0702  0.1104 -0.0321
26683W        W40097   2.723   1.000  12.577 -0.0356 -0.0198  0.0078
26684W        W40098   6.003  11.515  10.825 -0.1799 -0.2470  0.0195
26685W        W40099  15.535   6.870   1.354  0.0673 -0.0543 -0.0141
26686W        W40100   7.642  14.587  16.485  0.0960 -0.0302 -0.2582
26687W        W40101  17.245  10.213   2.747  0.6726 -0.0297 -0.2689
26688W        W40102   4.668  11.875  14.789  0.0103 -0.0108 -0.1335
26689W        W40103   6.787   9.639  11.729  0.1299 -0.2753 -0.1638
26690W        W40104  18.060  17.471   1.215  0.1305  0.2118  0.3699
26691W        W40105  10.523  12.858  15.085 -0.0882  0.0180  0.0439
26692W        W40106   3.837   9.688  13.076  0.1378  0.1994  0.1183
26693W        W40107   2.273  15.571   3.161 -0.2307  0.0479  0.2194
26694W        W40108  14.822  14.438  12.421 -0.1764 -0.2373 -0.2215
26695W        W40109  18.142   5.525  16.263 -0.0035  0.1332 -0.0962
26696W        W40110  15.675  18.139  16.463  0.0379 -0.0775 -0.3332
26697W        W40111   1.211  17.244  12.133 -0.0709 -0.0678 -0.0881
26698W        W40112  13.182  13.564   5.226  0.0319  0.2392 -0.2122
26699W        W40113  10.551   7.202   0.287  0.3732 -0.2329 -0.1699
26700W        W40114   1.601   9.306  13.560  0.1237 -0.0953  0.0333
26701W        W40115   0.948   5.261   4.568 -0.1158 -0.2953 -0.0100
26702W        W40116   7.573   3.005   2.103  0.3337 -0.0349  0.1529
26703W        W40117   0.735  14.710  11.693 -0.1862 -0.1819  0.0027
26704W        W40118   7.632   0.742  14.510 -0.0975 -0.0570  0.2874
26705W        W40119  14.260  16.274  11.564 -0.0700  0.0608  0.1597
26706W        W40120   9.232  16.775  14.052  0.1051 -0.1157  0.0104
26707W        W40121  10.121  16.126   5.312 -0.1775 -0.2644  0.2393
26708W        W40122  10.129   9.971   3.129 -0.1768  0.3990  0.1213
26709W        W40123   7.875  11.790  16.035  0.0719 -0.3138  0.2115
26710W        W40124   5.472  15.982   2.213 -0.1363 -0.2514  0.0618
26711W        W40125  11.036  12.840   4.494 -0.2122  0.0159  0.0999
26712W        W40126   5.958   4.336  15.384  0.0153 -0.1811 -0.3106
26713W        W40127  15.708   4.773  11.926  0.2466  0.0187  0.1240
26714W        W40128   5.280   4.188  11.884  0.2327  0.3904  0.1170
26715W        W40129   3.559   0.501   0.800  0.0201 -0.0849  0.0459
26716W        W40130   5.666   7.424   4.894 -0.1967 -0.1235 -0.1825
26717W        W40131  11.852  18.207   4.602  0.0694  0.3691 -0.0979
26718W        W40132  16.264   7.263   1.563 -0.0369 -0.1334  0.0878
26719W        W40133   6.218  14.105   2.435 -0.0528 -0.2333 -0.3302
26720W        W40134   0.023   9.335  14.235 -0.0294 -0.0202  0.2234
26721W        W40135  14.172   1.249  16.445  0.0913  0.1083  0.1549
26722W        W40136   8.630   4.640   2.571  0.1190 -0.0715 -0.3073
26723W        W40137  16.377  16.843  11.128  0.1665 -0.1017 -0.1126
26724W        W40138   7.149  13.872  13.723 -0.0438 -0.0550  0.0663
26725W        W40139  16.578   9.101  16.028  0.1913 -0.0368  0.0761
26726W        W40140   5.809   2.117  12.876  0.1140 -0.2573 -0.0566
26727W        W40141  13.444  10.499   4.699  0.2039 -0.0174  0.2633
26728W        W40142   4.486  17.247  16.030 -0.1289  0.0536 -0.1154
26729W        W40143   4.382   4.890  12.583  0.3760 -0.0029 -0.0616
26730W        W40144   0.740   5.365  14.287  0.0329  0.0698 -0.1858
26731W        W40145  14.228   2.422   6.503  0.1034  0.3466 -0.0192
26732W        W40146   8.799  16.555  13.349  0.0135 -0.1923  0.1916
26733W        W40147   2.308   4.350  12.344  0.1997 -0.3644  0.0566
26734W        W40148  16.379   0.907  13.408  0.0449 -0.2063 -0.1262
26735W        W40149   7.679   7.231   5.766  0.1769 -0.1154  0.2960
26736W        W40150   0.984   7.370  10.301 -0.2557  0.1657 -0.1903
26737W        W40151   7.988  16.699   4.027 -0.3477 -0.1827  0.1379
26738W        W40152  16.395   2.297  10.283  0.0491  0.2403  0.1807
26739W        W40153  12.048  14.487   4.755 -0.2001 -0.0138 -0.1624
26740W        W40154   4.305  17.083   2.645  0.2172 -0.0052 -0.3955
26741W        W40155  10.166   3.906  16.304 -0.1452 -0.0429 -0.0279
26742W        W40156  11.510  10.601  13.734  0.2369  0.2717 -0.0180
26743W        W40157   5.466  13.767   2.018  0.1649  0.4367  0.3153
26744W        W40158   2.767  10.271   2.021  0.0096 -0.1030 -0.1081
26745W        W40159   3.189  10.039   1.522  0.2533  0.1451  0.2703
26746W        W40160   4.664  11.168  13.309  0.0052 -0.0475  0.1497
26747W        W40161  14.510   9.290  14.282  0.2137  0.2615  0.2678
26748W        W40162  14.311   7.509   1.532  0.0197  0.2129  0.2530
26749W        W40163  10.459   9.440  11.861 -0.0713  0.2533 -0.1298
26750W        W40164  10.288   7.497  13.050  0.2292  0.0749 -0.3339
26751W        W40165  12.875   1.481   0.814 -0.0773 -0.0209 -0.1420
26752W        W40166   9.752  12.419  14.745  0.2522  0.0167 -0.1431
26753W        W40167  16.522  14.266   1.474 -0.0032 -0.0580 -0.1796
26754W        W40168  14.132  12.754   4.547  0.0748  0.0876 -0.0625
26755W        W40169   2.371  15.137   4.097  0.0606 -0.0276 -0.2097
26756W        W40170  10.024  17.310   0.927 -0.1782  0.0326  0.1471
26757W        W40171  12.288   1.973   2.534 -0.2297  0.0891 -0.0567
26758W        W40172   8.144  14.401  11.945  0.1053  0.0455  0.0785
26759W        W40173   7.352   0.461  14.189  0.0603 -0.2378  0.1375
26760W        W40174   3.308  15.246   5.734 -0.2644 -0.0343  0.2397
26761W        W40175  12.994   2.359  10.863  0.0037 -0.1354  0.0328
26762W        W40176   1.307  10.957  10.907  0.1302 -0.2827 -0.1943
26763W        W40177  12.123  11.633   1.303 -0.1954  0.1781  0.0973
26764W        W40178   2.828  17.129   5.964 -0.2248  0.2392  0.0420
26765W        W40179   2.906   6.643   2.291  0.0393  0.0700 -0.0103
26766W        W40180   3.783   2.487   3.699 -0.0987  0.0176 -0.2534
26767W        W40181   8.898  15.886  14.020 -0.4351  0.2662 -0.2518
26768W        W40182   7.325   5.259   3.364 -0.4247  0.0738 -0.1499
26769W        W40183   1.763  13.204  12.852  0.1475 -0.0048  0.3048
26770W        W40184  11.786   5.513   0.177  0.0041  0.1667 -0.0896
26771W        W40185  17.244  14.925   4.300  0.0122  0.3322  0.3975
26772W        W40186   0.663  11.328   1.152 -0.2559 -0.2048  0.0710
26773W        W40187  17.427   4.739   0.163  0.0526  0.3238  0.1329
26774W        W40188   6.241  17.377   4.546  0.0973  0.1656  0.1924
26775W        W40189  14.755   8.359   5.402  0.0042  0.3837  0.1017
26776W        W40190  17.754   1.138  11.842 -0.2369 -0.0325 -0.0409
26777W        W40191   5.929   6.671   3.352  0.0598 -0.3303  0.0240
26778W        W40192   2.484  12.408  15.359  0.2934  0.1657 -0.0499
26779W        W40193  14.646   5.358  13.058  0.0460 -0.1732 -0.2525
26780W        W40194   2.035  12.840   1.743  0.0859 -0.0462  0.2322
26781W        W40195  15.483  14.892   2.729  0.0221 -0.2442  0.3189
26782W        W40196  12.011   0.676   2.642 -0.0986  0.0105  0.2238
26783W        W40197   7.315  10.104  11.481  0.2468 -0.1797  0.0501
26784W        W40198  17.811  15.171   5.764  0.1848  0.1078 -0.3476
26785W        W40199  15.778   1.079   5.837 -0.1835  0.0756 -0.0596
26786W        W40200   2.511   5.028   2.094  0.3521  0.2679  0.1550
26787W        W40201   0.906   8.031   6.312  0.0163  0.2762 -0.4988
26788W        W40202   2.634   5.493   5.740  0.1237 -0.2577  0.0322
26789W        W40203   1.932   0.046   1.504  0.1651 -0.3460 -0.2388
26790W        W40204  12.531   2.406  11.921 -0.0460 -0.2010  0.1776
26791W        W40205  15.831  17.383   4.827  0.3098 -0.3753  0.0321
26792W        W40206   9.056   5.759   3.288 -0.3032  0.1961  0.2293
26793W        W40207  12.874   2.809   1.140 -0.2250 -0.1937 -0.3232
26794W        W40208   1.243  15.253   1.139  0.2232 -0.3671 -0.1527
26795W        W40209  13.384   9.992  11.856 -0.1463  0.5073 -0.0117
26796W        W40210  14.587   9.780   3.694  0.1308  0.0744 -0.1700
26797W        W40211  13.577  11.584  16.041 -0.0323  0.4654 -0.1620
26798W        W40212   1.295  15.848  11.366 -0.0359 -0.0479  0.1712
26799W        W40213   7.187  15.254   3.211  0.2448 -0.2057  0.4918
26800W        W40214  15.070  12.848  16.417  0.0324  0.2596 -0.1037
26801W        W40215   9.252  11.809   5.151 -0.2582 -0.2721 -0.4146
26802W        W40216  18.054   8.469  11.943  0.3232  0.1066 -0.2333
26803W        W40217   1.678  11.188   0.507  0.0874  0.3551  0.0319
26804W        W40218   3.923  14.360   4.708  0.1473  0.2476 -0.1217
26805W        W40219  16.609   3.637  14.083  0.0926 -0.3951 -0.0363
26806W        W40220  18.021  17.357   1.996  0.1385  0.1268  0.2777
26807W        W40221  11.187  17.941   3.866 -0.2123 -0.2419 -0.1144
26808W        W40222   7.800  13.655  10.641  0.1085 -0.1040  0.0519
26809W        W40223   0.215  17.469   6.884 -0.0877  0.0423  0.3461
26810W        W40224  16.862  15.526  10.519 -0.1609  0.2914 -0.0223
26811W        W40225   2.282   0.996   1.418  0.2031  0.3382  0.1597
26812W        W40226   7.298   9.384   3.996 -0.0469 -0.0441 -0.0763
26813W        W40227  15.605   8.916  13.658 -0.0609 -0.0705 -0.0895
26814W        W40228  13.758  15.069  12.766  0.1507  0.1340 -0.3840
26815W        W40229   0.281  11.725   0.242  0.3492 -0.1241 -0.2280
26816W        W40230   0.459   6.639  10.586 -0.0994 -0.1441  0.1973
26817W        W40231  15.263   0.445   3.616 -0.1539 -0.2473  0.0883
26818W        W40232  15.214   2.760   1.597 -0.0229  0.3378  0.0339
26819W        W40233  12.660   2.440  12.450 -0.2091  0.1092 -0.1001
26820W        W40234  11.743  10.110  10.858 -0.0143  0.0423 -0.3252
26821W        W40235   9.184  12.784   1.931  0.2895 -0.1078 -0.0182
26822W        W40236  17.974  17.695  15.177  0.0847  0.1834 -0.0385
26823W        W40237   4.375   1.122   2.433  0.1120 -0.1888  0.2677
26824W        W40238   3.330   4.916   2.644 -0.2236 -0.0044 -0.3980
26825W        W40239  13.828   3.566   4.536  0.0415 -0.0335  0.0070
26826W        W40240   5.396   4.143   0.077 -0.1457  0.1286  0.2669
26827W        W40241  12.349  17.675   1.520 -0.2017 -0.3165  0.1546
26828W        W40242  13.088   4.271   0.288 -0.1296 -0.3304  0.2276
26829W        W40243  15.505   5.824   1.731 -0.5008  0.0639  0.0580
26830W        W40244   8.178   2.606   0.320  0.0556  0.1344  0.1205
26831W        W40245  16.785   3.442   4.704  0.0227  0.1916  0.2103
26832W        W40246  13.806   0.067  11.816 -0.3927 -0.0531 -0.1170
26833W        W40247   8.989   9.598  14.056 -0.2257  0.0602  0.0692
26834W        W40248  12.716   0.226   2.564 -0.1995  0.0028 -0.2746
26835W        W40249  14.689   1.014   3.256 -0.0102  0.1377 -0.1628
26836W        W40250  13.671   6.490   5.267 -0.1208 -0.1178 -0.0412
26837W        W40251   7.395   4.201  13.533  0.5137  0.2698  0.3128
26838W        W40252   6.854   4.730  11.763 -0.0633 -0.2961  0.1827
26839W        W40253   0.194  11.866  11.023 -0.2258  0.1577  0.3137
26840W        W40254   9.186  13.157  14.119  0.2409 -0.0169  0.2287
26841W        W40255   1.090   5.614  15.662 -0.0446 -0.2022 -0.0200
26842W        W40256  17.695   8.196  16.424  0.3000 -0.3585 -0.0166
26843W        W40257  10.676  11.323   4.989  0.0532 -0.2461  0.1577
26844W        W40258   9.813  14.705   0.804 -0.2254  0.0683 -0.0523
26845W        W40259   5.311   9.016  15.129 -0.2125 -0.0473 -0.1646
26846W        W40260  13.043   0.969   2.645  0.1190 -0.0063 -0.0284
26847W        W40261   8.738   8.258   1.538  0.1018  0.0588 -0.0582
26848W        W40262  16.935  16.545   3.451  0.3556 -0.0370 -0.2391
26849W        W40263  15.379   4.158   0.621 -0.4649 -0.0481 -0.2636
26850W        W40264  13.129  17.258  12.880  0.1049 -0.0908 -0.2769
26851W        W40265   7.109  12.413  14.970 -0.2738 -0.2795  0.0730
26852W        W40266  16.441  13.296   1.306 -0.1109  0.1746  0.0929
26853W        W40267  14.594  12.988  15.197  0.1511 -0.3678 -0.0950
26854W        W40268   9.644   2.139   2.164  0.3130  0.2485 -0.1624
26855W        W40269   0.323  13.574   0.095  0.0856 -0.3169  0.2077
26856W        W40270   4.452   0.329   1.784  0.1115 -0.0620  0.1600
26857W        W40271  17.848  14.990   3.028 -0.0068  0.2122  0.1177
26858W        W40272   6.337   8.037   3.265 -0.1794  0.0849  0.2219
26859W        W40273  12.786   8.584   5.541 -0.1486  0.0516  0.4833
26860W        W40274  11.138   2.909   4.664 -0.4644 -0.6154 -0.0800
26861W        W40275   5.174  10.618   4.710 -0.0631 -0.1341 -0.1898
26862W        W40276   8.066  16.404   5.898  0.1110  0.1737 -0.1808
26863W        W40277   6.418   1.581  11.730  0.0468 -0.1374  0.0507
26864W        W40278   8.605  13.487   2.893  0.4681  0.2761 -0.0541
26865W        W40279   8.051  17.336   5.055  0.0522 -0.2312  0.2068
26866W        W40280  13.812   7.312   0.852  0.1393  0.0720  0.1413
26867W        W40281   2.104   2.127   3.151 -0.0479 -0.1661 -0.1516
26868W        W40282  13.825   8.435   3.264 -0.0056 -0.1627 -0.3683
26869W        W40283  12.272   4.344   2.974  0.3465 -0.1148  0.1198
26870W        W40284  11.708  17.589   3.209 -0.1349  0.2650 -0.0951
26871W        W40285  13.988   5.055  12.118 -0.1697  0.2408  0.0269
26872W        W40286   7.641  17.966   1.950  0.0404  0.3630 -0.1689
26873W        W40287   4.765  10.514   3.150  0.2519 -0.0187  0.0267
26874W        W40288   7.912  16.632  14.081  0.0805 -0.1545  0.1433
26875W        W40289   0.758  12.142  14.441  0.0314  0.2444  0.2751
26876W        W40290   9.671  11.927   1.046 -0.3172 -0.0595  0.2450
26877W        W40291  16.772   7.763  13.262  0.2622 -0.1883 -0.2896
26878W        W40292  13.135  11.757  11.546 -0.2672 -0.2329 -0.0221
26879W        W40293   1.924  16.833  13.475  0.1450  0.2124  0.0670
26880W        W40294  16.177  13.736   2.698 -0.2682 -0.1870 -0.1166
26881W        W40295   2.255  12.940  12.041  0.3170 -0.0707 -0.2643
26882W        W40296  10.668  18.058  16.099  0.0428 -0.1022  0.0943
26883W        W40297   5.413  17.460   6.148 -0.0455 -0.0771 -0.2811
26884W        W40298   1.827   3.203  11.539  0.2378  0.0953  0.1786
26885W        W40299  17.210   4.857  13.223  0.0990 -0.1194 -0.0392
26886W        W40300  10.436   7.806  15.727 -0.1031 -0.0014  0.1085
26887W        W40301   1.296   3.525   1.840  0.2733  0.3296 -0.2867
26888W        W40302   2.365  16.777  15.249  0.0144 -0.1057  0.1976
26889W        W40303  15.350  10.186  13.860 -0.0746 -0.0128  0.0559
26890W        W40304   2.469  15.049   1.942 -0.1988 -0.0150 -0.2248
26891W        W40305   0.182  12.093  12.522 -0.4055  0.2334 -0.0609
26892W        W40306  14.364   4.523  12.930 -0.3286 -0.1191  0.1678
26893W        W40307   2.332   8.514   1.663  0.0422  0.1245 -0.1702
26894W        W40308   4.867  10.876   0.843  0.0163 -0.4813 -0.1265
26895W        W40309  11.474  17.778  14.167  0.0549  0.2119  0.1301
26896W        W40310   0.032  17.939  12.906  0.2786 -0.0522  0.1492
26897W        W40311   2.712   1.422  14.505  0.4728 -0.0726 -0.0594
26898W        W40312  14.336  10.541  13.763  0.2407  0.0220 -0.2708
26899W        W40313  13.745   6.642  12.089 -0.0361  0.0892 -0.0575
26900W        W40314  13.604   7.720  13.815 -0.1268  0.1225 -0.2829
26901W        W40315   8.920  13.698   5.193 -0.1322 -0.1620 -0.2908
26902W        W40316  10.180  14.779  13.619 -0.2678 -0.1367  0.1242
26903W        W40317   9.394  16.561  15.079 -0.0707 -0.1069  0.2060
26904W        W40318  17.388   1.503  10.672 -0.3367 -0.1065  0.1837
26905W        W40319  16.502  14.188   4.443  0.2980  0.1073 -0.1467
26906W        W40320   3.531   6.054   4.830 -0.2430 -0.1649  0.3169
26907W        W40321   1.023  16.018   2.216 -0.0050  0.0101  0.1109
26908W        W40322  17.020  14.139   3.173  0.4607 -0.1407 -0.1147
26909W        W40323   0.595   2.187   6.465 -0.1529 -0.1340 -0.2361
26910W        W40324  15.303   5.342   4.536 -0.5294  0.4457  0.0108
26911W        W40325   6.241   0.758   4.075 -0.0015 -0.0337  0.2531
26912W        W40326   8.056  14.179   0.805  0.0896  0.0717 -0.2736
26913W        W40327  10.499   7.315  13.599 -0.2005  0.0326  0.1447
26914W        W40328  13.167  14.072   2.216  0.1254 -0.2662 -0.1217
26915W        W40329   1.870  12.408   1.770  0.1428 -0.1863 -0.1106
26916W        W40330  17.687   5.993  15.946  0.1544  0.4390  0.0663
26917W        W40331  11.025   7.592  11.624 -0.2008 -0.0954 -0.5254
26918W        W40332   6.142   6.577   4.258  0.0234  0.0830  0.0353
26919W        W40333  13.982   9.111   4.931  0.1913  0.0028 -0.3885
26920W        W40334  11.044   0.287  16.187 -0.2374  0.0656  0.2779
26921W        W40335  13.260   0.183  11.296 -0.0031  0.2711 -0.0570
26922W        W40336  14.748   4.744   1.825 -0.1428  0.3521 -0.3930
26923W        W40337  16.355   6.775   6.183  0.3273 -0.0471  0.0813
26924W        W40338   7.550   7.769   5.799  0.1646 -0.0189  0.3646
26925W        W40339   6.351   4.609   5.369  0.0346 -0.4142  0.2948
26926W        W40340  11.322  15.238   6.545 -0.2728  0.0154  0.0178
26927W        W40341   3.277   0.531   5.493 -0.0643 -0.0922 -0.0923
26928W        W40342  16.102   1.734  16.097 -0.0228  0.1518  0.1661
26929W        W40343  16.441   9.843  15.548  0.0554 -0.5174 -0.0413
26930W        W40344   8.494  16.079   4.005  0.1157  0.3468 -0.0448
26931W        W40345  12.250  13.161   0.456  0.2423  0.0013  0.2497
26932W        W40346   9.781   9.616  15.888 -0.1466 -0.0317 -0.1894
26933W        W40347  15.987   1.265  12.555  0.3211  0.0652  0.0202
26934W        W40348  10.956   3.207   4.303  0.1248 -0.0892  0.0421
26935W        W40349  16.956   9.502   6.710  0.0858  0.1928 -0.1654
26936W        W40350   2.675   1.406  16.202  0.1234  0.1830  0.1029
26937W        W40351  12.670  13.481  15.685 -0.2796  0.0151  0.2739
26938W        W40352   1.906   1.622  14.873  0.1440 -0.0274 -0.0891
26939W        W40353   5.018   1.072  11.756 -0.1393  0.0718 -0.1616
26940W        W40354   6.542   2.866   3.097 -0.1521  0.1990 -0.0897
26941W        W40355  14.433   2.139   0.463 -0.1859 -0.3875 -0.2070
26942W        W40356  16.910  13.025   2.761  0.0641 -0.0953 -0.0091
26943W        W40357   3.415  18.089  11.535  0.3743 -0.0281  0.1194
26944W        W40358   9.720   0.757  10.968 -0.1591  0.1791  0.0814
26945W        W40359   8.288   6.325  13.478  0.0714 -0.0858  0.3121
26946W        W40360  15.192  13.075  15.386  0.1758  0.0430 -0.2842
26947W        W40361   8.956  14.628  12.432 -0.3327  0.0275  0.0900
26948W        W40362  14.077   1.581  13.378  0.0108 -0.1427  0.2314
26949W        W40363  10.983   1.793   3.924 -0.0634 -0.1491  0.5014
26950W        W40364   2.801   3.363   4.965 -0.2294  0.0963  0.2147
26951W        W40365  14.022   4.761   4.250 -0.0199  0.0232 -0.3358
26952W        W40366   0.579  18.160  10.659 -0.0449  0.3575 -0.3330
26953W        W40367   4.437   1.461  14.160 -0.1797 -0.0642 -0.2852
26954W        W40368   7.241  11.450   1.260  0.1231  0.2909  0.0743
26955W        W40369   7.423  10.294  13.777  0.0748 -0.2759 -0.2518
26956W        W40370  13.600   6.979   5.461 -0.0047 -0.1207  0.2144
26957W        W40371   8.816   8.519   3.776 -0.2584 -0.0239  0.1994
26958W        W40372  10.288   9.778  14.505 -0.0364  0.3719  0.1288
26959W        W40373  13.625   1.076   3.873  0.2474 -0.0617 -0.0720
26960W        W40374  13.307   6.629   0.530 -0.0422 -0.0194  0.1369
26961W        W40375  13.560  12.976   4.553  0.1933  0.0821 -0.1172
26962W        W40376  14.685   5.480   3.588 -0.0306  0.1670 -0.0787
26963W        W40377   7.517   7.846  13.501 -0.1758 -0.0751  0.0324
26964W        W40378  11.508   2.465   2.508  0.2684 -0.0934  0.0146
26965W        W40379   6.939  17.008   3.591 -0.1924  0.2327  0.1762
26966W        W40380   1.249  10.523   0.095  0.2405  0.1804 -0.0306
26967W        W40381   7.996   9.916   2.141  0.0963  0.1289  0.0868
26968W        W40382  15.891  15.057   0.920 -0.0793  0.2678  0.0387
26969W        W40383  10.643  18.233  14.423 -0.0026 -0.1257  0.1842
26970W        W40384  10.961   0.343   0.498 -0.2894 -0.0894  0.0724
26971W        W40385   0.152   6.934  11.601 -0.2427 -0.0276  0.0042
26972W        W40386  10.931  12.542  11.171  0.1986  0.3133  0.0651
26973W        W40387   3.692  18.082  15.009 -0.1664  0.1026 -0.0384
26974W        W40388   6.358  12.933  13.390  0.2042  0.1108  0.0001
26975W        W40389   1.966   1.871   2.468 -0.0209  0.1391  0.0568
26976W        W40390  17.817   0.818   4.828 -0.0524 -0.1816  0.0648
26977W        W40391   3.259   6.217   1.311  0.4195  0.0034 -0.1764
26978W        W40392  17.538  10.664   0.288  0.2171  0.0759 -0.3760
26979W        W40393  12.123  10.004   0.464  0.2886  0.1599 -0.3087
26980W        W40394   4.840   7.269   3.856 -0.0792  0.1502 -0.0640
26981W        W40395   3.181  12.476  10.298 -0.0654  0.1158  0.2731
26982W        W40396  10.265   9.769  10.973 -0.1082 -0.0718 -0.1807
26983W        W40397  16.541  10.055   6.170  0.1309 -0.2229  0.5114
26984W        W40398   7.630  15.524  12.450  0.1435  0.1930 -0.1595
26985W        W40399  10.033   4.821   1.727 -0.2626  0.2835  0.0465
26986W        W40400  18.038  16.591   1.484  0.0755 -0.0475  0.2936
26987W        W40401   3.507   2.743  16.090 -0.3734  0.0859 -0.5466
26988W        W40402  16.430  12.919   4.104  0.0946 -0.0415  0.1476
26989W        W40403  10.028   2.341  15.999 -0.0604  0.0773  0.2791
26990W        W40404   1.070  10.679   3.446 -0.3037  0.0205 -0.1260
26991W        W40405   1.939  10.107   0.709  0.0011  0.0742  0.2325
26992W        W40406   6.660   7.108  14.643  0.0071 -0.0581 -0.0677
26993W        W40407   4.019   7.823  12.538  0.0254 -0.0583 -0.0479
26994W        W40408  10.366   0.107  15.590 -0.0999  0.0423  0.0922
26995W        W40409   6.829   2.111  13.619  0.1754 -0.0712  0.1536
26996W        W40410  13.569  16.870  13.132  0.2201 -0.1820 -0.0243
26997W        W40411  13.907  14.861   1.648  0.1551 -0.1013 -0.2635
26998W        W40412   9.647  17.082  15.568 -0.1773  0.0307  0.0394
26999W        W40413   4.851  12.876   0.558 -0.0210 -0.0114 -0.1504
27000W        W40414  11.936   6.092   1.849 -0.2619 -0.2373 -0.0394
27001W        W40415  10.640  12.276  15.637  0.1882  0.4637 -0.0687
27002W        W40416   4.543  16.833   3.681 -0.0268 -0.1543  0.2518
27003W        W40417  12.528  16.899  16.054 -0.2875 -0.1180  0.3878
27004W        W40418  12.891   4.367  10.621  0.0471  0.2937 -0.0152
27005W        W40419  17.777  14.769   4.821  0.0644 -0.1994 -0.2129
27006W        W40420   8.320   5.573   3.155  0.1607 -0.0933 -0.0922
27007W        W40421  11.071   9.236  13.059  0.2472 -0.1208 -0.2722
27008W        W40422   3.689   2.775  12.870  0.2090 -0.0019  0.3183
27009W        W40423   5.710   9.717   3.782 -0.0611 -0.1581 -0.3579
27010W        W40424  11.996  13.240  14.057 -0.0692  0.0835 -0.0786
27011W        W40425   7.126  13.331   2.979 -0.2399 -0.2112  0.0807
27012W        W40426  17.528   5.563  14.469  0.1619  0.0106 -0.1446
27013W        W40427  16.345   7.119  15.690  0.0890  0.0232 -0.5283
27014W        W40428   8.198   3.410  12.899 -0.1741  0.1290 -0.0118
27015W        W40429   9.220  13.580  13.835 -0.3381  0.0000  0.2816
27016W        W40430  16.090  14.975  12.930 -0.2671  0.0611 -0.0204
27017W        W40431   2.823  10.375  14.201 -0.0883 -0.0043 -0.1300
27018W        W40432   7.688  17.030  14.311  0.0519  0.1898  0.1211
27019W        W40433  15.299   5.161  12.665 -0.1875  0.1871 -0.4124
27020W        W40434  15.195   1.149  10.900  0.2606  0.0062 -0.1378
27021W        W40435   9.889   7.653  14.393  0.1321  0.1809  0.0147
27022W        W40436   8.749   3.932   4.312 -0.2607  0.0584 -0.1366
27023W        W40437  13.328   7.478  13.479  0.0140 -0.0056  0.2401
27024W        W40438  15.848  15.466  13.008 -0.1450  0.0954  0.1554
27025W        W40439  12.954  11.896   0.285 -0.0881  0.1839  0.0950
27026W        W40440  14.017   2.174   6.091 -0.2448 -0.2129 -0.1122
27027W        W40441  13.783   6.022   5.527  0.0605 -0.0996 -0.1793
27028W        W40442  16.808  17.117   2.159  0.4724 -0.2582 -0.0169
27029W        W40443   2.687   8.222   4.613 -0.2881  0.2900  0.0122
27030W        W40444   4.310   0.472  10.648 -0.1186 -0.1408 -0.0703
27031W        W40445   4.170  14.782   2.588 -0.1349 -0.0313 -0.0692
27032W        W40446  16.440  16.759   5.651  0.1457  0.0856  0.2505
27033W        W40447  18.126   0.116   0.508 -0.1129  0.0358 -0.4260
27034W        W40448  17.557   5.317   5.477 -0.0236 -0.0732  0.1043
27035W        W40449   7.150   2.906   3.981  0.4158  0.0175 -0.0786
27036W        W40450   7.623  13.384   4.923 -0.1455 -0.1640  0.0965
27037W        W40451   2.067   3.967  12.505  0.1317  0.0096 -0.1747
27038W        W40452   0.257  14.299   0.832  0.1870  0.0012 -0.1027
27039W        W40453   4.763  16.200  12.412  0.0758  0.1428 -0.2970
27040W        W40454  16.137   5.687  12.938  0.1160 -0.2207 -0.2961
27041W        W40455  15.541  14.573   4.936 -0.0761 -0.0114 -0.0680
27042W        W40456  17.813   6.276   5.551 -0.1398  0.0967 -0.0144
27043W        W40457  16.401  16.288  11.693 -0.2107  0.3679  0.1621
27044W        W40458  13.876   7.839  12.846  0.2833 -0.1639 -0.2406
27045W        W40459   5.925   5.453  12.109 -0.0132  0.0311 -0.0624
27046W        W40460   6.493  14.037   0.022 -0.2370 -0.0610  0.2493
27047W        W40461  11.748   7.528  15.507 -0.0166  0.2925  0.3279
27048W        W40462   1.896   0.661  11.516 -0.1881 -0.1643 -0.0201
27049W        W40463  15.531   3.891   4.866 -0.2560 -0.3391  0.1932
27050W        W40464  12.233   1.970  15.437  0.0391 -0.1566  0.2573
27051W        W40465   7.784  13.507   3.595 -0.0460  0.1398 -0.0768
27052W        W40466  16.873  14.541   3.747 -0.2873  0.0870  0.1924
27053W        W40467   7.828  14.216  12.952  0.0345  0.3269  0.1834
27054W        W40468  11.575  14.647   3.780  0.2339  0.0386 -0.0223
27055W        W40469  16.047   8.231  10.143  0.1049 -0.0803 -0.0497
27056W        W40470   4.775   5.651  15.768  0.1882 -0.2009  0.1645
27057W        W40471   9.892   8.478  12.674  0.0606 -0.1555  0.2756
27058W        W40472   1.861   0.118  14.398  0.2214 -0.1524 -0.0864
27059W        W40473  14.731   9.725  13.110 -0.2744  0.0849  0.0291
27060W        W40474  10.663   8.313  14.436  0.1859  0.0658  0.0786
27061W        W40475  17.824   1.988  15.039 -0.0097 -0.1381 -0.0993
27062W        W40476   5.085  12.522   4.609 -0.3946 -0.2125 -0.4053
27063W        W40477   0.126  17.509  12.480  0.0834  0.0603 -0.1238
27064W        W40478   6.437  17.195   2.399  0.2175 -0.0284 -0.0749
27065W        W40479  13.672   6.021  14.925  0.2728  0.1734  0.0678
27066W        W40480   0.730  12.600  13.457 -0.4087 -0.3387  0.0417
27067W        W40481   4.060   0.844  14.661  0.2560 -0.0283  0.0201
27068W        W40482   6.262   3.956  16.353 -0.0243  0.0321 -0.1933
27069W        W40483  17.701  12.394  14.582 -0.0427 -0.0745 -0.2193
27070W        W40484  13.155   7.745  12.214  0.1229  0.1074  0.0322
27071W        W40485  12.503   2.057  10.342  0.0343  0.2298  0.0709
27072W        W40486  15.849   5.295   0.907  0.2382 -0.0321  0.2605
27073W        W40487   4.201   8.046  14.518  0.1503  0.0520  0.2295
27074W        W40488   2.651   7.576   0.194  0.1004  0.1674 -0.1955
27075W        W40489  13.544  16.092  11.955  0.0055  0.0199 -0.0608
27076W        W40490   2.295  15.055   3.570  0.1391 -0.1938  0.2348
27077W        W40491  13.281   6.405  15.093  0.0265 -0.2185  0.0797
27078W        W40492   0.426   9.706  15.485  0.0853 -0.0254  0.0094
27079W        W40493  15.940  11.343   3.854 -0.4381  0.1606 -0.1013
27080W        W40494   8.920   5.680  15.956  0.0338 -0.0653  0.0502
27081W        W40495  10.737  10.059  10.155  0.3233  0.1941 -0.0039
27082W        W40496   1.651   5.644  11.552  0.0037  0.1772 -0.2798
27083W        W40497   3.710   4.265   0.269  0.0865 -0.4810  0.0471
27084W        W40498  17.720  13.792   1.140 -0.0096 -0.0199  0.0302
27085W        W40499  13.626  15.588   2.270  0.0380  0.0919  0.0945
27086W        W40500   6.709  10.056   5.920  0.1916 -0.0104 -0.0052
27087W        W40501  12.773  15.911  14.718  0.3227  0.1530 -0.0887
27088W        W40502   6.204   0.372  16.482  0.0808  0.3770 -0.1532
27089W        W40503   6.358  11.544  11.199 -0.0669  0.1026 -0.0595
27090W        W40504   4.242  16.258  15.776  0.2627  0.1341  0.1426
27091W        W40505  16.558   8.269  14.961  0.2932 -0.2707 -0.0431
27092W        W40506   6.272   0.069   3.294 -0.1333  0.0871  0.0264
27093W        W40507  13.766  11.476   3.401  0.3112 -0.0252 -0.2224
27094W        W40508   1.800  17.047  14.999  0.0841  0.0698 -0.1267
27095W        W40509   0.409  13.858   0.744  0.1649 -0.1620 -0.0006
27096W        W40510   7.991   1.382  12.419 -0.1857 -0.1538 -0.2106
27097W        W40511  13.077   3.512  10.507 -0.2163 -0.3198  0.0269
27098W        W40512   9.915  17.061  11.337  0.2367 -0.0287  0.0380
27099W        W40513  10.785   9.823  11.753  0.3788 -0.1741  0.3774
27100W        W40514  16.254  17.730   4.879 -0.4294  0.0262  0.0825
27101W        W40515  11.013   6.308   4.727  0.1333 -0.2772 -0.1539
27102W        W40516  17.290  17.451   1.345 -0.1933  0.1355 -0.0479
27103W        W40517   4.106   7.796   0.639 -0.1268 -0.0298  0.0492
27104W        W40518  14.523  14.447   4.233 -0.0131 -0.1733  0.0503
27105W        W40519   3.666  13.584  15.492 -0.3323 -0.0288  0.0110
27106W        W40520   4.450  12.787   3.071  0.1929  0.1002  0.3447
27107W        W40521  15.233   5.442  14.990  0.0528 -0.1526 -0.0567
27108W        W40522   4.896  15.425   6.189  0.0240 -0.1594 -0.0230
27109W        W40523   6.813   2.662  13.531  0.2102 -0.3045  0.0896
27110W        W40524   6.703  17.352   4.149  0.0409  0.2928 -0.5924
27111W        W40525   0.610  13.869   4.798  0.0734  0.0956  0.0253
27112W        W40526   6.259  18.034   5.338  0.1016  0.2609 -0.0882
27113W        W40527  17.996   5.599   0.648 -0.1719 -0.3722 -0.0046
27114W        W40528   1.260   9.189   4.017  0.0752  0.1713  0.2224
27115W        W40529  10.321  15.272  16.177 -0.0413  0.2438 -0.0604
27116W        W40530  10.014   9.295   2.478 -0.3579 -0.1928  0.1011
27117W        W40531  17.114   6.345   2.322 -0.0171 -0.0523  0.2090
27118W        W40532   1.662  11.121  15.649  0.1566 -0.2052 -0.1791
27119W        W40533  13.015  15.067  16.325 -0.1469  0.0326 -0.1446
27120W        W40534   0.979   8.189   5.275 -0.0201  0.1714 -0.0617
27121W        W40535   8.704   4.959   3.903 -0.3319 -0.2239 -0.2566
27122W        W40536  14.904   6.839   2.142  0.5285  0.0411 -0.0214
27123W        W40537  13.197  17.627   1.318 -0.0026  0.0274 -0.0911
27124W        W40538   2.122   1.916  12.089  0.4315  0.1324 -0.1329
27125W        W40539   4.590  13.861   4.052  0.1174 -0.1380 -0.0852
27126W        W40540   5.847  13.495  13.931  0.1603 -0.1270 -0.2094
27127W        W40541   6.710  13.988  13.947 -0.0797  0.1040  0.2042
27128W        W40542  13.434   9.289   5.013  0.0159  0.3823  0.0514
27129W        W40543   4.103   0.202   1.440 -0.0417 -0.0065 -0.0822
27130W        W40544   9.853  14.821  13.067 -0.0610  0.0924  0.2094
27131W        W40545  14.165   3.380  10.614  0.1816  0.1453  0.1229
27132W        W40546  15.558   8.500  14.025  0.0331 -0.1379  0.0170
27133W        W40547   4.657   4.475   2.869  0.1376  0.1241  0.0085
27134W        W40548  12.344  11.017   0.820 -0.0706  0.0412  0.3407
27135W        W40549   3.467   4.786   4.305 -0.1760  0.1655  0.0339
27136W        W40550  10.927  14.433  14.082 -0.2612  0.0686 -0.0893
27137W        W40551   9.511   9.596   3.212  0.3053  0.0180 -0.0279
27138W        W40552  10.870  11.991   4.281  0.2319 -0.2611  0.0891
27139W        W40553  17.531   7.937   1.458  0.1494  0.1243 -0.0246
27140W        W40554   1.772   9.528   0.636 -0.4191  0.2674  0.3039
27141W        W40555   5.577  13.380   3.730  0.1183 -0.0939  0.1987
27142W        W40556   3.347   8.360  11.212 -0.2474  0.1162 -0.2088
27143W        W40557   8.094  12.166  12.721 -0.0755 -0.1599  0.1927
27144W        W40558  14.842  10.473   5.757 -0.1129 -0.0349  0.0795
27145W        W40559  13.329   9.838   5.367 -0.0046 -0.0474  0.0988
27146W        W40560   9.614  15.157  11.611 -0.0130 -0.0717 -0.0712
27147W        W40561   7.153  14.513   1.237  0.1459 -0.3000  0.2132
27148W        W40562   6.645   4.433  13.694 -0.0568 -0.1035  0.1144
27149W        W40563  17.168   8.575  15.626 -0.3015 -0.0671  0.0191
27150W        W40564  17.251  14.652   0.322  0.3337  0.1602 -0.1210
27151W        W40565  17.415   1.429   4.082  0.0455  0.1628  0.0472
27152W        W40566   3.394  15.096   2.277 -0.0680 -0.0795  0.0297
27153W        W40567   5.101  17.648   5.485 -0.2725 -0.3722 -0.4158
27154W        W40568  17.470   3.653   1.725 -0.2328 -0.1743 -0.1565
27155W        W40569  13.200  13.162  12.907 -0.1623  0.3462 -0.1344
27156W        W40570  13.140   7.634  14.129  0.0447 -0.0635  0.1950
27157W        W40571   4.161   7.989   1.829 -0.1431  0.1625  0.0546
27158W        W40572  18.256   1.883  15.235  0.1464  0.2450  0.1689
27159W        W40573  12.491   6.423   2.340  0.1380  0.0508  0.2554
27160W        W40574   7.408  15.526   5.658  0.0106 -0.1429  0.3434
27161W        W40575  11.483  12.846   5.058  0.3044 -0.5375  0.1654
27162W        W40576  11.847  16.967   4.905 -0.2797 -0.0483 -0.0831
27163W        W40577   1.640   9.234  11.314 -0.0077  0.0031 -0.3520
27164W        W40578  16.636  11.756   2.220  0.0368  0.0169 -0.1420
27165W        W40579   4.776   0.006   1.129  0.0823  0.3325 -0.1177
27166W        W40580  12.378  15.870   0.877 -0.0279 -0.2389  0.0464
27167W        W40581  13.464  12.483   5.562  0.1906  0.0020  0.1170
27168W        W40582  16.636  17.877   5.197  0.2517 -0.1067 -0.0605
27169W        W40583   1.096   1.191  12.799  0.0090 -0.0885  0.2064
27170W        W40584   7.474   1.321  15.374  0.1082  0.1160 -0.1421
27171W        W40585   8.184   9.614   6.879  0.0224 -0.1657  0.4099
27172W        W40586   0.449   1.907   3.641 -0.1044 -0.0993 -0.1200
27173W        W40587   7.910  15.629   3.468  0.0977 -0.3532 -0.3460
27174W        W40588  14.428   1.857   4.577  0.4201  0.1616 -0.0109
27175W        W40589   8.007   8.793  15.987 -0.1804  0.1634 -0.1864
27176W        W40590   1.184   2.463   1.378  0.0953  0.0980 -0.1314
27177W        W40591   5.845   5.943  11.149  0.1112  0.1144 -0.0172
27178W        W40592  10.055   3.883   1.586 -0.1014 -0.0609  0.3418
27179W        W40593  16.186   7.230   3.245  0.1972 -0.0140 -0.2068
27180W        W40594   8.842  15.933   4.480 -0.0831  0.1796  0.0549
27181W        W40595   5.065   2.185  15.665  0.0561  0.2543  0.2172
27182W        W40596   2.480   9.820   2.019  0.0715 -0.0121 -0.0331
27183W        W40597  15.690  16.655   0.194  0.1320  0.2864 -0.1974
27184W        W40598  14.324   9.950  13.695  0.2735 -0.0514  0.1718
27185W        W40599   1.546  16.386  16.102  0.2328 -0.1250 -0.1921
27186W        W40600   0.152  13.417   1.446 -0.0367  0.0964  0.0295
27187W        W40601   0.088  12.812  11.343 -0.3329  0.1211  0.1270
27188W        W40602  10.727   9.460   1.534  0.0973  0.2571  0.2089
27189W        W40603   1.323   9.731   3.322 -0.1671 -0.0212 -0.2323
27190W        W40604  11.771   2.590   1.111 -0.0589 -0.0055 -0.1471
27191W        W40605  17.065  10.028   0.410 -0.0939  0.2078  0.0692
27192W        W40606  17.840   7.588   5.220 -0.1131 -0.0772 -0.2599
27193W        W40607  10.874   7.388   3.173  0.1536  0.0118  0.2310
27194W        W40608  13.024  14.442   1.979  0.1652 -0.0019 -0.2513
27195W        W40609   2.134  15.217   0.821  0.2123 -0.1245 -0.1449
27196W        W40610   4.478   3.736  13.338 -0.0228 -0.1488  0.1206
27197W        W40611  10.939   3.604  11.178 -0.0378 -0.2476 -0.0683
27198W        W40612   3.662  12.674  10.198  0.0484 -0.2036 -0.0156
27199W        W40613   1.154  10.176   3.592 -0.2485 -0.0675 -0.0508
27200W        W40614   9.219  14.313  11.956 -0.0856 -0.3297 -0.0347
27201W        W40615  14.038   6.470   1.400  0.4672 -0.3048  0.0503
27202W        W40616  15.686  17.516  16.353  0.3922 -0.2235 -0.0853
27203W        W40617  12.495   1.686   2.989 -0.0645  0.2713 -0.5871
27204W        W40618   4.029   9.120   3.869  0.0231 -0.3415 -0.0824
27205W        W40619   7.474   4.770  14.159  0.2190 -0.0616 -0.1966
27206W        W40620  11.092   0.013  10.727 -0.1370  0.1908 -0.0179
27207W        W40621  12.947   3.632  14.135 -0.1932 -0.1755 -0.2447
27208W        W40622   1.481   5.339  10.941 -0.2831 -0.2077 -0.5135
27209W        W40623   2.424  17.399   4.135  0.0936  0.1266  0.2291
27210W        W40624   0.090   9.132   0.559  0.0385  0.2940 -0.0955
27211W        W40625   8.123   1.040  12.046 -0.0260  0.0400 -0.1218
27212W        W40626   1.510   7.676  16.435 -0.0809 -0.0115 -0.2775
27213W        W40627  16.147   4.128  16.465  0.3561 -0.2352 -0.1042
27214W        W40628   2.039  13.165  14.381 -0.0616  0.1146 -0.3905
27215W        W40629  17.962   1.578   1.076  0.0459 -0.2333  0.0433
27216W        W40630  11.049   9.837   2.824 -0.0427 -0.2522  0.3478
27217W        W40631   7.905  14.597   5.542  0.1679 -0.0340  0.3343
27218W        W40632  13.406  16.336   2.881 -0.3668  0.0763  0.0792
27219W        W40633  12.954   6.979   6.201 -0.0017 -0.0156 -0.4380
27220W        W40634   6.961   4.573   0.211  0.2650  0.2303  0.0010
27221W        W40635   7.037  12.374   3.744  0.2280  0.2568 -0.3052
27222W        W40636  16.811  10.247  14.217 -0.0696 -0.5386 -0.2984
27223W        W40637   4.470   4.062   1.955 -0.0870 -0.0240 -0.1900
27224W        W40638  11.916  13.527   0.280  0.0959 -0.0603  0.2223
27225W        W40639   3.379  10.967  14.405  0.0928  0.1090 -0.5155
27226W        W40640   0.147  14.117   4.945 -0.1006 -0.2894 -0.0173
27227W        W40641  13.371  17.346   3.553 -0.0725 -0.0206  0.1259
27228W        W40642  17.663   5.069   3.290  0.0037 -0.1536  0.1189
27229W        W40643   5.145  10.532   2.193  0.0150  0.0927 -0.0032
27230W        W40644  10.552   4.474  11.046  0.1140 -0.0020  0.1324
27231W        W40645  15.418   4.691   1.895  0.2030 -0.1218 -0.2363
27232W        W40646  16.640  13.045   2.241  0.1415 -0.2577 -0.0891
27233W        W40647  14.301  16.602  10.721 -0.0344  0.0303  0.1570
27234W        W40648   3.390  14.510  13.574  0.1925 -0.2583 -0.1776
27235W        W40649  16.102  12.854  12.324 -0.1373  0.0641 -0.1483
27236W        W40650   1.339  16.005  15.125 -0.1233  0.2812  0.2011
27237W        W40651   9.112   9.117  14.269 -0.3996 -0.2852  0.1136
27238W        W40652  16.203   4.633   3.158  0.4662  0.0924 -0.0451
27239W        W40653  14.011  10.353   5.441  0.0376  0.1300  0.0767
27240W        W40654   0.570  10.459   2.658 -0.1279 -0.4165  0.1558
27241W        W40655  15.065  11.275  16.217 -0.1621  0.1395 -0.2783
27242W        W40656   5.524  14.967  15.427 -0.2522  0.1433 -0.1872
27243W        W40657   8.842   8.465  12.571 -0.1294 -0.1844 -0.2813
27244W        W40658   8.593   6.149   4.697 -0.2672  0.0865 -0.1765
27245W        W40659  16.617   0.860   3.140  0.1644  0.1654 -0.1964
27246W        W40660  15.434  16.847   1.859 -0.3817 -0.1395 -0.0846
27247W        W40661   6.473  10.709  12.413  0.0343  0.1203 -0.3004
27248W        W40662  11.475   0.209   3.680 -0.1583 -0.0019  0.2806
27249W        W40663   3.444   6.683  10.748  0.1871  0.1683  0.3207
27250W        W40664   2.857  14.110  14.805  0.2728 -0.0570  0.1985
27251W        W40665  10.570   2.078  16.023  0.0263 -0.0428 -0.0898
27252W        W40666   4.059  13.481   0.174  0.0789 -0.3549  0.0191
27253W        W40667  15.166   9.150  11.461 -0.2416 -0.0943 -0.0676
27254W        W40668  11.786   2.288  15.483  0.0893  0.0380 -0.0938
27255W        W40669  17.078  12.724   1.282 -0.1929 -0.1266  0.0469
27256W        W40670  16.088  16.273  14.284 -0.0753  0.0980  0.2019
27257W        W40671  14.831  12.558  11.426  0.0102 -0.0048 -0.0778
27258W        W40672   1.781   0.285  11.781  0.2923  0.1710  0.0575
27259W        W40673   4.557  10.227   2.284  0.0364 -0.1962 -0.0052
27260W        W40674  15.641   9.030   0.656 -0.2557  0.1087 -0.0976
27261W        W40675  12.162  16.190   0.524  0.0733  0.0395 -0.0320
27262W        W40676   0.755   9.040   3.845  0.1618  0.1256 -0.0820
27263W        W40677   5.625  15.228   2.221 -0.1483 -0.0471 -0.0120
27264W        W40678   6.592   3.886  15.927 -0.2170  0.1017 -0.0507
27265W        W40679   5.906  10.295  11.360  0.1683 -0.0608 -0.2480
27266W        W40680   0.102   5.924   0.312 -0.2063  0.1930  0.1180
27267W        W40681   3.433   0.724   5.926  0.2506 -0.2520 -0.0453
27268W        W40682  17.404   7.900   6.079 -0.2342  0.2318 -0.3037
27269W        W40683  15.371   4.993  15.497 -0.0075  0.1965  0.0939
27270W        W40684   3.653   7.671   0.530  0.0539  0.1299 -0.2040
27271W        W40685   2.211   1.475  10.431 -0.1534 -0.1761  0.1656
27272W        W40686   7.601  13.188  13.327 -0.2132 -0.0113  0.2413
27273W        W40687   2.176   9.948   1.594  0.1662 -0.1669 -0.1710
27274W        W40688  15.078   7.864   0.034  0.0645 -0.1731  0.0766
27275W        W40689  10.065   3.699   5.956 -0.1047  0.1586 -0.0795
27276W        W40690   5.334  17.675  13.444  0.1351 -0.0114  0.0373
27277W        W40691   6.942   2.876   2.387  0.1717 -0.1248  0.1065
27278W        W40692   9.553  14.795  16.296  0.1917  0.0395  0.1808
27279W        W40693   1.652   2.419  15.933 -0.0061  0.0669 -0.0566
27280W        W40694   8.357  16.759   1.929  0.1807 -0.0528 -0.2863
27281W        W40695  13.542   4.163   5.739 -0.4096 -0.2568  0.0431
27282W        W40696   6.938   4.690   3.915 -0.2141  0.0351 -0.2126
27283W        W40697  14.673   8.805  15.036  0.1547 -0.2085 -0.4059
27284W        W40698   7.877   2.488  10.833 -0.2807 -0.3319  0.5569
27285W        W40699   5.485   6.450   3.061  0.0236 -0.0853  0.0564
27286W        W40700   4.469  16.075  14.648 -0.1206 -0.2841 -0.0375
27287W        W40701  12.339  14.054  14.508 -0.3160 -0.3734 -0.1954
27288W        W40702   8.527  16.897  14.591 -0.0136 -0.1775  0.0339
27289W        W40703   2.800  14.039  12.124  0.1702  0.1242  0.2914
27290W        W40704   5.595   3.496  15.402 -0.0624  0.4691 -0.2373
27291W        W40705  13.130   2.665   0.043  0.3572  0.4479 -0.2093
27292W        W40706   2.920  11.294   1.911  0.1882 -0.0245 -0.1329
27293W        W40707  17.013  15.757   2.992  0.2142  0.2784 -0.2106
27294W        W40708  13.231  18.071   4.274 -0.2421  0.2448  0.1646
27295W        W40709   9.757   8.461   4.194  0.1390  0.5782  0.0325
27296W        W40710  13.705  10.226  12.079 -0.0422  0.3171 -0.0457
27297W        W40711   9.437  13.126  13.648  0.0470 -0.1097 -0.1675
27298W        W40712   1.874   0.360   2.013 -0.3677 -0.1369  0.2726
27299W        W40713   6.235  14.861   1.463 -0.3829 -0.3334 -0.2155
27300W        W40714   7.008  15.866   3.149 -0.0053  0.0814 -0.0347
27301W        W40715   0.314   2.879   5.803  0.1734  0.0366 -0.2454
27302W        W40716   3.216   1.507  16.251  0.0532 -0.0052  0.1083
27303W        W40717  12.674   5.974  10.712  0.2046 -0.1250  0.2319
27304W        W40718   9.992  17.040  10.814 -0.1258  0.1212  0.1689
27305W        W40719  14.819   6.806   3.204  0.0863 -0.0983 -0.0967
27306W        W40720  15.426   7.163  13.573 -0.3783  0.0359 -0.0068
27307W        W40721  16.816  15.971  12.408  0.3017 -0.0209 -0.2541
27308W        W40722   9.514  18.028  10.775  0.3188 -0.1389  0.0735
27309W        W40723   1.273  13.160   0.079 -0.1397 -0.1380 -0.2958
27310W        W40724  10.685  12.984  14.357  0.0288 -0.0540  0.0595
27311W        W40725   8.887   0.854  14.020  0.1184  0.0396  0.1419
27312W        W40726   6.885   6.705   4.506  0.1235 -0.3828 -0.0312
27313W        W40727  17.588  17.691   2.076 -0.0399 -0.0682  0.1266
27314W        W40728  13.153  15.537   3.281 -0.2505 -0.0036 -0.3032
27315W        W40729  11.126  12.840   6.268  0.4393 -0.2565 -0.0074
27316W        W40730   9.655   3.547   1.500  0.0574 -0.2800 -0.3558
27317W        W40731  18.038   2.929  12.161  0.0994  0.0640 -0.1134
27318W        W40732  15.616  17.651   3.974  0.2019 -0.0712 -0.2779
27319W        W40733   8.667  17.976   1.681 -0.0132  0.2290 -0.0937
27320W        W40734   8.304   1.018  12.599  0.1205 -0.3341 -0.1437
27321W        W40735  17.573  10.773  11.257 -0.2200  0.0354 -0.1469
27322W        W40736   8.290  13.710   4.197 -0.0841 -0.1584  0.0220
27323W        W40737  18.177  10.596   2.454 -0.1044  0.1343  0.0535
27324W        W40738  10.665   9.239  12.722  0.0994 -0.1265 -0.0474
27325W        W40739   2.613  13.729  14.681  0.1399 -0.1991  0.1721
27326W        W40740  14.980  13.198   5.661  0.2316  0.1060  0.2811
27327W        W40741  10.060  10.195   5.295  0.0979  0.0230 -0.3816
27328W        W40742  15.625   7.292   5.447  0.1039  0.0256 -0.2021
27329W        W40743  16.404   5.783  11.562 -0.0044  0.0816  0.1617
27330W        W40744   4.986  16.496  11.823  0.1643 -0.1996 -0.1916
27331W        W40745  14.696  12.512  16.126 -0.1400  0.1630 -0.1945
27332W        W40746   0.765  13.356   3.857 -0.0247 -0.0919 -0.0160
27333W        W40747  12.244  16.109   4.678  0.1817  0.0152 -0.3206
27334W        W40748  17.438  16.294  11.021  0.4215 -0.1615  0.4105
27335W        W40749   5.568   6.254  10.850 -0.2789  0.1197  0.3173
27336W        W40750  14.555  10.566   3.012 -0.2374  0.0425  0.1545
27337W        W40751  16.920   0.661   1.654  0.0170  0.0390  0.0672
27338W        W40752  11.287  13.156   4.244  0.4965  0.2243 -0.0564
27339W        W40753  10.363  15.644  14.908  0.0482  0.0166  0.0002
27340W        W40754   2.093  14.386  13.141  0.2669  0.0778  0.0509
27341W        W40755   3.502   3.948   5.850 -0.1439  0.1570  0.0692
27342W        W40756   6.759   9.870   4.556 -0.0222  0.1785  0.0048
27343W        W40757   0.530  12.970   1.435 -0.0371  0.1670 -0.2685
27344W        W40758   2.096   0.683  10.443  0.1335 -0.1032  0.1939
27345W        W40759  13.152  11.012  12.539 -0.1433 -0.3527 -0.0201
27346W        W40760   9.823   3.803   4.759 -0.2485  0.1206  0.0517
27347W        W40761  13.480   2.688  12.276 -0.2154 -0.1006  0.0139
27348W        W40762  11.575   2.623   0.105  0.1073 -0.1215  0.1535
27349W        W40763   3.588  11.362  12.390 -0.0250 -0.0084  0.1550
27350W        W40764  16.188  11.841   5.556 -0.0225 -0.2075  0.0981
27351W        W40765  15.567  14.217  15.446  0.1288 -0.0295  0.0367
27352W        W40766   7.042  11.941  14.662  0.0860  0.1343 -0.0491
27353W        W40767   9.198   9.949   3.017 -0.2512  0.2096  0.3384
27354W        W40768   7.917   7.953  10.391  0.1729 -0.3682 -0.1882
27355W        W40769   6.211   2.716   5.049  0.1434 -0.3163 -0.2092
27356W        W40770   6.181   0.267  12.368  0.1107  0.0091  0.2471
27357W        W40771  15.768  12.159  15.477  0.1979  0.2397 -0.0455
27358W        W40772  13.358   3.557  10.096 -0.0328  0.1058 -0.0733
27359W        W40773   1.395  13.102  15.719 -0.2454  0.1210  0.3127
27360W        W40774  16.780  14.789   0.854  0.0705  0.2867  0.0166
27361W        W40775   2.832   7.888  14.165  0.0692  0.2646 -0.1043
27362W        W40776   8.723   9.558  14.732 -0.2772  0.1602 -0.3013
27363W        W40777   8.788  15.655  14.499 -0.3119 -0.0535 -0.1487
27364W        W40778   2.972   6.676   4.966  0.0539  0.3525  0.2237
27365W        W40779   2.458   0.318   3.488 -0.2965 -0.1896  0.2346
27366W        W40780   6.390  13.700   4.296  0.1472  0.1326  0.2118
27367W        W40781  14.541   2.969   4.546 -0.0876  0.1896 -0.1274
27368W        W40782  10.872  15.188  14.389 -0.0321 -0.0196  0.2498
27369W        W40783   2.364  15.844  14.891 -0.1089  0.1550  0.1053
27370W        W40784  16.913  11.373   4.914  0.0369 -0.0275  0.2725
27371W        W40785   7.201  14.683  10.523  0.1431  0.1362 -0.4193
27372W        W40786   3.377   4.471  10.812  0.0892 -0.0864  0.0301
27373W        W40787   6.132  16.739  14.306 -0.1687 -0.3337 -0.0100
27374W        W40788   3.780  16.870  12.770 -0.0739 -0.2292 -0.2831
27375W        W40789   7.898  16.965   1.312  0.0606  0.1021  0.0895
27376W        W40790  13.209   7.173  14.372  0.1513 -0.2491 -0.0440
27377W        W40791   6.473   4.424  10.344 -0.2947 -0.0368  0.1487
27378W        W40792   6.268  12.780  10.882  0.1087  0.2509 -0.0868
27379W        W40793  10.107  10.483   3.092  0.0291 -0.0058  0.1874
27380W        W40794  15.907   8.651   2.949  0.1710 -0.2100  0.0447
27381W        W40795  12.841   4.201   4.503  0.1224 -0.5075 -0.1186
27382W        W40796   7.570  15.072   5.459 -0.0540 -0.3800 -0.3039
27383W        W40797   3.386   4.050  13.198 -0.0223  0.1800  0.0160
27384W        W40798   5.354   2.270   0.431 -0.1405  0.0481  0.2735
27385W        W40799   1.552  12.942   0.519  0.0988 -0.3683  0.1534
27386W        W40800  14.858  11.990   5.324 -0.0720  0.1461 -0.2065
27387W        W40801  14.184  10.850   2.804  0.0691  0.1758  0.2031
27388W        W40802   8.368  16.769  15.752 -0.1837  0.0510 -0.0012
27389W        W40803  11.147   1.432  14.975 -0.0680  0.1106 -0.0125
27390W        W40804   2.407   9.692   4.338 -0.0935  0.0425 -0.0306
27391W        W40805  16.479   4.920  12.612 -0.0547 -0.1666  0.1131
27392W        W40806   4.733  16.223  10.769 -0.1772 -0.4096  0.2098
27393W        W40807   6.527   6.594  14.548 -0.0956 -0.2918  0.1445
27394W        W40808   6.039   2.999  14.038  0.1916 -0.0608 -0.1689
27395W        W40809  17.134   1.434   2.657  0.0497  0.0984  0.3291
27396W        W40810  18.130  16.008  15.626  0.0322  0.1096  0.2703
27397W        W40811  16.457   4.800  14.811 -0.1838  0.0415 -0.1140
27398W        W40812   5.801   2.003   6.384  0.2389 -0.0687 -0.1298
27399W        W40813  16.033  17.182   0.190 -0.1618 -0.2452 -0.1245
27400W        W40814   4.219  14.025  14.279  0.2712  0.2600  0.1328
27401W        W40815   5.208   2.929   4.115  0.1239 -0.2776  0.2597
27402W        W40816   8.602   4.701  13.381 -0.2931 -0.0474  0.0543
27403W        W40817  16.942   4.001  13.218  0.1526 -0.2597 -0.1213
27404W        W40818  14.439   2.203  16.317 -0.0770 -0.3375 -0.0228
27405W        W40819   5.482  10.379   6.096  0.1353 -0.2072  0.1684
27406W        W40820  18.183   1.105  14.284  0.2012 -0.2177 -0.2711
27407W        W40821   0.557   3.620   0.046  0.0075 -0.0937 -0.1006
27408W        W40822  14.931   7.373   0.359  0.2646  0.2398 -0.2062
27409W        W40823  17.051   6.730   3.467  0.2585  0.1752  0.0884
27410W        W40824  12.971   8.979   6.277  0.2201  0.1140  0.3010
27411W        W40825  10.053  13.486   5.851 -0.0218  0.3861  0.0802
27412W        W40826  10.986   2.042  15.655 -0.0269  0.1083  0.1760
27413W        W40827  15.101   1.577   4.457 -0.0013 -0.2084 -0.2257
27414W        W40828   0.772   5.791   2.749  0.1125  0.2999  0.1134
27415W        W40829   8.214  17.828  12.944  0.0670  0.0689 -0.0440
27416W        W40830  17.954  12.487   2.098  0.0509  0.0265 -0.1945
27417W        W40831   1.308   3.541  15.260  0.1477  0.0600  0.0685
27418W        W40832  12.154   4.355   9.976 -0.1581 -0.1245 -0.0338
27419W        W40833   1.398   8.836   0.236  0.1243 -0.0588  0.3399
27420W        W40834   0.833   4.579  15.410 -0.1927 -0.1237  0.0969
27421W        W40835  13.751   5.099   0.847  0.1526  0.0717 -0.0743
27422W        W40836  16.330  17.278  15.795 -0.2589 -0.1429  0.0348
27423W        W40837   3.363  16.707  12.495 -0.0176  0.1361  0.0551
27424W        W40838   8.455   2.210  14.011  0.2605 -0.0847  0.0766
27425W        W40839  13.054  10.948  16.012 -0.1125 -0.1467 -0.1181
27426W        W40840  11.727  10.185   1.087  0.1840 -0.2614  0.3449
27427W        W40841  10.240   0.895   6.106 -0.1032 -0.1074  0.1307
27428W        W40842   8.145   6.012   3.287  0.0296 -0.0250  0.1116
27429W        W40843  15.517   2.431   3.991  0.1378 -0.1776 -0.0218
27430W        W40844   2.899   9.176  15.607 -0.0519 -0.1236  0.1256
27431W        W40845  13.246  10.811  10.888 -0.2728 -0.0461  0.0420
27432W        W40846   4.339  11.732  11.328  0.0852  0.0683 -0.4004
27433W        W40847   9.358  12.576   0.579  0.3187 -0.1151  0.0718
27434W        W40848   5.817   0.040   3.484  0.1612  0.3519  0.1154
27435W        W40849  14.126   4.176   3.123 -0.1588  0.4611  0.0736
27436W        W40850   3.814   5.181   0.433 -0.2490 -0.0854 -0.0545
27437W        W40851   0.116  10.068   5.214 -0.1463  0.1508  0.2687
27438W        W40852   7.162   1.076   0.588  0.0139 -0.4040  0.3568
27439W        W40853  17.619   8.641  10.895 -0.0920  0.1969 -0.0650
27440W        W40854   9.858  13.384  13.898  0.3011  0.1316 -0.2288
27441W        W40855  17.915   1.220   1.846 -0.1117 -0.1636  0.2116
27442W        W40856  12.647  11.707   1.214 -0.1007 -0.2842 -0.0626
27443W        W40857  12.502  10.864   2.601 -0.2331  0.1397 -0.0633
27444W        W40858  14.804   9.672   0.302  0.0417 -0.1423 -0.1661
27445W        W40859  17.614   3.456  16.363  0.3385 -0.0595  0.2963
27446W        W40860   9.003  10.584   5.893  0.0491 -0.2184  0.0615
27447W        W40861  16.956  14.094   4.183  0.0367 -0.0946  0.1079
27448W        W40862  14.460  16.471  14.855 -0.0106  0.1182 -0.2054
27449W        W40863  15.230  17.766   0.067  0.1678 -0.1884  0.1003
27450W        W40864  10.562   6.236   6.535  0.2345 -0.1368 -0.2340
27451W        W40865   4.036   6.905   2.979  0.0521 -0.2923 -0.3449
27452W        W40866   9.736  12.419   2.483  0.1252  0.0684  0.1641
27453W        W40867  13.448   1.255  13.684  0.0410 -0.1160 -0.3784
27454W        W40868   4.117  13.562   2.518  0.1195 -0.1102 -0.1099
27455W        W40869   6.224  15.229   3.366 -0.1457  0.1305 -0.0814
27456W        W40870   7.214   6.457   1.464 -0.0280 -0.1082 -0.1901
27457W        W40871  16.743  11.353   0.094 -0.0453  0.0477  0.5919
27458W        W40872  17.802   8.401  14.915  0.3322  0.2167  0.1388
27459W        W40873   3.472   4.730  13.708 -0.0329  0.0472  0.4004
27460W        W40874   8.867  11.117  13.111  0.2257  0.1268 -0.2668
27461W        W40875   2.963  17.082   5.140 -0.2135 -0.2860  0.1354
27462W        W40876   7.903  11.778   2.762 -0.1245 -0.0975  0.3779
27463W        W40877  13.302  16.128   0.600  0.2849  0.0509 -0.0932
27464W        W40878   2.253  11.428   3.762 -0.1772 -0.0190  0.1654
27465W        W40879   3.231  16.298   2.258 -0.1085  0.2036  0.0474
27466W        W40880  13.866   4.549  12.105  0.1930 -0.3669  0.1318
27467W        W40881  14.175  11.894  16.322  0.0725  0.1004 -0.1461
27468W        W40882   3.803   6.723   0.876 -0.1798  0.3314  0.1897
27469W        W40883  13.234  16.744   5.940 -0.1422  0.0268  0.1111
27470W        W40884   5.833  11.055   4.024  0.0608  0.1587  0.3541
27471W        W40885   1.111   9.588  13.556  0.0659  0.1747 -0.0336
27472W        W40886   3.086   9.061  12.385 -0.0909 -0.0380  0.1403
27473W        W40887   8.388  10.001  13.615  0.2041  0.1570  0.1469
27474W        W40888  15.683  12.651   4.026 -0.0165 -0.0338 -0.0952
27475W        W40889  15.369  13.083   3.751  0.0783 -0.1802 -0.2318
27476W        W40890   9.021   6.261  11.910 -0.6343  0.2151  0.4280
27477W        W40891  10.847  14.348   0.304  0.1483 -0.1919 -0.1841
27478W        W40892   2.830   6.159  11.261  0.0544  0.2378 -0.0110
27479W        W40893  14.706  13.691  14.452  0.2053  0.1365  0.0581
27480W        W40894   9.621  14.705  13.574 -0.0843  0.0152  0.1595
27481W        W40895   8.049   3.751   2.135 -0.0614  0.0871  0.1707
27482W        W40896   4.180   3.758   1.517  0.0113  0.1127 -0.1424
27483W        W40897  13.900  16.107   3.720  0.2374 -0.0167 -0.0610
27484W        W40898  12.996  13.197   3.194  0.0096 -0.1538 -0.2925
27485W        W40899  15.748   6.342  15.818  0.0016 -0.0437 -0.1054
27486W        W40900   6.732   2.524   2.763 -0.1901 -0.0767 -0.0997
27487W        W40901  11.821  10.800  12.476  0.3427 -0.3194 -0.1128
27488W        W40902   2.598   9.861   3.613 -0.1295 -0.1228  0.1577
27489W        W40903   9.419   2.161   3.535  0.3211  0.1851 -0.1009
27490W        W40904  13.596   3.826   1.971 -0.0742 -0.2398  0.2940
27491W        W40905  13.551  17.120   0.501 -0.2819  0.1665  0.0134
27492W        W40906  15.234  12.383  14.740  0.0280 -0.0713  0.0819
27493W        W40907   0.728   2.483   4.381 -0.1718  0.0717  0.0592
27494W        W40908  12.689  11.643   0.622  0.0129  0.1090  0.2027
27495W        W40909   0.291   5.543  14.464 -0.0536 -0.1454  0.1730
27496W        W40910  17.413  11.514  13.213  0.2768  0.1268  0.1091
27497W        W40911   9.766  15.989   0.929 -0.4013  0.2983 -0.1166
27498W        W40912  17.643   8.400  12.426 -0.4182  0.1829 -0.0647
27499W        W40913  12.370   0.556  15.694  0.1480 -0.0307  0.4369
27500W        W40914   5.787  13.270   0.412  0.0861  0.1302 -0.1161
27501W        W40915   9.102  16.827  11.373  0.0541  0.1422 -0.1596
27502W        W40916  11.193  11.002  15.854 -0.2666 -0.2107  0.1032
27503W        W40917   9.717   0.143   4.310  0.2482  0.0312 -0.0509
27504W        W40918  12.973   2.685  14.488  0.0384 -0.3258  0.1375
27505W        W40919   4.657  14.033  16.195 -0.1173  0.0708 -0.1994
27506W        W40920   9.005  12.077  10.369  0.0924 -0.1335  0.0501
27507W        W40921  18.206   0.377  14.932 -0.1078 -0.0906  0.3341
27508W        W40922   7.438   4.719   4.501 -0.0678 -0.0163  0.0843
27509W        W40923   3.736   0.979  12.634 -0.0456 -0.0454 -0.1643
27510W        W40924   0.132  14.582  15.689 -0.0005  0.0055  0.1204
27511W        W40925   9.244   2.195  15.211 -0.4061  0.4034 -0.1450
27512W        W40926  12.773  13.071  14.462  0.1613  0.1399 -0.2278
27513W        W40927  17.622   8.614  11.588  0.0027  0.0744  0.4481
27514W        W40928  11.424   4.370   2.375 -0.1050  0.2546 -0.1312
27515W        W40929  12.632  10.506   4.405 -0.2649  0.1967 -0.0140
27516W        W40930   5.410  14.504  15.710 -0.0809  0.1372 -0.1574
27517W        W40931  14.201  11.316   5.263 -0.1346 -0.1670 -0.1860
27518W        W40932   8.647   8.096   5.431 -0.4858 -0.1444  0.0318
27519W        W40933  15.214  17.906   1.823 -0.1008  0.3675 -0.0434
27520W        W40934  16.370  16.092  13.776 -0.1608  0.2637  0.1537
27521W        W40935  17.960  10.896  16.444 -0.0485 -0.2169 -0.0393
27522W        W40936  12.587   1.230   2.943 -0.3853  0.1381 -0.1054
27523W        W40937   5.627   1.281  10.893 -0.4807 -0.3777 -0.3548
27524W        W40938  10.495  18.152   1.295  0.1503  0.0446  0.0080
27525W        W40939   6.719  17.587   3.653  0.0979 -0.0486 -0.2366
27526W        W40940  16.333   0.323   1.218  0.2577 -0.0908  0.2239
27527W        W40941   5.682   1.598  13.950 -0.3795 -0.2003  0.2238
27528W        W40942   2.586   1.556  13.743 -0.1769 -0.0372  0.0994
27529W        W40943   9.197  14.723   0.168  0.1326 -0.1702  0.0574
27530W        W40944  17.166  14.674  15.003  0.0512 -0.0144  0.0575
27531W        W40945   8.821   7.215   1.444  0.0281  0.2732  0.1589
27532W        W40946  12.154   5.846  16.388  0.0569  0.0462 -0.0254
27533W        W40947  12.799   7.149   1.935 -0.3139 -0.0556 -0.0207
27534W        W40948  10.547   7.976   3.815 -0.0930 -0.2277  0.1260
27535W        W40949  10.749   4.265  10.650  0.0412 -0.1264 -0.0442
27536W        W40950   9.939   7.498  12.740 -0.1409  0.0686  0.2907
27537W        W40951   4.192   6.954   5.000 -0.0729 -0.1313  0.2014
27538W        W40952   7.882  17.305   2.622  0.0798 -0.0971  0.2359
27539W        W40953  11.085   7.730  12.453  0.1422 -0.1444  0.0601
27540W        W40954   1.539   9.944  10.233 -0.0905 -0.0357  0.5977
27541W        W40955   5.318   1.027   4.829 -0.0248  0.2403  0.0121
27542W        W40956   3.324  13.871   4.243 -0.2460  0.0277  0.0873
27543W        W40957  17.477  15.328  16.160 -0.1520 -0.0225 -0.1921
27544W        W40958   6.835  15.604   4.486 -0.2146 -0.0462  0.0307
27545W        W40959  17.931  14.248   4.773 -0.0691  0.1938 -0.1205
27546W        W40960  12.063  13.834   2.860 -0.0572 -0.0458  0.0559
27547W        W40961   8.133   1.232  11.327  0.4968  0.0149 -0.4411
27548W        W40962   8.162   1.879  12.325 -0.1016 -0.0012 -0.3527
27549W        W40963  16.993  12.947  10.325  0.1341 -0.1595 -0.2044
27550W        W40964   8.533  13.952   3.031 -0.2965  0.3503 -0.0029
27551W        W40965  15.404  17.496  13.395  0.1512  0.1904 -0.0480
27552W        W40966   2.229   0.942   6.037  0.0165  0.5340  0.1346
27553W        W40967   8.420   0.523   3.992  0.1412 -0.0429 -0.1161
27554W        W40968   9.410   1.718   2.337 -0.0866 -0.1903  0.1038
27555W        W40969   8.080  13.109   4.843  0.0994  0.1555  0.1334
27556W        W40970   2.732  13.125  15.483  0.0602  0.0645 -0.0207
27557W        W40971   5.464   0.604  12.620 -0.1781 -0.2004  0.2422
27558W        W40972  15.936  14.131   3.583 -0.0803  0.1492  0.0533
27559W        W40973   0.405  16.728  15.787  0.1733 -0.0253 -0.0431
27560W        W40974   7.831   6.308  13.707  0.2576 -0.1168  0.0744
27561W        W40975   2.334   1.593   5.278  0.1566 -0.2175  0.0950
27562W        W40976  15.638   3.933  13.057 -0.1217 -0.0787 -0.1672
27563W        W40977  17.301   6.055   4.488 -0.1362  0.3274 -0.2142
27564W        W40978   7.632   1.909  12.171 -0.0858 -0.1074  0.6179
27565W        W40979   1.235  10.775   4.823  0.2087  0.3737 -0.1944
27566W        W40980   3.715  11.884  14.001 -0.3072 -0.1350  0.1321
27567W        W40981  12.829   5.258   1.088  0.1524  0.1762 -0.3545
27568W        W40982   8.790  17.947   3.978 -0.0520  0.0431  0.0261
27569W        W40983   0.232  13.817   3.197 -0.1764  0.1329  0.2502
27570W        W40984  12.069   9.877   3.677  0.2079  0.4601  0.0360
27571W        W40985  11.763   3.842   1.244  0.0630 -0.3924 -0.2331
27572W        W40986  11.769   5.511  13.346 -0.0640  0.0367  0.0371
27573W        W40987  15.820   4.998   3.392 -0.0023  0.2455  0.1620
27574W        W40988   1.972  16.584   4.835  0.0743  0.0640 -0.0015
27575W        W40989   6.627   7.831  13.127  0.0881  0.1214  0.0030
27576W        W40990   7.590  10.189  13.182 -0.0216 -0.2223  0.3229
27577W        W40991   5.804  13.074   3.406 -0.0605 -0.1096  0.0404
27578W        W40992   2.668   2.331  11.138  0.2205  0.0230  0.1242
27579W        W40993   7.109   0.596   1.564 -0.1877 -0.2490 -0.0806
27580W        W40994  17.410   6.305  16.269 -0.0419 -0.1514 -0.0350
27581W        W40995   1.204   5.552  14.522  0.0631 -0.2105 -0.4137
27582W        W40996   3.819   4.976   3.316  0.1010  0.0231 -0.0376
27583W        W40997  13.212   3.294   5.374  0.1063 -0.0711  0.1379
27584W        W40998  14.757   2.826  12.809  0.0988 -0.2328  0.0612
27585W        W40999  17.092   8.757  12.363 -0.1230 -0.1650  0.0471
27586W        W41000   4.999  11.067  16.053 -0.0988  0.0163  0.2935
27587W        W41001   8.963  10.463   3.911 -0.2573 -0.1689 -0.0373
27588W        W41002  18.066   3.243  16.456  0.3239  0.0691  0.0280
27589W        W41003  17.399  13.949   0.826 -0.0248  0.0880 -0.2249
27590W        W41004  11.220  10.696   4.552 -0.2382  0.2307  0.0146
27591W        W41005  12.459   3.489  14.956  0.0529  0.0390 -0.1669
27592W        W41006  14.889   8.704  11.386 -0.3546 -0.1811 -0.1366
27593W        W41007   9.251   0.716   5.433  0.0323 -0.0438  0.0366
27594W        W41008   2.703  16.340   7.232 -0.3085  0.0864 -0.1545
27595W        W41009  13.147  16.880   1.795 -0.1522 -0.0250 -0.1589
27596W        W41010   2.149   3.098   3.579 -0.2278  0.0775  0.0595
27597W        W41011   0.826  14.309  16.102 -0.2023 -0.1931  0.1874
27598W        W41012  11.706  14.190   5.674 -0.1857 -0.1005  0.0378
27599W        W41013  16.690   8.639   4.797 -0.4526  0.2295  0.1618
27600W        W41014   5.969   0.072  12.945  0.4792 -0.0990  0.1137
27601W        W41015   5.236   4.199   1.551  0.1216 -0.2863 -0.1110
27602W        W41016   5.894  11.797  14.386 -0.4532 -0.1007 -0.0868
27603W        W41017   5.842   8.885   3.484 -0.1049 -0.2557 -0.2942
27604W        W41018   7.476   4.614   0.936 -0.0747 -0.1451  0.0458
27605W        W41019  16.323  16.020  13.162 -0.0959  0.2198  0.2463
27606W        W41020   4.312   7.395  12.441  0.2092 -0.0886  0.2240
27607W        W41021  14.996   2.533  11.175 -0.1115  0.1783 -0.0970
27608W        W41022  10.926   0.133   1.312 -0.1709  0.0075  0.1344
27609W        W41023   2.576   6.245   2.544 -0.1508  0.0689  0.0056
27610W        W41024   7.692   0.390   0.689  0.1791 -0.0563 -0.4702
27611W        W41025   4.207   6.346   1.652  0.3533 -0.0063 -0.2206
27612W        W41026  10.280  13.585  14.157 -0.2213 -0.0363 -0.2425
27613W        W41027  14.034   1.405  10.897 -0.0540  0.0195 -0.0028
27614W        W41028   4.281  11.760  15.739 -0.2295 -0.0660  0.2312
27615W        W41029  15.411  15.422  11.708  0.2197 -0.0348  0.1182
27616W        W41030   5.136   2.014  14.616  0.2338 -0.1516 -0.1018
27617W        W41031  16.306   1.048   1.933  0.0690 -0.0746 -0.2630
27618W        W41032  13.625   1.107  14.374  0.1958 -0.1260  0.0688
27619W        W41033   3.039   5.374   3.209 -0.2278  0.0393  0.2052
27620W        W41034  11.776   4.959  12.406 -0.4695 -0.4078 -0.1568
27621W        W41035  12.488   5.723  12.883  0.3180  0.0593  0.1227
27622W        W41036   3.958   4.369   3.875 -0.2378  0.0307 -0.1935
27623W        W41037   5.175   5.796  15.477 -0.1292  0.1034 -0.3305
27624W        W41038   6.893  12.761   4.885  0.0553 -0.3838  0.1053
27625W        W41039  11.672   0.261  15.397 -0.1127  0.0637  0.2623
27626W        W41040  17.218   2.863   4.274 -0.3493  0.1521  0.0094
27627W        W41041  10.984  17.372   2.705 -0.1220  0.1725 -0.0288
27628W        W41042   6.004   7.269   3.954 -0.4546 -0.0199 -0.1082
27629W        W41043  11.287  12.759  12.699 -0.2482  0.1834 -0.4980
27630W        W41044   0.264   0.262  13.672  0.0658 -0.0448  0.3183
27631W        W41045  16.274   2.975   2.546  0.2992  0.2781 -0.0464
27632W        W41046   9.353   9.869   1.447 -0.1376  0.1818 -0.0723
27633W        W41047  11.925  18.009   1.748  0.0956  0.0385 -0.3299
27634W        W41048  17.147  11.019   1.063 -0.0673  0.2025 -0.2001
27635W        W41049  11.594  14.770  15.052 -0.0610 -0.0361 -0.0173
27636W        W41050   6.543   0.628  10.337  0.1843 -0.0751 -0.0328
27637W        W41051  12.511   8.889   1.196  0.0950  0.0258 -0.0729
27638W        W41052   7.945  16.640   2.685 -0.0092  0.2670  0.1100
27639W        W41053   7.626  12.926  10.212  0.0628  0.0801 -0.2448
27640W        W41054   7.305  11.912   4.691 -0.0189  0.0367  0.4747
27641W        W41055   1.066   0.998   4.090 -0.2168  0.0832  0.0041
27642W        W41056   4.675  15.871  10.066 -0.0314 -0.3411  0.0651
27643W        W41057  11.712   2.772  14.167 -0.0587  0.0044 -0.0545
27644W        W41058   3.440  10.933   5.406  0.1969  0.1736 -0.0883
27645W        W41059   8.950  12.256   0.512 -0.1391  0.2719  0.2008
27646W        W41060   8.801   9.936  14.461 -0.2243 -0.4986  0.2263
27647W        W41061   4.956   8.422  13.928  0.2718 -0.0788 -0.0806
27648W        W41062   8.265  15.627   3.839  0.2635  0.0225  0.1356
27649W        W41063   8.952   6.035   1.619  0.0814  0.2052  0.0013
27650W        W41064  15.649  15.643   4.274 -0.2128  0.1709  0.1780
27651W        W41065  13.162   6.036   0.026  0.1290 -0.0193 -0.2432
27652W        W41066  18.225  13.750   3.940 -0.1231  0.0013  0.0495
27653W        W41067   4.540  11.021  15.832 -0.0671 -0.0982  0.3079
27654W        W41068   3.214   0.175  15.744 -0.1472 -0.0765  0.1591
27655W        W41069  11.525   1.258   0.181 -0.0938  0.0623  0.0157
27656W        W41070   8.474  13.696  16.132 -0.0706 -0.0736 -0.2229
27657W        W41071  13.126   2.304  13.929  0.1505  0.0651  0.0160
27658W        W41072  11.313   8.191  15.967 -0.2402  0.0105  0.0696
27659W        W41073   8.440   0.823   5.872  0.3093  0.1440 -0.1884
27660W        W41074  12.297   9.852   5.563 -0.2181 -0.0911 -0.1558
27661W        W41075   7.650  14.428  14.396  0.0718 -0.2956  0.3195
27662W        W41076   3.397  14.975  15.548 -0.0682  0.0770  0.0586
27663W        W41077   7.496   9.062   5.372 -0.0746 -0.1606  0.2258
27664W        W41078   6.463   8.596   2.051 -0.0719 -0.0532  0.0328
27665W        W41079  16.662   7.922   3.080 -0.0056  0.2538 -0.4856
27666W        W41080   5.109  16.916   0.601  0.0194  0.0835  0.2108
27667W        W41081  16.335  13.543   4.839 -0.0153  0.1048 -0.1970
27668W        W41082   7.044   8.305   5.017 -0.2879  0.0320 -0.0011
27669W        W41083   2.436   3.611   0.937 -0.2549  0.0353 -0.0820
27670W        W41084   0.594  12.145   5.201 -0.2709  0.3065  0.0185
27671W        W41085   9.891   8.453   2.917 -0.0998  0.0258 -0.0825
27672W        W41086  12.888   6.016   2.230  0.1582  0.2141  0.3324
27673W        W41087  16.780  11.822   1.381 -0.2984  0.0782  0.2999
27674W        W41088   0.008  13.949  16.181  0.0199  0.0964 -0.0007
27675W        W41089  13.928   5.433  13.797  0.3027 -0.0782  0.0200
27676W        W41090   1.846   2.468   0.537  0.1860 -0.2700 -0.1063
27677W        W41091   1.976  11.015   1.011  0.1508 -0.1023  0.1175
27678W        W41092   0.481  15.331  13.350 -0.0462  0.0580 -0.1417
27679W        W41093   8.749  12.203   2.556  0.0721  0.1959 -0.0775
27680W        W41094  13.203   4.506   1.513 -0.2494 -0.0585  0.3817
27681W        W41095   9.114   7.916  15.127  0.1109  0.4664 -0.1713
27682W        W41096  15.774  16.333   5.684  0.2089 -0.2241 -0.0053
27683W        W41097  17.755   6.838  12.829  0.1324  0.4250  0.1217
27684W        W41098   0.259   1.818  12.901  0.0865  0.0746  0.0079
27685W        W41099  17.470  12.209   1.848 -0.0993  0.3566 -0.1515
27686W        W41100   2.827  14.865  15.195  0.1035  0.0592  0.1890
27687W        W41101  17.332  11.698  15.802 -0.1353 -0.3083 -0.0395
27688W        W41102   7.249  16.689   5.352  0.0681  0.0723 -0.0616
27689W        W41103  12.511  15.404  16.006  0.0456  0.1812 -0.1618
27690W        W41104   8.174  11.748  11.645 -0.0028 -0.2876  0.0055
27691W        W41105   9.914   7.258   5.349 -0.0738 -0.2674 -0.2140
27692W        W41106   8.194   6.407   1.255 -0.0234  0.0096  0.0205
27693W        W41107   2.147   2.559  16.118  0.4102 -0.1519  0.1837
27694W        W41108  17.887  10.156   5.873 -0.1006 -0.1224 -0.0617
27695W        W41109   1.817  16.248   6.552  0.2204 -0.1849 -0.4412
27696W        W41110  12.287  14.557  12.796  0.0077  0.0695  0.0277
27697W        W41111   5.671   4.955   1.078 -0.0616 -0.1537 -0.2280
27698W        W41112   1.273   8.515  12.062 -0.1284  0.0553 -0.1630
27699W        W41113  14.729   5.502   4.250 -0.0129 -0.0186  0.1151
27700W        W41114  16.557  10.621  14.965  0.0829 -0.1691  0.2546
27701W        W41115   2.227  10.690  15.056 -0.2701  0.2118 -0.1450
27702W        W41116   5.116   6.802  13.736 -0.0690 -0.0132  0.0611
27703W        W41117   2.230  11.044  12.601  0.2043  0.0221 -0.0382
27704W        W41118   5.699  12.871   2.381 -0.0653  0.2687  0.1252
27705W        W41119  12.769   4.667  12.815 -0.0206 -0.5069 -0.2872
27706W        W41120  16.112   7.844   4.745 -0.1152 -0.0049  0.0302
27707W        W41121  11.324  17.359  13.856  0.2156  0.2857  0.0847
27708W        W41122  14.011   4.027   1.719 -0.1640 -0.4802  0.1017
27709W        W41123   7.152   1.198  14.078  0.1671 -0.1816  0.1806
27710W        W41124   4.701  12.051  12.690  0.2641 -0.1660 -0.2141
27711W        W41125   3.239   3.077  15.779  0.0225  0.0942 -0.2590
27712W        W41126   6.162  17.293  12.014  0.1324 -0.0544 -0.3896
27713W        W41127   9.822  14.943  11.146  0.0198  0.0530 -0.3154
27714W        W41128  10.942   0.522  13.099  0.0785 -0.1347 -0.1475
27715W        W41129   0.407  13.690   3.666 -0.0183 -0.0358  0.1377
27716W        W41130   5.347   0.375   0.567 -0.0061 -0.1752 -0.1027
27717W        W41131   7.265  14.447  15.406 -0.2958 -0.1274 -0.2635
27718W        W41132  12.418   0.014  15.790 -0.0119 -0.2695  0.1162
27719W        W41133   8.771   2.142  14.960 -0.1634  0.0004 -0.2008
27720W        W41134   9.179   8.357   1.680 -0.2098 -0.3312 -0.1379
27721W        W41135  16.969   5.972   4.116  0.1300  0.1115 -0.2521
27722W        W41136   4.431  16.907   2.172  0.1796  0.0101  0.1628
27723W        W41137  13.546   3.934  14.246  0.2215 -0.0796 -0.3939
27724W        W41138  14.329   7.527  11.535 -0.0979  0.0785  0.1540
27725W        W41139  11.923   6.729   3.183  0.0090  0.0722  0.4274
27726W        W41140  14.965   5.457   0.701 -0.2321 -0.0626 -0.3580
27727W        W41141  16.514   2.337  14.270 -0.1876 -0.1157  0.1620
27728W        W41142  16.948  18.123  13.073  0.1381  0.0198 -0.1929
27729W        W41143  15.654  14.174   4.657  0.0706 -0.1407 -0.0495
27730W        W41144  16.427   4.518   2.203 -0.0149 -0.1675  0.1376
27731W        W41145  13.684   6.743   3.064 -0.2105 -0.0835 -0.1151
27732W        W41146   3.697   1.081   1.329  0.2467 -0.1233  0.0475
27733W        W41147  13.000  11.438   3.607 -0.1540 -0.1709  0.2400
27734W        W41148   1.888  16.187  10.278 -0.2057 -0.2227 -0.1895
27735W        W41149  13.663  12.047  12.834  0.3328 -0.1091 -0.1706
27736W        W41150   0.580  12.570   6.709 -0.2932  0.0224  0.0057
27737W        W41151   3.559   7.770   2.545 -0.1944 -0.0527 -0.0289
27738W        W41152   8.477  15.894   2.112  0.1140  0.0895  0.0512
27739W        W41153  11.667   3.246  12.758  0.0494 -0.1539  0.4490
27740W        W41154  17.529   1.094  12.470  0.0237  0.3681 -0.2175
27741W        W41155   0.770   5.882  16.184  0.0413  0.1902 -0.1080
27742W        W41156  15.122  10.572   3.915 -0.0680  0.0436  0.3215
27743W        W41157   8.284   2.465   4.250  0.4798  0.1461 -0.3280
27744W        W41158   6.232  16.202  12.336 -0.2262 -0.1276  0.0016
27745W        W41159   9.303   2.619  14.200  0.1327  0.0908 -0.1234
27746W        W41160  12.482   9.741   0.754  0.1084 -0.0795  0.0839
27747W        W41161  16.815   4.521  15.889 -0.0649  0.2757  0.3516
27748W        W41162  16.857   3.619  16.428  0.2008  0.4849 -0.1282
27749W        W41163   6.879  16.463   2.742  0.1112  0.2107 -0.0693
27750W        W41164   4.769  10.889   1.377 -0.1211  0.0966 -0.0169
27751W        W41165   0.647   7.985  12.462 -0.1283 -0.3781 -0.1101
27752W        W41166  14.723   3.094   1.066 -0.4821  0.0509  0.0037
27753W        W41167  10.810   3.064  14.256 -0.4151  0.1441 -0.3038
27754W        W41168   1.396   6.234  12.411 -0.1872 -0.0727 -0.0340
27755W        W41169  14.017   6.276  15.410 -0.0145 -0.0605 -0.1132
27756W        W41170   8.385  14.247  11.286 -0.4016  0.0140  0.0956
27757W        W41171  16.124   6.480  13.892  0.2213  0.1659  0.4400
27758W        W41172   7.159  14.852   3.502 -0.3011  0.1724  0.0909
27759W        W41173   9.404  10.344  15.920 -0.3165  0.0016  0.1065
27760W        W41174  15.573   3.864   2.842  0.1828 -0.1084  0.1576
27761W        W41175  12.022  16.769   2.177  0.0152 -0.0809  0.0991
27762W        W41176   9.556   1.509  15.140 -0.1185  0.1277 -0.0505
27763W        W41177   5.743  14.519  16.200 -0.1189 -0.0706  0.1209
27764W        W41178  11.752   5.850   1.449 -0.1375  0.0323 -0.1535
27765W        W41179  14.273   8.291   0.601 -0.1223  0.4625 -0.2593
27766W        W41180  13.904  15.765  12.172 -0.1355 -0.0615  0.1606
27767W        W41181  10.619  18.107   3.856  0.2380  0.0239 -0.1549
27768W        W41182   9.359   4.793   3.300  0.0018 -0.0364  0.0315
27769W        W41183  11.653   9.902  11.413 -0.0467 -0.0733  0.2483
27770W        W41184  10.102  16.971  10.320  0.0130  0.0202  0.2027
27771W        W41185  14.444  16.124   5.511  0.1189  0.1291  0.1802
27772W        W41186   2.074  13.054   3.807  0.1043  0.0306  0.0779
27773W        W41187  14.801  11.938  14.639  0.0303 -0.3548  0.1229
27774W        W41188  12.567   3.555  12.330  0.0344  0.0737  0.4450
27775W        W41189   4.583   8.319   0.031  0.2521  0.3469 -0.2724
27776W        W41190   1.702   5.241   2.301 -0.2164  0.0585 -0.2973
27777W        W41191   0.356  16.742   4.048  0.1345 -0.0138 -0.0825
27778W        W41192   8.383  17.518  13.909 -0.1728 -0.0679  0.0595
27779W        W41193   9.355   4.853  12.019 -0.1371  0.1501  0.1089
27780W        W41194   6.638   9.438   0.541 -0.0436  0.0268 -0.3478
27781W        W41195  13.020   7.874   9.495 -0.1235  0.1925 -0.0944
27782W        W41196  11.034   7.308   2.676  0.4577 -0.0776 -0.0079
27783W        W41197   9.268   1.905  16.297  0.0225 -0.2639 -0.0467
27784W        W41198  11.568   6.342  11.223 -0.0724  0.2593  0.1272
27785W        W41199   2.983   8.327   5.137  0.0605  0.2903  0.1910
27786W        W41200   4.535   0.429   1.078  0.0891 -0.1899  0.0092
27787W        W41201  16.866   8.204   4.501 -0.1461 -0.1595 -0.1220
27788W        W41202   2.258  10.089   2.616 -0.1531 -0.2300  0.0480
27789W        W41203  16.852  15.249   5.675  0.1889 -0.2087  0.0491
27790W        W41204   6.557  17.548  10.591  0.0401  0.1514 -0.0378
27791W        W41205   6.414  11.366  11.714 -0.1658 -0.0691  0.0999
27792W        W41206   7.979   4.279  16.330 -0.0018 -0.0523 -0.0830
27793W        W41207   3.389  13.090  16.197 -0.1344  0.0391 -0.0048
27794W        W41208  18.009   2.191  16.407  0.0540 -0.1383 -0.0069
27795W        W41209  17.541  14.054   5.114 -0.2157  0.2704  0.3809
27796W        W41210   5.191  12.956  10.158 -0.1095 -0.3827 -0.0129
27797W        W41211  12.688   0.962  11.199 -0.1265  0.2179  0.1417
27798W        W41212   7.489  14.327   6.242 -0.1475  0.0770  0.3471
27799W        W41213   4.041   7.918   4.437  0.0553 -0.0969  0.0221
27800W        W41214   6.459  11.898   2.455  0.0079 -0.0304  0.1215
27801W        W41215  10.761  11.528   3.000 -0.3842 -0.0998 -0.1434
27802W        W41216   5.698   8.073  14.910 -0.0189  0.3167  0.0283
27803W        W41217   7.119  16.200   1.009  0.0054 -0.2376 -0.0405
27804W        W41218   8.125   8.179   5.610 -0.1554 -0.1484  0.1657
27805W        W41219  13.682  10.725   5.782  0.2707 -0.1253  0.1462
27806W        W41220   8.426  11.367   3.956  0.0159  0.0583  0.2115
27807W        W41221   1.808  18.144   0.322 -0.3164 -0.1795  0.0213
27808W        W41222  16.337   0.325  14.537 -0.0743 -0.2655 -0.1473
27809W        W41223   4.521  14.924  13.964  0.0540 -0.1010  0.0078
27810W        W41224  15.781  10.795  10.807  0.0681  0.0910 -0.0952
27811W        W41225  13.945  16.508  11.878  0.2182 -0.1600  0.1153
27812W        W41226   1.229  17.878   1.692 -0.1494 -0.3721 -0.3486
27813W        W41227   9.841  12.513  14.267 -0.1007  0.1517  0.2031
27814W        W41228  15.919   6.785  15.592 -0.0148  0.0610  0.1366
27815W        W41229  18.234   7.733  13.217  0.0155 -0.0590  0.2571
27816W        W41230  11.709  11.634  11.028  0.0962 -0.1140  0.0689
27817W        W41231   0.591  14.220   6.390 -0.1842  0.0092  0.0192
27818W        W41232  11.042  12.773  13.437 -0.2805 -0.1847  0.0068
27819W        W41233  11.465  15.932   4.065  0.0013  0.0395 -0.1085
27820W        W41234   4.414   8.590  12.599 -0.0833  0.2896  0.0146
27821W        W41235  12.666   8.631   2.218 -0.0055 -0.1663 -0.1128
27822W        W41236   4.920  11.995  14.330 -0.0232  0.2131  0.1020
27823W        W41237  13.377   4.309  16.136 -0.0127  0.0048  0.0118
27824W        W41238   7.725   4.559   4.139  0.1234 -0.4416  0.1783
27825W        W41239   1.329   0.092  11.817  0.2628 -0.2099 -0.1959
27826W        W41240  14.242  14.866  15.532  0.2464  0.1003  0.0549
27827W        W41241  12.625   1.496   1.657 -0.0403 -0.0506  0.4623
27828W        W41242  14.914  14.078   4.031 -0.2457 -0.1351 -0.2645
27829W        W41243  16.493  14.711   2.985  0.3309  0.0888 -0.3027
27830W        W41244  15.648   2.972   0.873 -0.0669 -0.2147  0.1606
27831W        W41245   5.330   4.408  14.291 -0.0272  0.2019  0.0576
27832W        W41246   0.787  14.903   4.958  0.1194 -0.0174 -0.1497
27833W        W41247  10.979   8.378  12.167 -0.0098 -0.0764  0.1462
27834W        W41248   6.478  16.164   5.163 -0.2067 -0.3206 -0.1323
27835W        W41249   0.216   1.758   5.613 -0.1881  0.2817 -0.1141
27836W        W41250  15.186  14.428   5.388 -0.2561  0.0084  0.2191
27837W        W41251   7.406   8.054  11.861  0.2422 -0.0626  0.0604
27838W        W41252  11.177   0.600  14.882 -0.1610  0.0325  0.2769
27839W        W41253  15.525   9.473  12.837 -0.1126  0.0360  0.1180
27840W        W41254   5.854   3.049  12.471 -0.0881 -0.1742  0.1167
27841W        W41255  11.441   1.608  11.876 -0.1774  0.1058  0.0895
27842W        W41256  10.883   9.208  14.525 -0.0006 -0.3470 -0.2342
27843W        W41257   4.974   3.771   0.681 -0.1218  0.0603 -0.0521
27844W        W41258   1.945   8.802   3.321 -0.1348 -0.1668  0.1699
27845W        W41259   4.975   0.039  14.763 -0.0964 -0.0636 -0.0121
27846W        W41260   8.795  10.852   3.058 -0.0334  0.3080 -0.0985
27847W        W41261   9.450   2.958   3.845 -0.1250  0.1495  0.0386
27848W        W41262  11.307   2.037   2.259  0.1397  0.0708  0.2095
27849W        W41263  11.611  13.582  11.981 -0.0803 -0.2896  0.4181
27850W        W41264  13.807  10.771  12.966 -0.1887  0.1765 -0.2031
27851W        W41265  11.321  12.678   4.135 -0.0690 -0.0010  0.2020
27852W        W41266  13.441   2.250  16.433 -0.1127 -0.3865 -0.1385
27853W        W41267   0.361   9.550   3.051  0.1513  0.1481 -0.3751
27854W        W41268  12.779  15.386   1.800  0.1355  0.1139  0.0245
27855W        W41269  13.080   4.450  13.105 -0.0361  0.1339 -0.2650
27856W        W41270  10.762  13.223  15.401  0.0661  0.2828 -0.2206
27857W        W41271   4.493  10.940   1.867  0.1449 -0.1288  0.1797
27858W        W41272   1.307   8.701   3.961  0.0370  0.0567  0.2936
27859W        W41273   7.392   5.998   4.505 -0.1380 -0.0233 -0.4283
27860W        W41274   7.443  12.632   4.254  0.0912  0.2011 -0.2884
27861W        W41275  15.014   4.224  10.397 -0.0619  0.1156 -0.0979
27862W        W41276   8.442   0.967  15.235  0.0063  0.3814  0.0167
27863W        W41277   1.642   0.369  10.328 -0.0886 -0.0326 -0.1857
27864W        W41278  16.216   1.724  15.318  0.0864 -0.2856  0.2378
27865W        W41279  14.843  15.682   0.104 -0.0898  0.1209 -0.4591
27866W        W41280   2.275   8.912  14.832 -0.0635 -0.1444 -0.3349
27867W        W41281   6.514   7.344  14.174  0.2318 -0.0924  0.1855
27868W        W41282   2.525  10.469  15.515 -0.2277  0.1457  0.1977
27869W        W41283   2.940  10.689  10.761  0.0117  0.1267  0.0674
27870W        W41284   3.450   8.777   4.650 -0.1349 -0.0869 -0.0431
27871W        W41285   6.147  13.128   3.026 -0.2542 -0.1710  0.1629
27872W        W41286   0.139   8.379   2.407 -0.2622 -0.3039  0.2998
27873W        W41287  18.179  14.635   0.974  0.4118  0.0385  0.1591
27874W        W41288   5.984   6.480   5.187 -0.0624  0.0313 -0.1364
27875W        W41289   0.082   6.665   4.938  0.1522  0.1568  0.1482
27876W        W41290   6.095   4.702  12.227 -0.0122 -0.0262 -0.1965
27877W        W41291  14.875  13.415  15.564  0.0291 -0.3183 -0.1387
27878W        W41292   5.991  17.409   3.433 -0.3023 -0.2227 -0.0019
27879W        W41293  16.554   3.880   9.683  0.2251 -0.2639  0.1182
27880W        W41294  10.229   0.146  11.257  0.1437  0.4127  0.2563
27881W        W41295  11.211   6.279   2.822 -0.0432 -0.0416 -0.1348
27882W        W41296  11.877  13.643   1.631 -0.3871  0.3176 -0.1394
27883W        W41297   6.371  10.275  13.605  0.1260  0.0542 -0.0449
27884W        W41298  11.517   5.390  11.488 -0.0556 -0.1274 -0.0544
27885W        W41299   2.510  14.254   4.515 -0.0084  0.0026  0.3902
27886W        W41300  12.251   3.852  14.675 -0.0461  0.2870  0.3549
27887W        W41301  10.250   0.921   0.269 -0.0702 -0.1381  0.2315
27888W        W41302   8.246  14.977  12.629 -0.1549  0.1912 -0.0515
27889W        W41303  12.595  14.931  13.552  0.0271 -0.1160 -0.0508
27890W        W41304  12.729   7.261  14.195 -0.1839 -0.1458  0.2102
27891W        W41305  12.625  15.179  12.131 -0.1299 -0.0157 -0.2195
27892W        W41306  18.066   9.701  12.646 -0.0492 -0.1306  0.2391
27893W        W41307  11.635  12.026   2.516  0.1559 -0.0317  0.0811
27894W        W41308   1.188  13.677   0.107 -0.3728 -0.1155  0.1828
27895W        W41309   2.928   3.072  14.061 -0.0272 -0.2429 -0.0344
27896W        W41310   3.473   0.103   2.589 -0.0182 -0.0490  0.0687
27897W        W41311   1.299  12.273  11.905  0.0974  0.0243 -0.2854
27898W        W41312   0.829  15.964  15.726  0.1170  0.3260  0.2023
27899W        W41313  17.311   0.194  10.781  0.1603 -0.1194 -0.0793
27900W        W41314  11.512  18.012   3.472  0.3338 -0.0740 -0.3940
27901W        W41315   0.659   4.964  16.286  0.0172 -0.1598  0.0821
27902W        W41316  10.100  16.171  15.714  0.4096 -0.1675  0.0416
27903W        W41317  13.416  12.944   3.079  0.2338  0.0611 -0.2258
27904W        W41318  17.369  16.858  14.328  0.0880 -0.2474 -0.0435
27905W        W41319   0.695  16.317   0.536  0.0050 -0.0729 -0.0161
27906W        W41320  15.850   7.642   1.007  0.1434  0.2217 -0.2204
27907W        W41321   3.915  17.082   2.334  0.0885  0.0072  0.0656
27908W        W41322   0.186   3.524   1.748 -0.0143  0.0160  0.0289
27909W        W41323  14.102  15.636  14.653  0.0365  0.1025  0.1891
27910W        W41324   1.555   6.875  14.079  0.2569 -0.2178  0.0254
27911W        W41325  11.395  12.295  11.247 -0.1166 -0.2721  0.0889
27912W        W41326   3.784  15.355   1.934 -0.0963  0.1438 -0.0640
27913W        W41327   7.566   5.796  15.478 -0.3509  0.1406  0.1935
27914W        W41328   6.082  14.969  15.228 -0.0291 -0.1985 -0.0185
27915W        W41329  15.847   2.612   0.182  0.0315  0.0848  0.0526
27916W        W41330   6.281   2.203  14.377  0.0299 -0.0729 -0.0377
27917W        W41331  16.441  11.559  15.558  0.0894  0.2114  0.4326
27918W        W41332   3.438   6.268   2.333  0.0237 -0.1137  0.0406
27919W        W41333   7.658   4.363  12.333 -0.4695 -0.1629 -0.1815
27920W        W41334   1.607  17.956  15.165  0.0748 -0.0657  0.3625
27921W        W41335   2.444   0.974  12.083 -0.0922 -0.1484  0.2443
27922W        W41336  12.785   4.427  11.120  0.1415  0.0280  0.0229
27923W        W41337   3.706   0.325   5.988  0.1784 -0.0628  0.1538
27924W        W41338   0.830   2.951   2.102  0.1308  0.0506 -0.1326
27925W        W41339  16.446   9.866  14.230 -0.1636  0.1601  0.0947
27926W        W41340   7.373  13.678  14.229  0.1447  0.2106 -0.0502
27927W        W41341  17.630   0.629  11.048 -0.1585  0.1484 -0.2664
27928W        W41342   0.402  15.780  15.917 -0.3756 -0.0202 -0.2128
27929W        W41343   9.104  17.314  11.004  0.3616  0.1475  0.0770
27930W        W41344  13.268   7.387  11.430 -0.1537  0.3715  0.3138
27931W        W41345   0.732  12.587   4.319 -0.1072  0.1145 -0.0169
27932W        W41346  15.589   4.242   2.049 -0.0702  0.2604  0.0152
27933W        W41347   7.823   3.161  13.195  0.0263 -0.1533  0.3324
27934W        W41348   9.226   0.401   1.177  0.1801  0.1386  0.2390
27935W        W41349   6.808  14.954  15.960 -0.1927 -0.2067  0.4276
27936W        W41350   6.988  17.778  15.847 -0.0506 -0.0036  0.2806
27937W        W41351  17.515  14.114   6.471 -0.1006  0.0210 -0.1134
27938W        W41352   1.849  13.118   3.094  0.1736  0.1042  0.0671
27939W        W41353   2.466  13.188  15.897  0.0315 -0.0735 -0.0079
27940W        W41354   0.811  15.242  14.768 -0.0843 -0.0753  0.2060
27941W        W41355   3.193  12.621   2.581  0.0674  0.0507  0.0640
27942W        W41356  15.616   9.957  10.504 -0.1329  0.2148 -0.0359
27943W        W41357  12.746  16.834   4.985 -0.2729  0.3473  0.0295
27944W        W41358   0.785   0.696   4.342  0.2009 -0.1495  0.1859
27945W        W41359   1.591  11.314   1.056 -0.3118  0.1824  0.0897
27946W        W41360   8.489  11.986  15.733 -0.1549  0.0496  0.0170
27947W        W41361   0.127   8.706  13.680  0.1828 -0.0484 -0.0368
27948W        W41362  12.073  16.548   6.009  0.1458 -0.3872  0.2457
27949W        W41363  17.012  11.017   2.843  0.0912 -0.1475  0.2752
27950W        W41364  13.964  12.313  14.310  0.0063 -0.1584 -0.0598
27951W        W41365   8.794   1.339  11.767  0.1355 -0.0571  0.0944
27952W        W41366  10.978   6.852  14.304  0.0445  0.0329 -0.0534
27953W        W41367   9.167   4.182  10.773  0.2223  0.2560 -0.0559
27954W        W41368   5.841  15.747  15.870 -0.1738 -0.0452  0.1312
27955W        W41369   1.037   5.452  11.781 -0.0313 -0.0993  0.0033
27956W        W41370   8.270  15.722  13.706 -0.1921  0.2767  0.2913
27957W        W41371   1.415   0.065  15.906 -0.5180  0.0248  0.0064
27958W        W41372  13.031  11.592  13.915 -0.3594 -0.0224 -0.1287
27959W        W41373  12.713   0.277   2.046  0.1252  0.1033 -0.2577
27960W        W41374   1.351  17.362  16.253  0.0519  0.5215 -0.0174
27961W        W41375   3.522  16.802  14.024 -0.0015 -0.1624 -0.0694
27962W        W41376   0.849   2.415  14.643  0.0495  0.2587  0.0510
27963W        W41377   1.251  12.631  13.514  0.1910  0.0200 -0.0970
27964W        W41378   6.834   0.637   5.581 -0.1813 -0.2469  0.1000
27965W        W41379  12.013  10.181  16.032 -0.1052  0.0499  0.3029
27966W        W41380  10.072   6.372   0.311  0.1046  0.3145  0.1112
27967W        W41381  10.411   6.641   3.884 -0.0095  0.0795 -0.3711
27968W        W41382   5.714  13.675   4.883 -0.0476 -0.0993 -0.1742
27969W        W41383   2.065   2.283   4.257 -0.0592 -0.2667  0.1180
27970W        W41384   9.318  12.722  11.314  0.1568  0.1973 -0.2666
27971W        W41385  13.672   4.376   2.957 -0.1125  0.0514  0.0511
27972W        W41386  16.339   5.585  15.770 -0.3148  0.1078 -0.2064
27973W        W41387   3.629  18.111   1.499 -0.0852  0.1902 -0.1640
27974W        W41388  12.976  12.609  12.230  0.0717  0.0133  0.0710
27975W        W41389   5.633  12.141   4.741  0.0423 -0.1093 -0.1981
27976W        W41390  16.007  18.219   6.661 -0.2043 -0.1368  0.3840
27977W        W41391   7.027  12.114   6.034 -0.4127 -0.0471  0.3806
27978W        W41392  16.797   5.098   3.179 -0.4853  0.2609  0.1435
27979W        W41393   8.702  17.946  12.795 -0.0869 -0.0561  0.2235
27980W        W41394   1.445   0.813   4.324 -0.2644 -0.1961  0.1013
27981W        W41395   2.654  14.780   4.672  0.6579 -0.1285  0.2162
27982W        W41396  17.272  11.588  11.966 -0.0345 -0.1465  0.0461
27983W        W41397   4.585   2.151  13.359  0.0486  0.0502  0.1279
27984W        W41398  15.372   2.056  15.029  0.0843  0.0679 -0.1044
27985W        W41399   8.787   4.527  14.471  0.1555  0.5799 -0.1310
27986W        W41400   0.309   3.555   6.004 -0.4827 -0.1241  0.2801
27987W        W41401   3.422  16.228  13.626 -0.1597  0.2155 -0.0603
27988W        W41402  12.718   9.363   1.015 -0.0574  0.0183  0.2774
27989W        W41403   1.978  10.312  12.886  0.3539  0.1718  0.1129
27990W        W41404   9.010  10.838   4.880 -0.2757  0.2095  0.3817
27991W        W41405  17.846   7.048  11.960 -0.2488 -0.1818 -0.1885
27992W        W41406  11.472   6.109   4.369 -0.0885 -0.0322  0.2015
27993W        W41407   3.679  12.674   0.154  0.0490  0.2724 -0.1945
27994W        W41408  14.416   2.425  12.890 -0.1646 -0.1397 -0.1755
27995W        W41409  16.346   1.079  14.717 -0.3699 -0.0585 -0.0328
27996W        W41410  15.043   6.651  13.157  0.0364  0.0585  0.1698
27997W        W41411  10.556  16.518  11.505 -0.0332 -0.3841 -0.0627
27998W        W41412  12.696   4.146   3.184 -0.1306 -0.3059  0.1774
27999W        W41413   2.030  16.234  13.617  0.1719 -0.4261 -0.0149
28000W        W41414   0.245  15.028   5.107  0.0147  0.0836 -0.0147
28001W        W41415  13.858  16.453  12.953 -0.0946 -0.1082 -0.2061
28002W        W41416   4.597  15.198   4.706 -0.1412  0.1060  0.0622
28003W        W41417   9.160   0.280   2.501  0.3284 -0.0341  0.2703
28004W        W41418   2.010   9.809  12.833  0.1119  0.0997  0.1997
28005W        W41419   7.236   7.702  15.788 -0.2522  0.1903  0.4193
28006W        W41420   8.063   1.091  13.735 -0.0284 -0.1293  0.1851
28007W        W41421  15.559   9.240   6.619  0.3239  0.0213 -0.0838
28008W        W41422   2.503   3.313  13.897 -0.2281  0.2722 -0.0930
28009W        W41423   9.053   7.489   3.575  0.0331 -0.0009  0.2264
28010W        W41424   0.530  10.332   3.452 -0.2614  0.1724 -0.2822
28011W        W41425   7.538  14.004  15.095  0.1000 -0.0621 -0.0469
28012W        W41426   1.056   1.434  13.267 -0.1345  0.1626  0.0644
28013W        W41427   9.883  12.672  12.497  0.3243  0.1002  0.1168
28014W        W41428  13.090  13.718   3.100 -0.0978  0.0255  0.1940
28015W        W41429  17.559   1.815   2.799 -0.2292  0.0705  0.3753
28016W        W41430   8.822  13.713  14.180 -0.1539 -0.0767  0.1714
28017W        W41431   0.190   0.922  12.452 -0.2655 -0.2078  0.0693
28018W        W41432   2.621  12.578  12.627  0.1267  0.0796  0.3254
28019W        W41433   7.673  12.941   3.822 -0.3574  0.2101 -0.1834
28020W        W41434   5.380   2.705   5.915  0.1784 -0.1362  0.0423
28021W        W41435  10.507  14.603   0.130  0.3765  0.1358  0.0687
28022W        W41436   1.841   3.889   2.249 -0.1128  0.0820 -0.0614
28023W        W41437  12.949   6.502  13.099  0.2002  0.0803 -0.3137
28024W        W41438   2.149   7.165   1.881  0.0033  0.1277  0.1098
28025W        W41439  10.449  11.864  14.608 -0.0122  0.0854 -0.1061
28026W        W41440  11.989   0.756  16.256 -0.0260 -0.0392 -0.2044
28027W        W41441  17.624   5.040   0.508  0.2653  0.0677 -0.0373
28028W        W41442  15.169  14.058   5.781 -0.0399  0.0393  0.0766
28029W        W41443   4.539   9.396  15.441 -0.2956 -0.3272 -0.1965
28030W        W41444  17.764   4.184  13.654 -0.0050  0.2384 -0.1032
28031W        W41445   1.490  16.543   1.908 -0.1509  0.0456 -0.4970
28032W        W41446   4.381   9.316   4.265  0.1527  0.0251 -0.0952
28033W        W41447  15.944   3.113  14.509 -0.0035 -0.2525  0.1640
28034W        W41448  12.011  16.909   2.672  0.0325  0.2733  0.0785
28035W        W41449   4.440  17.011   5.866  0.2315  0.1707  0.2110
28036W        W41450   5.379   4.934   4.209  0.0031 -0.0977  0.0625
28037W        W41451  11.275   8.000   0.148  0.1697 -0.3877 -0.0521
28038W        W41452   6.654   9.662  11.241  0.4909 -0.0902  0.0429
28039W        W41453   6.825  13.984  12.179  0.1480  0.0194  0.0343
28040W        W41454   7.952  13.454   2.530  0.2184 -0.0073  0.1847
28041W        W41455  15.827   2.026   0.758 -0.2337 -0.1367  0.1835
28042W        W41456  16.986  11.727  13.304 -0.0946  0.2172 -0.1383
28043W        W41457  11.995   1.111  12.170  0.0506  0.0852 -0.4131
28044W        W41458   3.815   0.859  13.931  0.2011 -0.0565 -0.4392
28045W        W41459  13.721  12.190  15.014  0.1083  0.0796  0.0319
28046W        W41460   7.082   9.578  13.908 -0.1433 -0.1540 -0.3227
28047W        W41461   4.259  14.889   0.173  0.0010 -0.0635  0.0111
28048W        W41462   2.960  15.251   1.997  0.0699  0.0225  0.0688
28049W        W41463  12.995   2.885   4.978 -0.1110  0.1140 -0.2700
28050W        W41464  15.548  13.559  13.232  0.0508 -0.0396 -0.0562
28051W        W41465  18.160  17.230   0.004  0.1567 -0.1813  0.1120
28052W        W41466  15.702  13.136   3.312  0.0777 -0.0965 -0.0595
28053W        W41467   9.232  10.015  11.130  0.2223 -0.1236  0.1318
28054W        W41468   2.433   2.541   2.954 -0.0412  0.2882 -0.1699
28055W        W41469   7.215   4.434  10.817 -0.1670  0.2911  0.0408
28056W        W41470  10.429   4.201  14.978 -0.0876  0.0281  0.2397
28057W        W41471  16.146   0.784   5.686 -0.2348 -0.3800  0.1001
28058W        W41472  14.330   6.524   4.530 -0.1718 -0.1536  0.0776
28059W        W41473   6.199  14.675   0.067 -0.0116  0.0617  0.1925
28060W        W41474   5.380   4.531  11.532  0.2119 -0.0845 -0.1403
28061W        W41475  12.021  12.784   2.932  0.0568  0.1290 -0.1836
28062W        W41476  18.054   5.543   1.150  0.0311 -0.0643 -0.0650
28063W        W41477   3.811   8.429  15.697  0.0929 -0.0390  0.3049
28064W        W41478  14.394  13.624   4.662  0.1959 -0.0979  0.0921
28065W        W41479   3.160   0.341   2.957 -0.3428  0.0428 -0.0825
28066W        W41480   8.418   0.336   2.384 -0.0871  0.1972 -0.1668
28067W        W41481   9.890   7.523  11.685 -0.2139 -0.2698  0.4797
28068W        W41482   3.195   4.832  15.550  0.0633 -0.4094  0.2296
28069W        W41483   4.047   2.693  15.748  0.1192  0.0553  0.1466
28070W        W41484   4.286  14.278   3.876  0.1313 -0.0541 -0.1784
28071W        W41485  11.519  16.862   4.430  0.1238 -0.1046 -0.0186
28072W        W41486   0.915  10.636   0.762  0.0242  0.1274 -0.1902
28073W        W41487  12.714   7.054  14.637  0.0554  0.2797  0.2714
28074W        W41488  15.390  13.543  12.336  0.2518  0.2473  0.0393
28075W        W41489  12.212   3.260   1.689  0.1016  0.1511 -0.5263
28076W        W41490  12.501  10.643   3.822  0.1620 -0.0199  0.1185
28077W        W41491   5.226   9.777  11.577 -0.1399  0.1602 -0.1635
28078W        W41492   9.541   4.446   3.616 -0.1867 -0.1099 -0.0160
28079W        W41493   3.690   1.810   0.874 -0.1974 -0.1566  0.2485
28080W        W41494  16.178  10.846  11.504 -0.0452  0.0933  0.3448
28081W        W41495   5.344   5.575   5.179  0.1056  0.0634  0.0148
28082W        W41496  17.487   6.883  10.272 -0.0474 -0.0449 -0.1671
28083W        W41497   9.970   0.080   1.850 -0.0632 -0.1416 -0.0326
28084W        W41498   1.847  16.553   2.820  0.0668  0.1535 -0.1313
28085W        W41499   6.130   7.468  15.995  0.2520  0.0419  0.3238
28086W        W41500  15.417   3.538   3.655  0.0959 -0.1464 -0.0042
28087W        W41501   2.847   4.079   0.077  0.0016  0.3089  0.0282
28088W        W41502   2.330   8.283  12.137  0.0579 -0.1768 -0.2155
28089W        W41503  13.284  17.708  13.133  0.0285 -0.0459 -0.0888
28090W        W41504   7.440  12.430   1.013 -0.0905  0.1524 -0.0999
28091W        W41505  13.319  11.341   3.108  0.0469  0.1946 -0.1907
28092W        W41506   6.683   2.966  10.128 -0.0438 -0.0904 -0.1993
28093W        W41507   1.855   2.796  13.192 -0.1199 -0.2497 -0.2622
28094W        W41508  11.479   9.679   0.992  0.0066  0.3219 -0.1085
28095W        W41509   0.705  10.836  12.529 -0.1245 -0.2164  0.2601
28096W        W41510   2.608   4.663   0.940 -0.0508 -0.0716 -0.1746
28097W        W41511   3.314   2.170  11.844 -0.0291 -0.2745 -0.2281
28098W        W41512  13.967   4.193  14.286  0.1509  0.0371 -0.2074
28099W        W41513  12.186   0.786   5.866 -0.1645 -0.0726 -0.1588
28100W        W41514   9.699  12.376  12.106 -0.1071  0.3279 -0.1772
28101W        W41515   8.318  11.254   4.969  0.3097  0.0265 -0.0487
28102W        W41516  11.102  15.607   2.285  0.0747 -0.0741 -0.2395
28103W        W41517  14.711  16.116   3.417  0.1969  0.3210 -0.0971
28104W        W41518   9.628  14.403  11.257  0.1728  0.1717 -0.0673
28105W        W41519   7.449   3.680  10.054 -0.1920 -0.0490  0.1426
28106W        W41520  15.299  15.463   5.660  0.1071  0.1758 -0.0063
28107W        W41521   8.268  16.498  13.076  0.1458 -0.0962  0.2838
28108W        W41522  17.363   3.749   0.763  0.1236  0.0225 -0.0429
28109W        W41523   0.903  11.086  16.091 -0.0313 -0.1564 -0.0713
28110W        W41524  15.456   2.516   4.732 -0.0752  0.1569 -0.1152
28111W        W41525   2.007  10.401   0.248  0.0460  0.1592 -0.2554
28112W        W41526   7.641   6.677  13.975  0.0233 -0.2195 -0.2874
28113W        W41527  15.474   3.375  13.942 -0.0930 -0.2333  0.1162
28114W        W41528  14.438   6.440  16.116 -0.1978  0.2726 -0.0121
28115W        W41529   5.948   9.017   4.379  0.2482 -0.0087 -0.1188
28116W        W41530  15.716  17.890  13.757  0.0295 -0.0455 -0.4335
28117W        W41531   3.637   0.049   3.029  0.2416 -0.0632  0.2427
28118W        W41532   5.416  15.175   1.744 -0.1007 -0.1102  0.3195
28119W        W41533   0.579   0.983   2.903  0.3310  0.0811  0.1143
28120W        W41534   0.314   8.437  12.109 -0.1298  0.1208  0.2206
28121W        W41535   0.414  15.111  15.667  0.0019  0.1789  0.1542
28122W        W41536  10.410  17.850   3.461  0.0892 -0.1071 -0.2125
28123W        W41537  10.217   5.511  10.423  0.0051 -0.1038 -0.2537
28124W        W41538  17.459   5.867  11.517 -0.1462  0.2889 -0.2705
28125W        W41539  17.946  13.374  15.780  0.1104 -0.0929 -0.0865
28126W        W41540   2.992   2.560  14.818 -0.0257 -0.1794 -0.2542
28127W        W41541  17.045  15.252   1.920 -0.2690  0.2369 -0.1982
28128W        W41542  14.921  11.754  16.478 -0.1946 -0.3758  0.3350
28129W        W41543  17.677   3.329   0.642 -0.0472 -0.2372 -0.0360
28130W        W41544  12.397  16.663   1.215  0.0337  0.2309  0.0112
28131W        W41545   6.855  11.546  11.413  0.0455 -0.0166  0.1807
28132W        W41546  15.813   2.270   5.503  0.0201  0.1262  0.0712
28133W        W41547  17.675   2.018  10.954 -0.2003 -0.1391 -0.0057
28134W        W41548   2.423   4.940   0.476 -0.0805 -0.1631  0.1718
28135W        W41549   8.899   7.467   5.883  0.0331 -0.0508  0.1174
28136W        W41550  10.062   0.747  10.033 -0.0174 -0.0589  0.0655
28137W        W41551   1.930   5.883   5.871  0.1162 -0.2854 -0.1654
28138W        W41552   3.213  15.513   4.522  0.2387  0.3121  0.0804
28139W        W41553  11.183  13.229   5.297  0.1199 -0.0896 -0.0923
28140W        W41554   3.954  12.839  15.749  0.0605  0.4197  0.1784
28141W        W41555  11.320  12.729   3.276  0.0072  0.0726 -0.1455
28142W        W41556  13.078  18.184  16.332  0.1384  0.2380 -0.0077
28143W        W41557   6.394  18.134   2.500 -0.1622  0.0470 -0.1097
28144W        W41558  10.538  17.439   0.039 -0.0362  0.0595 -0.0485
28145W        W41559  10.938   9.640  12.659 -0.2859  0.1188  0.2304
28146W        W41560  15.860  16.705   1.294 -0.3107  0.2202  0.1086
28147W        W41561   2.477   3.809  14.195 -0.0847 -0.1184  0.0817
28148W        W41562  10.662   3.389  10.157  0.1761  0.0812  0.1125
28149W        W41563   4.630   9.957   6.143 -0.0836  0.1344  0.0033
28150W        W41564   7.106  11.370   0.281  0.2234  0.0406  0.0388
28151W        W41565   8.728  12.421  10.616  0.1846 -0.0388 -0.0863
28152W        W41566  15.590   9.139  11.140 -0.0650 -0.0781  0.1347
28153W        W41567  10.521  13.511  10.030 -0.1793  0.0847  0.1030
28154W        W41568   7.238  12.393   0.191 -0.1567  0.0470  0.1545
28155W        W41569   3.456   6.853   3.175  0.0356 -0.0831 -0.0445
28156W        W41570   5.346   9.849  11.115  0.1503  0.0505  0.2463
28157W        W41571  11.409  13.813  11.295 -0.1235  0.0666  0.1059
28158W        W41572  11.674  12.148   5.398 -0.0359  0.0119  0.0040
28159W        W41573   1.825  16.468   4.177 -0.1759 -0.4762  0.1265
28160W        W41574   9.069   9.161  12.633  0.0523 -0.0577 -0.0588
28161W        W41575  12.902  11.997   5.884  0.1684 -0.1162  0.1218
28162W        W41576   8.003  15.458   0.331  0.2205  0.2393 -0.0303
28163W        W41577   7.525  17.660  14.242 -0.1008 -0.3626  0.3288
28164W        W41578  17.449  11.448   4.753  0.1817 -0.2726 -0.0945
28165W        W41579  13.405   7.729  15.010  0.0554  0.4360  0.1618
28166W        W41580  11.717   8.617   4.280 -0.0410  0.1418  0.2551
28167W        W41581   7.703  14.776  12.902  0.0542 -0.0739 -0.0983
28168W        W41582   1.961   4.543  11.158  0.2905 -0.1454  0.1240
28169W        W41583   5.190   1.682  11.680  0.0438 -0.0905  0.2128
28170W        W41584   6.813  11.667  11.942 -0.2401 -0.1666 -0.0857
28171W        W41585   5.458  13.237   2.046 -0.1602 -0.4991  0.1100
28172W        W41586  11.960   7.255   4.511  0.0029  0.2849  0.2537
28173W        W41587   8.808  14.550   0.732  0.1918  0.0981 -0.3412
28174W        W41588   9.510  17.803  12.711 -0.2208  0.0341 -0.2007
28175W        W41589  15.059  10.215   1.474  0.0265 -0.5429  0.1730
28176W        W41590  12.135  17.943   9.878 -0.1207  0.0189  0.0201
28177W        W41591  14.231   7.103   4.737 -0.1536 -0.0320 -0.0310
28178W        W41592   6.651  15.168   3.592 -0.2379 -0.0628 -0.0340
28179W        W41593   3.030   6.475   0.513 -0.1512 -0.0469  0.1228
28180W        W41594   4.980   4.629  11.808 -0.1583 -0.0530 -0.2004
28181W        W41595   8.058  10.597   6.373 -0.1690  0.1230  0.1034
28182W        W41596   1.315   8.115   0.230 -0.2326 -0.2978 -0.0157
28183W        W41597   7.970  11.931   4.677  0.0629 -0.2330  0.1524
28184W        W41598  10.047  13.723   4.131  0.3159  0.0897 -0.0430
28185W        W41599  14.716  16.555   5.653 -0.0282  0.0921  0.0838
28186W        W41600  14.545  11.563   1.621 -0.0970  0.2847 -0.1898
28187W        W41601  17.253  11.841   3.363  0.0731  0.0184 -0.1559
28188W        W41602  17.135  12.322   3.261  0.0549  0.1915 -0.0232
28189W        W41603  13.334   6.967  11.692  0.0339  0.0277 -0.2267
28190W        W41604   7.224   8.179   3.658 -0.0640  0.1020 -0.3866
28191W        W41605   3.399  15.532  11.474  0.0815  0.0567  0.2489
28192W        W41606   5.489  11.465   1.269  0.2084  0.0606 -0.2480
28193W        W41607   0.147   6.392   0.646 -0.1750  0.2293 -0.2442
28194W        W41608   1.672  15.479   5.109 -0.0590  0.0959  0.0365
28195W        W41609   5.663  13.951  11.718  0.2036  0.1115  0.3674
28196W        W41610   9.416  11.883   5.686 -0.3021  0.0624 -0.1008
28197W        W41611  14.538  10.254  15.635  0.0246 -0.1225  0.1789
28198W        W41612  12.962   7.375   0.365 -0.2266  0.1823  0.3017
28199W        W41613   9.450   7.700  12.680  0.0510  0.0917 -0.3190
28200W        W41614  12.012   9.861  10.495  0.2274 -0.3214  0.2926
28201W        W41615   4.460   3.674   3.858  0.0453  0.1888 -0.0936
28202W        W41616  14.643  13.146  13.243  0.0356 -0.1290 -0.0583
28203W        W41617   5.030  17.036   4.842 -0.0144  0.1990  0.0756
28204W        W41618   0.225   1.656   3.267 -0.0553  0.0422  0.0230
28205W        W41619   2.399   4.065   4.666 -0.1285  0.0153  0.2205
28206W        W41620  13.510   3.228   3.936 -0.4940  0.3653  0.0984
28207W        W41621   1.386   1.103   0.821 -0.0728 -0.2810  0.0664
28208W        W41622   0.609  14.219   0.433  0.0598 -0.0098  0.1415
28209W        W41623   5.675  12.915  15.970  0.3313  0.0636  0.2190
28210W        W41624  13.150   5.244  12.368 -0.0603  0.2972 -0.2729
28211W        W41625  13.437  15.450   3.718 -0.2386 -0.0474 -0.1437
28212W        W41626   9.895   8.858  10.435  0.1301  0.3217 -0.1913
28213W        W41627   3.354  15.245  14.623  0.0272 -0.0233 -0.2221
28214W        W41628  13.996   3.612   4.998  0.0210 -0.1418  0.1119
28215W        W41629   1.660  11.736   0.748  0.0570 -0.1323 -0.2611
28216W        W41630   1.015  17.558   5.285  0.1015  0.0716 -0.0888
28217W        W41631  17.006   2.941  13.646  0.2792  0.3425 -0.1492
28218W        W41632   7.003   9.750   0.811 -0.0259  0.1383 -0.1036
28219W        W41633  10.059  16.611   1.354  0.0710 -0.0797  0.0013
28220W        W41634   0.862  10.270  15.854 -0.1802  0.1661 -0.2823
28221W        W41635   8.998  14.826   3.025 -0.1514  0.1268  0.2858
28222W        W41636   2.367   0.784   4.818  0.0954  0.0513 -0.0472
28223W        W41637   2.834   3.851  12.081 -0.1467  0.2949  0.0535
28224W        W41638   4.628  14.145   0.223  0.1445 -0.3274 -0.0583
28225W        W41639   2.551  10.029   5.742  0.0137  0.3361 -0.1025
28226W        W41640   5.454  15.503  10.268 -0.0287  0.0187 -0.1542
28227W        W41641   5.813  15.234   3.710 -0.0545 -0.0660 -0.1972
28228W        W41642   0.752   8.227  12.056  0.0807 -0.0656 -0.1795
28229W        W41643   5.023   2.538  12.113  0.0119 -0.0356  0.1158
28230W        W41644   2.548  15.815   1.526  0.1277 -0.0803  0.1106
28231W        W41645   0.699   2.103   4.619 -0.2999  0.3663  0.0904
28232W        W41646  17.514  15.782  15.996  0.0688  0.0299  0.0875
28233W        W41647   3.731   3.990  15.844 -0.2056 -0.2125 -0.0103
28234W        W41648   8.660  15.409  14.092  0.1178 -0.1202 -0.0854
28235W        W41649   0.236  14.283   3.093 -0.3574 -0.0393  0.3309
28236W        W41650   6.913   0.202  14.056 -0.0011 -0.4434  0.5127
28237W        W41651   9.604  13.570  14.762  0.1879  0.0275  0.1844
28238W        W41652   6.020  10.875   4.535 -0.0295  0.2066 -0.0849
28239W        W41653  17.313  15.271  14.150  0.4405 -0.0671 -0.1247
28240W        W41654  17.599  15.006  11.251  0.0924  0.1535 -0.1345
28241W        W41655   2.870  17.457  11.838  0.1049  0.3269  0.1458
28242W        W41656   5.305   5.049   0.220  0.0763  0.1886  0.2277
28243W        W41657  13.673  17.727   0.576 -0.0194  0.1194  0.2516
28244W        W41658   6.103  15.128  14.305  0.0670  0.1186 -0.0115
28245W        W41659   9.006   9.641  13.165 -0.0305  0.1248  0.0366
28246W        W41660   4.106  16.056   4.784 -0.0799 -0.0027 -0.1116
28247W        W41661   8.224   6.751  14.079  0.3173  0.0272  0.1237
28248W        W41662  11.277  17.838  13.724  0.3829 -0.0043 -0.1716
28249W        W41663   3.087   9.801   6.554 -0.1404  0.0543  0.2029
28250W        W41664  14.581   7.335  13.812  0.3007  0.0447 -0.0602
28251W        W41665   1.268   2.026  15.847 -0.3236  0.1093 -0.1795
28252W        W41666   1.864   1.788   1.170 -0.0376  0.2922  0.0442
28253W        W41667  15.603   2.727  15.250  0.0868  0.1028  0.1073
28254W        W41668  10.590  17.323  14.496  0.4400  0.1920  0.2254
28255W        W41669  11.435  11.801   1.173  0.1284 -0.3787 -0.0624
28256W        W41670   1.772   7.130   4.461 -0.2539  0.1338  0.3316
28257W        W41671   6.552  11.562   4.159  0.3113  0.1556  0.0470
28258W        W41672  16.187  13.261  14.627  0.1574 -0.0182  0.1366
28259W        W41673   3.568   6.626  11.783 -0.0224 -0.2881 -0.1213
28260W        W41674   8.599   3.969  11.272  0.2406 -0.0201 -0.2455
28261W        W41675   5.453   3.460  14.272 -0.3364  0.1065 -0.2946
28262W        W41676  17.729   4.952  12.360 -0.1312 -0.0996 -0.4397
28263W        W41677   0.864   2.936   5.265 -0.1855 -0.0638  0.0340
28264W        W41678   2.395   4.668   1.720  0.0871  0.1654  0.3957
28265W        W41679  17.165  15.692  11.398  0.0674  0.0120  0.0908
28266W        W41680  10.176  15.319  11.411  0.3336 -0.1300  0.1895
28267W        W41681   7.098  15.660  11.356 -0.2325  0.0426 -0.0649
28268W        W41682  10.863  17.922  13.479  0.0384 -0.0378  0.1362
28269W        W41683   1.353  12.359   1.164  0.1000  0.0716  0.0072
28270W        W41684  12.391  11.513  11.816  0.0532  0.0597  0.1022
28271W        W41685   7.170   4.135   1.589  0.5422 -0.3452 -0.0225
28272W        W41686   4.741   3.367  14.790 -0.1517 -0.1602  0.1581
28273W        W41687  15.671  16.716   3.380  0.0413  0.2187  0.0485
28274W        W41688   1.454   7.919   1.838  0.0577  0.0818  0.1594
28275W        W41689   6.800   4.882  13.229 -0.2527  0.2407  0.1049
28276W        W41690   9.940  18.037   2.545  0.0007  0.1777  0.0434
28277W        W41691   3.445   7.924   3.185  0.0158  0.2263  0.1976
28278W        W41692   5.246  14.787  10.793 -0.1561 -0.1745  0.0548
28279W        W41693   1.653   3.824  13.225 -0.1767  0.0006  0.1844
28280W        W41694  15.359   2.491   0.077 -0.2523 -0.1163  0.2135
28281W        W41695  11.695  16.488  10.040 -0.0054 -0.1396  0.2827
28282W        W41696  14.117   5.597  15.967  0.1052 -0.2947 -0.2055
28283W        W41697  16.997   5.589  11.575  0.1672 -0.0411 -0.0027
28284W        W41698   9.346   4.291  16.192  0.0405 -0.1891 -0.1836
28285W        W41699   0.269   5.682  11.801  0.1294  0.1242  0.0721
28286W        W41700   2.375  10.023   0.313  0.5248  0.1971  0.1608
28287W        W41701   8.456   7.887   6.395 -0.0369 -0.1472  0.1074
28288W        W41702   0.050   2.901  16.201 -0.0180  0.1003 -0.1094
28289W        W41703  17.452   6.854  16.319 -0.0273  0.0007 -0.2952
28290W        W41704  17.124   9.956   3.868  0.0205  0.0399  0.2848
28291W        W41705  16.121   3.182   1.688  0.1629  0.1482 -0.0572
28292W        W41706  11.433  18.046   2.493 -0.0336 -0.1791  0.0654
28293W        W41707   4.569   2.763   5.257 -0.1245  0.0495  0.0665
28294W        W41708  11.510   3.076   2.584 -0.2755  0.0823  0.0686
28295W        W41709   4.984  11.314   1.210  0.1015 -0.3468  0.1830
28296W        W41710   1.171  13.854  11.336  0.1453 -0.1487 -0.0619
28297W        W41711  10.731   1.974  12.329  0.1139 -0.2016  0.2754
28298W        W41712  16.913  18.064   3.222 -0.1171  0.2899 -0.1077
28299W        W41713   8.625  17.794  16.109  0.2268  0.1579  0.1926
28300W        W41714   8.859   0.630   9.895  0.1345 -0.0908 -0.0321
28301W        W41715  13.749   0.415   0.178 -0.2885 -0.0523  0.0135
28302W        W41716  16.930   4.135   3.039  0.3020 -0.1343 -0.1819
28303W        W41717   2.865   9.710  13.378  0.2998 -0.0069  0.2051
28304W        W41718   3.774   1.787   4.080  0.4494 -0.0645  0.2019
28305W        W41719  17.536  11.021  11.690 -0.1031 -0.2580  0.2509
28306W        W41720   6.105   3.847   3.799  0.2079  0.1343 -0.1754
28307W        W41721  15.410   0.386   5.096 -0.0395  0.1061  0.2538
28308W        W41722   0.686  15.513  15.567  0.0848 -0.0779 -0.2784
28309W        W41723  16.601   8.892   2.354 -0.0296  0.2053 -0.1114
28310W        W41724  10.622   8.244  13.853  0.1980  0.1812  0.4831
28311W        W41725   6.131  17.486   0.422  0.0350 -0.3522 -0.1304
28312W        W41726   9.744  16.643  13.269 -0.2253  0.1729 -0.0987
28313W        W41727  16.284   1.240  13.761  0.1520 -0.1064 -0.1296
28314W        W41728   1.018   7.259   4.148 -0.3277 -0.0114 -0.2701
28315W        W41729  13.358  18.208   1.400  0.0100 -0.0767  0.3231
28316W        W41730  11.670   1.143  13.094 -0.1581  0.1556 -0.1093
28317W        W41731  15.697  15.185   6.990  0.3076  0.0183 -0.2412
28318W        W41732   1.750  17.506  11.036 -0.1664  0.2437 -0.0760
28319W        W41733  14.325  16.503   1.074 -0.1115  0.0111  0.2147
28320W        W41734   9.978   1.088   1.090 -0.1426  0.4140 -0.6766
28321W        W41735  10.240  10.053   2.110  0.0347 -0.1919  0.0691
28322W        W41736   6.187   4.460   1.373  0.0330  0.0490  0.3984
28323W        W41737  17.548   3.150   3.673  0.0435 -0.0000 -0.2286
28324W        W41738   4.566  11.628  14.367 -0.1903  0.1924 -0.2171
28325W        W41739   2.531  11.965   0.922  0.0778 -0.0179  0.0135
28326W        W41740  16.381   1.907   3.057  0.1933  0.0482 -0.0264
28327W        W41741   1.714   5.130   4.069 -0.1062  0.1764  0.2413
28328W        W41742   1.555  11.762  15.846  0.1031 -0.4044  0.0353
28329W        W41743   3.957   3.469  15.417 -0.1081  0.0697  0.0746
28330W        W41744   4.192   2.995  15.264 -0.0493 -0.0630 -0.4721
28331W        W41745  12.779   3.425  12.771 -0.1090 -0.1021 -0.0576
28332W        W41746   0.760  10.498  12.921  0.0209 -0.1788 -0.0289
28333W        W41747   2.815   8.591  12.191 -0.0994 -0.2170 -0.2553
28334W        W41748   3.062   7.695   4.509 -0.1838  0.1233  0.0357
28335W        W41749  11.900  12.741   0.292  0.1253 -0.1977  0.0071
28336W        W41750   3.077  17.850   4.001 -0.2124  0.2761 -0.0083
28337W        W41751   8.943  14.199   5.122  0.0397  0.1525  0.4257
28338W        W41752  17.716  10.265  11.269 -0.2129  0.0209 -0.1025
28339W        W41753  14.634  15.168   2.918  0.2453  0.2972  0.0017
28340W        W41754   4.567   9.571   0.369  0.2360 -0.2021 -0.2054
28341W        W41755  18.226   0.666   1.291  0.2499 -0.2215  0.1114
28342W        W41756   3.409   5.773   4.443 -0.2128  0.2903 -0.1739
28343W        W41757   4.747  14.173  11.559 -0.2367 -0.1733  0.1346
28344W        W41758   7.333  12.540  10.308 -0.3581 -0.0094  0.2779
28345W        W41759   5.409   8.269  11.734 -0.1893  0.1733  0.2314
28346W        W41760  17.521  17.437  15.102 -0.1810 -0.0683  0.0021
28347W        W41761   7.324   8.826  10.702  0.1015 -0.1341 -0.0750
28348W        W41762   5.245  14.142  12.016 -0.1724 -0.1686 -0.0786
28349W        W41763   2.892  13.714  15.088  0.0636 -0.0217 -0.0577
28350W        W41764  12.306  13.153  15.450 -0.0689  0.2283  0.1617
28351W        W41765   2.541  12.264   2.963  0.0733 -0.1196 -0.3304
28352W        W41766   8.747  17.221  14.899  0.2393  0.1196  0.0422
28353W        W41767   3.411  17.007  14.497 -0.3064 -0.2418  0.2115
28354W        W41768   6.156  17.596  11.594 -0.1792 -0.1380  0.0960
28355W        W41769  11.187   2.133   1.799 -0.0328 -0.1609 -0.0252
28356W        W41770  10.287  12.115   0.474 -0.0602  0.0256 -0.1420
28357W        W41771   9.215  12.340   2.766 -0.2636 -0.1319  0.1085
28358W        W41772  16.416   8.021   0.432  0.1591  0.2867  0.4415
28359W        W41773   2.037  14.510  14.971  0.2307 -0.2668  0.5998
28360W        W41774   2.525   3.756  14.839 -0.1592 -0.0216 -0.1259
28361W        W41775   0.760  13.179   2.236 -0.0549  0.0787 -0.2485
28362W        W41776   1.302  13.337   3.947 -0.2395 -0.2541  0.0466
28363W        W41777   9.707   3.779  16.161  0.2629 -0.1234 -0.2128
28364W        W41778   5.277  17.649   0.041 -0.4211  0.0510 -0.1401
28365W        W41779  11.168  11.873   5.203 -0.3188 -0.0664 -0.1737
28366W        W41780   7.675   0.494  11.554 -0.0435 -0.3051 -0.1612
28367W        W41781  12.559  13.843   4.551 -0.1300 -0.1800  0.0695
28368W        W41782   7.057   5.992  13.012  0.0637  0.1409  0.2104
28369W        W41783   0.993  12.511   1.467  0.0902  0.1330  0.1629
28370W        W41784  17.092   0.144   0.001  0.0364  0.0040  0.0890
28371W        W41785   7.055   2.904  10.957 -0.0598 -0.0519  0.1025
28372W        W41786  15.643  17.823  15.494 -0.0278 -0.3185  0.1337
28373W        W41787  12.842  12.521  14.871 -0.0496  0.2122  0.3387
28374W        W41788  14.596   1.944  12.904 -0.1336  0.1925  0.0126
28375W        W41789   2.917   2.657  15.325  0.0642 -0.1456 -0.1190
28376W        W41790   8.463   2.001   3.431 -0.2427  0.2140  0.4496
28377W        W41791   4.413   3.230   3.522 -0.0204 -0.0870 -0.1963
28378W        W41792   7.148   8.434  14.160 -0.0120 -0.2340  0.1507
28379W        W41793   2.557  14.672   5.287  0.1347 -0.1824 -0.0708
28380W        W41794   9.599  11.827  13.009  0.1802 -0.1303  0.0678
28381W        W41795  11.453  12.320   2.895  0.0758  0.1716  0.0459
28382W        W41796   9.474   8.172  13.460  0.1518 -0.1335 -0.0215
28383W        W41797  11.554  15.062   3.392 -0.0476 -0.0202  0.1633
28384W        W41798   0.541   8.149   2.177 -0.0261 -0.2337  0.0017
28385W        W41799   3.005  13.237  14.934 -0.1737 -0.1844 -0.0950
28386W        W41800   5.883   8.901   2.221  0.3457 -0.1021  0.2262
28387W        W41801   9.177  11.791  10.841 -0.0214 -0.5122  0.1248
28388W        W41802  15.537   5.413  11.169  0.2071 -0.3798  0.1172
28389W        W41803   2.677  11.091   0.449  0.1455 -0.1889  0.2837
28390W        W41804   1.461  10.497   3.965  0.0094 -0.0861  0.0215
28391W        W41805   2.167  11.297   6.707 -0.2379 -0.1033  0.1703
28392W        W41806   1.241  17.738   3.611 -0.0641 -0.3463 -0.3510
28393W        W41807  16.002  11.958   4.531 -0.0976 -0.1183  0.1544
28394W        W41808   3.989  15.980   0.192 -0.2688  0.1955 -0.0467
28395W        W41809   0.182   3.369  12.804 -0.0896  0.1251  0.1952
28396W        W41810   8.370   3.899  12.711 -0.0158  0.1096  0.0451
28397W        W41811   9.980  12.245   1.609  0.3146 -0.1356 -0.0181
28398W        W41812  13.110  12.003   5.041 -0.1876 -0.0785  0.0397
28399W        W41813  12.984  16.715   4.581 -0.3492  0.0761 -0.1421
28400W        W41814   0.709  14.085   2.145 -0.2185 -0.1753 -0.3129
28401W        W41815   7.590   6.323   5.983  0.0061  0.1924  0.1441
28402W        W41816   0.983  15.269  12.594 -0.0468  0.2960 -0.0075
28403W        W41817  13.591  13.693   4.987 -0.0533 -0.3655  0.2628
28404W        W41818  16.279   0.860  16.044 -0.0933 -0.0987  0.0756
28405W        W41819   6.800  13.651  15.330 -0.1698 -0.2915 -0.0174
28406W        W41820   0.448  13.105   3.500  0.1020 -0.0847 -0.0236
28407W        W41821   1.775   3.412   2.016  0.1503  0.1819  0.1517
28408W        W41822   0.432   5.095   3.753  0.1274 -0.0386 -0.1743
28409W        W41823  17.706   6.135   1.629 -0.1802 -0.0274 -0.0377
28410W        W41824   8.156   3.755   1.671  0.2416  0.0185  0.0240
28411W        W41825  10.360   1.124  11.935  0.0476 -0.1909  0.2558
28412W        W41826   4.001  10.103   2.430  0.0246  0.0794  0.1678
28413W        W41827   6.997  10.235  11.119 -0.2858 -0.0236 -0.0445
28414W        W41828   4.279   0.506  14.344  0.1382 -0.0402  0.2617
28415W        W41829   4.671   7.980   1.837  0.1346  0.2869  0.1602
28416W        W41830   7.225   6.719  10.754  0.0697  0.1336  0.0961
28417W        W41831   0.205   3.959   0.678  0.0961  0.1736  0.0089
28418W        W41832   9.918  13.236  13.308 -0.1939 -0.0395 -0.0060
28419W        W41833   4.050   3.808  11.125  0.0011 -0.1152  0.3493
28420W        W41834  16.961  11.122   1.693  0.3755  0.0358  0.0339
28421W        W41835  17.413   9.968  11.567  0.2455  0.2270  0.1339
28422W        W41836   0.707   1.190   2.372 -0.0845 -0.0398 -0.0418
28423W        W41837  15.290   2.764   2.108 -0.2481  0.1020 -0.2261
28424W        W41838  17.318   1.983  12.180 -0.0712 -0.0056  0.1545
28425W        W41839  12.311   0.949  12.515  0.0835 -0.1712 -0.2211
28426W        W41840  17.133  15.700   1.127 -0.0061  0.3854 -0.0421
28427W        W41841   0.048   4.704   3.761 -0.1433 -0.2058 -0.0519
28428W        W41842  15.088   7.101  13.126  0.2359 -0.0925 -0.3069
28429W        W41843  13.437   6.772  14.307  0.3213 -0.0329  0.0403
28430W        W41844   5.697   4.079  13.357  0.1514 -0.0549  0.0716
28431W        W41845  15.229   6.740   4.660  0.1003  0.2075  0.4933
28432W        W41846   6.833   4.854   2.185  0.0804  0.3055 -0.1192
28433W        W41847  11.897   4.265  13.706 -0.0333 -0.1949  0.0851
28434W        W41848  12.431  12.738  13.504 -0.0274 -0.0227 -0.0939
28435W        W41849   8.504   1.215  14.064  0.2670  0.2518  0.2273
28436W        W41850   9.027   7.778  11.625  0.0579  0.0029 -0.2240
28437W        W41851   9.297   0.920   1.421 -0.2221 -0.0798 -0.0498
28438W        W41852   3.775   8.031  14.823 -0.2394  0.6541 -0.2189
28439W        W41853   1.113   5.645   0.390  0.0556  0.1027  0.0296
28440W        W41854  11.960   3.455  16.182 -0.0129 -0.1712  0.1050
28441W        W41855  17.114   2.356  13.619 -0.0401 -0.1245  0.0772
28442W        W41856  14.293   3.526  11.409 -0.0665 -0.0427  0.0300
28443W        W41857  10.649  14.385  12.261  0.2314  0.0050  0.0944
28444W        W41858  12.753  12.278  16.216 -0.1474  0.1304  0.0859
28445W        W41859  12.261  17.056  16.458 -0.2202 -0.0545 -0.1387
28446W        W41860   4.932  12.775   1.886 -0.0792 -0.4419  0.0609
28447W        W41861  13.344   7.990  14.529  0.0115  0.2691  0.0906
28448W        W41862   7.148   3.797  13.171  0.0181  0.2335  0.0498
28449W        W41863   4.614  15.770   5.485 -0.1202 -0.1783 -0.3480
28450W        W41864  17.161  17.594   1.852 -0.0481  0.0468  0.2413
28451W        W41865  13.647  13.622   3.316  0.0934  0.1558  0.1016
28452W        W41866  12.144   3.131  15.168 -0.1908  0.1475  0.1074
28453W        W41867  10.879  11.870  14.296  0.0104 -0.0189  0.2633
28454W        W41868   0.247   7.276   0.165 -0.2251 -0.1358  0.1661
28455W        W41869   9.832   1.917   0.725  0.0860 -0.0289  0.0207
28456W        W41870   3.010   9.482   3.976 -0.0161 -0.1973  0.2145
28457W        W41871  14.904  17.896  16.134  0.2620 -0.0536 -0.0951
28458W        W41872   6.104  13.204  15.727  0.1367 -0.2186  0.0500
28459W        W41873   3.939   0.373  11.059 -0.0389  0.1081  0.1141
28460W        W41874  17.565  16.371   5.311  0.0812 -0.4139  0.0541
28461W        W41875   2.319  15.796  11.547 -0.0223 -0.0958 -0.0407
28462W        W41876  15.169   9.152  10.540 -0.2965  0.2402  0.1562
28463W        W41877  10.222  11.386   5.108 -0.1747  0.0279  0.0687
28464W        W41878   8.351   8.452   0.320  0.1240  0.0338 -0.1270
28465W        W41879  11.442  16.094   1.540  0.1228  0.0701 -0.1145
28466W        W41880  12.538   7.461   0.768  0.1869 -0.1409 -0.0451
28467W        W41881  14.574   3.445  12.183  0.0455  0.0600  0.1027
28468W        W41882   9.313  15.099   3.429 -0.1217 -0.1392  0.1113
28469W        W41883  17.933  16.989  11.788 -0.0334 -0.0689  0.1191
28470W        W41884   6.190  11.472  14.552  0.0369 -0.0065  0.1659
28471W        W41885  13.674   5.183   2.328 -0.0260  0.1138  0.0568
28472W        W41886  10.802   9.073  14.055  0.0811  0.0564 -0.1075
28473W        W41887  14.262  12.338   4.176 -0.1500 -0.0406  0.0775
28474W        W41888  10.358  10.906   4.957 -0.0612  0.1447  0.0645
28475W        W41889   9.355   9.473   2.321 -0.1651  0.2055  0.0420
28476W        W41890  14.251  11.390   3.493 -0.3705  0.1052  0.0237
28477W        W41891   0.662   2.537  12.625  0.3229 -0.0331  0.1148
28478W        W41892   5.248  17.087   2.582  0.1306 -0.0459 -0.5698
28479W        W41893   5.124   4.899   4.771  0.0045 -0.0013 -0.0457
28480W        W41894   7.286   9.907  13.534  0.1618  0.0144 -0.2229
28481W        W41895   0.523  14.224  11.516  0.0675 -0.1308  0.0322
28482W        W41896   3.740   3.134  15.749 -0.1960  0.0261 -0.3030
28483W        W41897   8.701   4.504  12.516 -0.2101 -0.1112  0.0399
28484W        W41898  15.898   2.698  16.163  0.0858 -0.1917  0.1771
28485W        W41899  14.277   9.158   4.256 -0.0251  0.0896  0.1495
28486W        W41900   0.869   2.811   1.264 -0.0850 -0.1727 -0.1542
28487W        W41901  10.282   5.814  11.641 -0.0575  0.1775  0.2809
28488W        W41902   5.095  14.981  14.025 -0.0023 -0.0283  0.0245
28489W        W41903   1.026  12.800   3.981  0.0708  0.0454 -0.0309
28490W        W41904   5.254   4.941   3.050 -0.3146  0.2729 -0.1587
28491W        W41905  14.129   6.348  14.075 -0.0405  0.3840 -0.0093
28492W        W41906  17.009   1.072   1.185  0.0600 -0.1516 -0.3556
28493W        W41907   4.320   5.691  11.343  0.2110  0.3105  0.0774
28494W        W41908  14.507  16.595  12.073  0.2831 -0.0356 -0.1152
28495W        W41909   2.794   5.182   5.353 -0.1361  0.2731 -0.0804
28496W        W41910  14.411  10.668   5.773 -0.0697 -0.1551  0.0089
28497W        W41911   5.696   2.245   4.217  0.0147  0.1665 -0.1551
28498W        W41912   4.758  10.396   1.187 -0.1513  0.0194 -0.4506
28499W        W41913   4.654  11.461   1.596  0.4793 -0.0018 -0.0237
28500W        W41914   2.597   3.266   0.529 -0.2600 -0.0469 -0.0357
28501W        W41915   9.208   6.438  16.244 -0.2915  0.0575  0.1634
28502W        W41916  12.813   7.981   5.303  0.1788 -0.2139 -0.0430
28503W        W41917   9.176   3.106  12.028 -0.0046 -0.0150  0.3092
28504W        W41918   2.452   7.169  16.477 -0.2641  0.2230  0.0459
28505W        W41919  17.493  17.019  13.848  0.4005 -0.2624  0.1712
28506W        W41920  10.031   9.462   2.946 -0.0297 -0.2960  0.1896
28507W        W41921   8.488   4.888  14.215 -0.0229  0.0947  0.1128
28508W        W41922  11.798  10.706  11.958 -0.0064  0.0238 -0.0926
28509W        W41923   2.153  15.276  10.676  0.1204 -0.2741 -0.0266
28510W        W41924  17.059   6.559   4.208 -0.0209 -0.3542  0.2317
28511W        W41925  16.110   5.960   5.472 -0.0087 -0.0698 -0.4333
28512W        W41926  14.249  16.013   2.540 -0.0097 -0.1465 -0.0027
28513W        W41927  10.744   6.068   6.039 -0.1014 -0.3801 -0.0412
28514W        W41928   1.471  17.883   5.168 -0.0491 -0.0490  0.0507
28515W        W41929  13.911   3.017   5.718  0.1477  0.0034 -0.0820
28516W        W41930  18.120   0.480  16.354 -0.2681 -0.0518  0.1182
28517W        W41931   4.016   3.943   2.150 -0.1056 -0.0142  0.0129
28518W        W41932   5.659  10.082   5.151 -0.1713  0.3501  0.0520
28519W        W41933  17.880  12.119   1.287 -0.2435  0.0388  0.0198
28520W        W41934  13.934  14.042   3.285  0.2064  0.1750 -0.1126
28521W        W41935  15.954  12.593  13.257 -0.1474  0.0855  0.0243
28522W        W41936  15.836  13.075  10.813 -0.0514 -0.0878  0.1110
28523W        W41937  12.479  12.839   1.337  0.0579  0.1651 -0.0019
28524W        W41938  11.916  15.168   0.824  0.0414 -0.1775 -0.0844
28525W        W41939  13.167  15.070   6.142  0.0897 -0.2106 -0.1533
28526W        W41940   3.351   0.846   3.978 -0.1626  0.1213  0.1007
28527W        W41941  14.098   2.532  10.170  0.0673  0.2443 -0.0309
28528W        W41942   6.126  10.734  15.820 -0.2540 -0.1467  0.1094
28529W        W41943   0.567   2.199   2.034 -0.2675  0.0043 -0.0452
28530W        W41944   0.466   5.588  12.576  0.0386 -0.1236 -0.1940
28531W        W41945   1.633   0.946   3.364  0.0968  0.1275  0.1871
28532W        W41946   0.610  15.706   3.221 -0.2185 -0.0965  0.0647
28533W        W41947  16.484   5.167   0.974  0.0706  0.2163 -0.1029
28534W        W41948   6.937  10.357   4.500  0.0352 -0.1297 -0.1248
28535W        W41949   3.826  15.311  13.874  0.1822  0.0822 -0.1001
28536W        W41950   7.417   8.345   0.028 -0.0917  0.2884  0.1891
28537W        W41951   6.186   3.415   4.904 -0.0257  0.1577 -0.2950
28538W        W41952  10.319   6.595   2.876  0.1703  0.2165 -0.3019
28539W        W41953  17.114   2.029  14.640 -0.0934  0.0077 -0.1577
28540W        W41954  17.942   0.746   3.189  0.3564 -0.1954  0.3183
28541W        W41955   7.687   5.619   3.455  0.2667  0.4386 -0.1608
28542W        W41956  15.882   4.703  10.730 -0.1412 -0.0158  0.1666
28543W        W41957   0.721  13.848  12.955 -0.0464 -0.0587  0.1085
28544W        W41958   5.277   5.065   0.779  0.3501  0.0344 -0.1456
28545W        W41959  12.028   7.852   5.274  0.0817  0.2895 -0.3315
28546W        W41960  15.534  14.779   3.875 -0.0348  0.1132  0.1996
28547W        W41961   2.393   9.541   1.296 -0.0111  0.2913 -0.3733
28548W        W41962  14.780   9.314   3.490  0.1322  0.1102 -0.1034
28549W        W41963  12.606  10.532   5.066  0.1702 -0.1496  0.0082
28550W        W41964  17.901  11.288   3.491 -0.2568 -0.2190  0.1854
28551W        W41965   9.919  11.909  12.093  0.0574 -0.1239  0.1248
28552W        W41966  14.376  15.941   5.026 -0.2173 -0.4475  0.2173
28553W        W41967   2.558  15.499   3.783 -0.0879  0.3104 -0.1611
28554W        W41968   4.248   8.066  15.083 -0.0178 -0.0271 -0.0853
28555W        W41969   3.894   7.371   5.908 -0.1408 -0.1314  0.0622
28556W        W41970   5.823   4.586   2.348 -0.0955 -0.4199  0.2740
28557W        W41971  15.569   1.988   3.126 -0.2477  0.0119  0.0953
28558W        W41972   6.883  15.281  16.490  0.0851 -0.4181 -0.0462
28559W        W41973  12.336  14.249  12.297  0.0099  0.3377  0.2571
28560W        W41974   0.441   3.825   5.578  0.0510 -0.0594 -0.0879
28561W        W41975   4.415   5.268   1.776  0.3144  0.0228 -0.0316
28562W        W41976   6.636  11.481   0.005 -0.0681 -0.2512  0.0001
28563W        W41977   7.245  11.646  15.042 -0.0364 -0.0563 -0.0398
28564W        W41978  11.699   8.387  10.126 -0.1653 -0.2538 -0.0132
28565W        W41979   3.291   8.955  12.877  0.1141 -0.0481 -0.1559
28566W        W41980  15.123   0.008  16.358  0.3491 -0.4133 -0.2700
28567W        W41981  16.069  14.152  12.127 -0.1029  0.0289 -0.0529
28568W        W41982   5.731   3.673   3.498  0.1142 -0.1801  0.0232
28569W        W41983  14.998   8.436  12.235 -0.2689 -0.1072  0.0323
28570W        W41984  17.888  17.708  14.630  0.2152  0.2513 -0.0649
28571W        W41985   1.893   8.390  12.423  0.1576 -0.0553 -0.1185
28572W        W41986  17.508  14.589  16.353 -0.1935 -0.1271  0.2446
28573W        W41987   7.214   7.242   6.047 -0.3512 -0.2463  0.0070
28574W        W41988  15.404   3.732  10.629 -0.1867 -0.1016 -0.0862
28575W        W41989   6.650  13.608   0.155 -0.2499  0.1252  0.0103
28576W        W41990   9.078   2.673  11.935  0.1234 -0.2501 -0.0585
28577W        W41991   9.753   7.073   4.892 -0.2067  0.2748 -0.2430
28578W        W41992  13.372  12.450   4.690  0.0252  0.2215  0.1752
28579W        W41993   1.503  12.757   1.460 -0.0015 -0.0187 -0.5248
28580W        W41994   9.613   2.551  15.149 -0.1048  0.1979 -0.1747
28581W        W41995   7.013  12.776  16.258  0.1270  0.2489 -0.4147
28582W        W41996   1.900  11.852   3.810 -0.3360 -0.1658 -0.0236
28583W        W41997  11.474  11.313   1.234  0.1852 -0.1381  0.1754
28584W        W41998  11.539   1.296   0.668 -0.2874 -0.1209  0.1255
28585W        W41999  17.294   6.914  15.426  0.2826 -0.0186  0.1975
28586W        W42000   9.236  13.117  10.387 -0.0004  0.1665 -0.0566
28587W        W42001  15.353  14.038   1.404 -0.2595 -0.2826 -0.1747
28588W        W42002  10.485   2.985  10.757  0.1106 -0.0877 -0.0549
28589W        W42003   5.756   1.873   5.521  0.3010 -0.0262 -0.0878
28590W        W42004   1.559   8.133   5.848 -0.2902  0.0354 -0.1920
28591W        W42005   4.616  11.762   5.102  0.0406  0.0016 -0.2010
28592W        W42006   8.814  13.407   5.681 -0.0101  0.1018  0.2152
28593W        W42007  12.379  15.350  11.322 -0.0133 -0.1570 -0.0037
28594W        W42008  15.196  10.338  11.806 -0.1546  0.1092  0.1992
28595W        W42009  12.318  14.420   5.191 -0.0361  0.0961  0.1364
28596W        W42010  11.357   1.582   4.248  0.0728 -0.0545  0.5073
28597W        W42011   6.199  13.482   4.903  0.2939 -0.2106  0.4235
28598W        W42012   6.297  12.793  13.908 -0.1818 -0.3087 -0.0127
28599W        W42013   8.021   2.353   4.700  0.2039 -0.1082  0.0782
28600W        W42014   0.334  15.925  15.462  0.0528  0.2146 -0.3788
28601W        W42015   0.796   6.456   1.353 -0.2684 -0.0545  0.0105
28602W        W42016  16.013  13.314   2.922 -0.0614 -0.1534  0.0382
28603W        W42017   7.217  15.283  12.556 -0.0539 -0.1702 -0.2094
28604W        W42018   5.741   0.577  13.057  0.1195  0.2131 -0.1874
28605W        W42019   7.074  17.389   1.275 -0.0342  0.3757 -0.0039
28606W        W42020  16.669  13.041  14.947 -0.1627 -0.1227 -0.2427
28607W        W42021  12.193   2.963   6.080  0.0299 -0.4367 -0.0055
28608W        W42022   1.683   5.640  14.327 -0.1194  0.0058 -0.2828
28609W        W42023  17.334   8.113   3.746  0.0433 -0.1376  0.1928
28610W        W42024   7.224   4.510  16.262 -0.2001 -0.0879 -0.0286
28611W        W42025  12.941  12.632  11.674  0.2785  0.0638 -0.0965
28612W        W42026   8.239   5.950   2.754  0.1206  0.0297  0.0991
28613W        W42027  15.945   4.263  11.931 -0.4844 -0.0264  0.0830
28614W        W42028  16.198  13.708  12.000  0.1023  0.1944  0.0631
28615W        W42029  13.501   6.480  13.288 -0.1701 -0.0537 -0.0179
28616W        W42030  17.352  13.947   3.860 -0.0272 -0.1947  0.1679
28617W        W42031   0.562  14.747   1.781 -0.3087  0.0545 -0.2554
28618W        W42032  13.812  18.168  14.870  0.1338  0.0550 -0.0177
28619W        W42033  13.094   8.693  11.441 -0.1735 -0.0364  0.0208
28620W        W42034  14.852   3.686  12.542 -0.0811 -0.2602  0.0638
28621W        W42035   4.706   1.180   1.220  0.1465 -0.0265 -0.0708
28622W        W42036  14.311   9.514   2.350  0.0298 -0.3637 -0.2847
28623W        W42037  14.933   6.074  12.350  0.0334  0.3622 -0.1100
28624W        W42038   4.593   0.110   3.333  0.0922  0.0611  0.1050
28625W        W42039  16.398   5.928  15.428 -0.0455  0.0173  0.1238
28626W        W42040  16.878   1.655   3.125  0.0239  0.2549 -0.1704
28627W        W42041   3.223  12.340   1.423 -0.2418  0.1760  0.1339
28628W        W42042   2.720  11.449  16.284 -0.0414 -0.2169 -0.2650
28629W        W42043  17.485  17.439   6.279 -0.2179  0.1016  0.3655
28630W        W42044   7.566  13.167   4.370  0.3585 -0.0677 -0.2321
28631W        W42045   7.698  11.691   1.242 -0.2154  0.1898  0.0648
28632W        W42046   3.291   9.303  15.326 -0.0501  0.0578  0.1300
28633W        W42047   4.853  17.693  13.641 -0.1119 -0.2825  0.1265
28634W        W42048   5.169   4.128  11.250 -0.0479 -0.0563  0.2162
28635W        W42049   6.022   1.343   3.501 -0.1830 -0.0100  0.0120
28636W        W42050  13.136   0.426  12.694 -0.1954  0.1741  0.3222
28637W        W42051  11.811  15.999  10.961  0.1747 -0.0209 -0.0139
28638W        W42052  12.484  16.681   2.540 -0.1980  0.0111 -0.1361
28639W        W42053   1.587  17.875  14.703 -0.1962  0.1604 -0.3776
28640W        W42054   1.730  10.323   1.155  0.1491 -0.1373  0.1102
28641W        W42055  16.596   5.314  11.371 -0.4016  0.2558  0.1291
28642W        W42056   1.408  10.948   3.141  0.2280 -0.2375 -0.0142
28643W        W42057  13.574   8.842   3.486 -0.2061  0.1359 -0.1877
28644W        W42058  14.340  11.775  15.819 -0.1994  0.0221 -0.1842
28645W        W42059   5.696  16.311  12.337  0.1356 -0.0058 -0.2104
28646W        W42060   3.845   0.869  16.105 -0.0842 -0.1869  0.2036
28647W        W42061  13.483   5.183   4.999 -0.0287  0.0617 -0.1550
28648W        W42062   2.160  13.993   2.118  0.0732 -0.0226 -0.1402
28649W        W42063  17.756  12.300   5.179  0.2202 -0.2908 -0.1035
28650W        W42064  13.624   5.197   3.780 -0.0717  0.1460  0.0650
28651W        W42065   1.928   6.271   0.024 -0.2636 -0.0555 -0.0445
28652W        W42066   9.234   2.539   2.905 -0.0082  0.1040  0.3598
28653W        W42067  15.132  16.008   2.152  0.2139 -0.3334 -0.0832
28654W        W42068   6.202  10.587   4.079 -0.0292 -0.1516 -0.3323
28655W        W42069   2.987   8.874   5.963  0.0502  0.0076  0.0058
28656W        W42070   5.163  16.718  16.089  0.2203 -0.1381  0.1336
28657W        W42071   3.316  12.652  15.891 -0.0470 -0.1380  0.1934
28658W        W42072  11.740   2.025  15.050  0.2206 -0.1642  0.0332
28659W        W42073   0.197  11.715  14.994  0.2890 -0.1689  0.1529
28660W        W42074   7.680  14.423   2.843 -0.1329  0.2034 -0.1486
28661W        W42075   5.847   8.539  11.455 -0.1163 -0.1385 -0.1071
28662W        W42076   2.320   7.387   0.954  0.2172 -0.0564  0.1354
28663W        W42077  10.668   9.404  10.524  0.2611  0.2267  0.1654
28664W        W42078  15.732  11.548   5.609 -0.0114  0.1455  0.3502
28665W        W42079   2.835   8.300   5.600  0.1258  0.1863  0.1928
28666W        W42080  12.086  11.756  14.357  0.0264  0.2702 -0.3017
28667W        W42081   4.752   3.667  16.440  0.1642  0.2717 -0.1024
28668W        W42082   7.062  10.141   6.771 -0.2125  0.2258 -0.0094
28669W        W42083  17.567  12.349   4.580  0.0866 -0.2251  0.2324
28670W        W42084   9.164   4.732   1.735  0.1833  0.2062  0.2704
28671W        W42085  11.384  11.546  15.934  0.1707 -0.0428  0.0515
28672W        W42086   7.919   6.474   0.795 -0.0157 -0.0794  0.2318
28673W        W42087   6.485   7.344  12.978  0.2571 -0.1048  0.1383
28674W        W42088   2.276   5.625  10.645 -0.2862  0.2124 -0.2149
28675W        W42089   6.881   3.375   3.848 -0.0862 -0.1876  0.3917
28676W        W42090   0.669  15.432   5.464  0.1077 -0.2306 -0.1343
28677W        W42091   2.223  13.380   4.888  0.0561  0.2884 -0.0718
28678W        W42092   2.335  15.905   3.620  0.0243 -0.0002  0.1124
28679W        W42093   4.370   6.270  13.461  0.0500 -0.0759 -0.3133
28680W        W42094  14.595  14.743  13.580  0.5668 -0.0301 -0.2807
28681W        W42095  10.913  10.389   0.581  0.1316  0.3377  0.4393
28682W        W42096   0.481   1.327   0.784  0.0177 -0.3332 -0.3376
28683W        W42097  10.057   1.569   1.055  0.1595 -0.1385  0.0496
28684W        W42098   0.867  16.559   2.693 -0.0829  0.0236  0.3297
28685W        W42099   1.860   4.701  12.129 -0.1981 -0.1604 -0.0794
28686W        W42100   9.237  13.015   5.752  0.1101  0.2075  0.1371
28687W        W42101   2.138   4.217  11.507 -0.2166  0.0125  0.1884
28688W        W42102  14.969   1.412   5.851 -0.0436 -0.2265 -0.2012
28689W        W42103   8.777  10.456  11.059 -0.1436 -0.0851  0.3413
28690W        W42104   3.443  15.739   5.457  0.0750 -0.0170 -0.0371
28691W        W42105  16.609   8.412   2.182  0.0117 -0.0471 -0.0204
28692W        W42106  11.793  13.238  15.378  0.1044 -0.0051  0.1525
28693W        W42107  11.316  14.325   0.153 -0.2408  0.0390 -0.0260
28694W        W42108   5.993   8.159  11.113 -0.1959 -0.3582 -0.2188
28695W        W42109   8.675  11.778   1.138  0.0327 -0.2675  0.0062
28696W        W42110  15.844   8.929   2.435  0.0865  0.0907 -0.1172
28697W        W42111   5.021   5.372   4.208  0.0256  0.1256 -0.0235
28698W        W42112   0.303   0.812   4.311  0.0631  0.0596 -0.1590
28699W        W42113   2.198   9.020   1.585  0.1538  0.1190 -0.1879
28700W        W42114   0.923  13.741  16.199  0.0216 -0.1004  0.1609
28701W        W42115   4.690  17.518  12.178 -0.1564  0.1872 -0.1363
28702W        W42116  10.722  14.610  10.911  0.2029 -0.0694  0.0602
28703W        W42117   0.385   8.850   4.211 -0.4103 -0.1226 -0.0540
28704W        W42118   4.231   2.991  13.607 -0.1573 -0.1653 -0.3458
28705W        W42119  12.223   1.409   3.774 -0.2446 -0.2691  0.1967
28706W        W42120  16.074  14.656  11.542 -0.3016 -0.0438 -0.1405
28707W        W42121  16.882  17.710  11.769  0.1632 -0.1315  0.0563
28708W        W42122   2.837  14.774   0.255  0.2497  0.0766 -0.0377
28709W        W42123  12.753   2.984   1.781 -0.1779 -0.1699 -0.1463
28710W        W42124   3.461  14.672   3.070  0.1169 -0.1560 -0.2421
28711W        W42125   9.883  11.384  15.778 -0.2120 -0.2081 -0.2922
28712W        W42126  10.319   0.870   1.502 -0.0389  0.3484  0.2286
28713W        W42127  10.692   5.141   4.988  0.1903  0.1552  0.2877
28714W        W42128  11.411   4.951  11.004 -0.0029  0.0574 -0.1710
28715W        W42129  10.684  12.850  11.725  0.1467 -0.2646  0.0828
28716W        W42130   4.451  14.586   3.033  0.0333  0.0558 -0.0928
28717W        W42131   9.178   7.812  10.998 -0.2687  0.0170 -0.0729
28718W        W42132  13.296   9.498   2.223  0.1726  0.1562  0.0247
28719W        W42133  15.083  12.386   4.481 -0.0296 -0.1378 -0.0344
28720W        W42134   5.668  10.104   1.201 -0.0666  0.0227 -0.0856
28721W        W42135   2.072   3.767   0.646 -0.0946 -0.0264  0.2214
28722W        W42136   4.928   2.438  11.582  0.2146  0.5764  0.0143
28723W        W42137   8.420   8.873   4.099  0.0642 -0.1195  0.1018
28724W        W42138  13.870  16.166  15.484  0.2112 -0.0497  0.2971
28725W        W42139  10.485   5.210  11.631  0.0327  0.0051 -0.0135
28726W        W42140  14.072   2.698   4.352  0.0516 -0.0427  0.0460
28727W        W42141  16.534   9.120   5.769 -0.2432 -0.1520  0.2256
28728W        W42142   6.120   4.390   3.301 -0.3494 -0.0563  0.3760
28729W        W42143  14.758  14.989   1.900  0.0380 -0.0062 -0.4662
28730W        W42144  17.843   0.144   1.367  0.2323 -0.3758  0.1657
28731W        W42145   3.952  15.899  13.892  0.0574  0.0950  0.1527
28732W        W42146   7.317   2.075  15.020  0.0290  0.0658 -0.1836
28733W        W42147   3.144  17.778   4.552 -0.1888 -0.1860  0.0672
28734W        W42148  11.249  17.265   5.453  0.3141 -0.1480  0.0115
28735W        W42149   9.655   6.858   2.180  0.1463  0.0014  0.1661
28736W        W42150  13.078  14.493  10.685 -0.0504 -0.1105  0.0939
28737W        W42151  16.409   7.807   4.043 -0.0798  0.4669  0.1721
28738W        W42152   9.799  16.468  14.792  0.2485  0.2947 -0.1295
28739W        W42153  15.994   6.295  15.390 -0.2022 -0.1574 -0.1347
28740W        W42154   2.257   7.193   4.979  0.0440  0.2096  0.1183
28741W        W42155   3.032  11.259   3.675 -0.0018  0.0008 -0.0031
28742W        W42156   1.531   9.194  12.762 -0.2493 -0.0688  0.1574
28743W        W42157  10.112  14.545   2.509  0.1604  0.2432  0.2587
28744W        W42158  17.121   4.771  13.997 -0.0775 -0.0740 -0.0196
28745W        W42159   4.080   7.150  15.869  0.2598  0.3096 -0.2561
28746W        W42160  14.220  15.013   5.904 -0.0535  0.3369  0.3471
28747W        W42161   6.832  11.491   2.399 -0.0088  0.1904  0.0653
28748W        W42162   8.640   6.172  15.937  0.1359  0.0182  0.0396
28749W        W42163   4.333  13.145  12.175 -0.2078 -0.1514 -0.1555
28750W        W42164   3.196  13.230   1.737  0.0797 -0.1788  0.2398
28751W        W42165  15.074  15.085  14.824 -0.0400 -0.1775  0.2267
28752W        W42166  17.296   2.621   0.129 -0.0937 -0.1093 -0.0615
28753W        W42167   6.469   5.883  11.029  0.3851 -0.1511 -0.3801
28754W        W42168   8.637   5.914   1.972  0.2969 -0.2120 -0.3600
28755W        W42169  11.381   6.309   5.216 -0.1551 -0.3302  0.0029
28756W        W42170  10.250   0.467  13.206  0.0804 -0.2152 -0.1842
28757W        W42171   6.294  14.954   0.627 -0.1280 -0.0472  0.0759
28758W        W42172  16.031  15.268  12.531  0.0065 -0.0033  0.0374
28759W        W42173   4.464  15.432  16.074 -0.2167  0.2940  0.1491
28760W        W42174   6.464  17.772   4.336  0.1279  0.0927 -0.4106
28761W        W42175  15.038  11.865   4.368 -0.2671 -0.1738 -0.1150
28762W        W42176   8.746  10.453   4.659  0.1974 -0.0961  0.3757
28763W        W42177   1.674   4.439   5.323 -0.1601  0.0941  0.3037
28764W        W42178   3.466  15.584   4.111 -0.1911  0.1134 -0.1351
28765W        W42179   6.081  11.128   2.306  0.1565  0.1727  0.2844
28766W        W42180   3.061   9.406  14.905 -0.0603 -0.0746 -0.0333
28767W        W42181  10.797   1.447   4.984 -0.2071  0.2217  0.1543
28768W        W42182   8.253  10.956  11.446  0.4036 -0.0602 -0.0774
28769W        W42183  10.112   1.270   0.616 -0.0324  0.4022  0.0507
28770W        W42184   9.992   2.062  10.945 -0.0665 -0.0289 -0.2671
28771W        W42185   2.169   3.492   5.369 -0.2033  0.1071 -0.0960
28772W        W42186   9.907   9.161   1.795  0.1776 -0.1316 -0.5023
28773W        W42187  17.538   2.297   5.337 -0.0688 -0.2622  0.1949
28774W        W42188  17.249   0.250   5.410 -0.0491 -0.1312 -0.4344
28775W        W42189  10.536  16.450   0.663  0.0921  0.1556 -0.0687
28776W        W42190  14.969   4.734  15.614  0.2147 -0.0819 -0.0644
28777W        W42191  15.781   7.309   1.409  0.1500 -0.0531  0.0873
28778W        W42192   5.737  18.013  11.715  0.0552  0.0643 -0.0229
28779W        W42193   6.758   4.476  14.458  0.1199  0.0763  0.0884
28780W        W42194   9.757  13.891   3.635  0.1466  0.1467  0.1855
28781W        W42195  14.094   2.408  14.024  0.0517 -0.4577 -0.6497
28782W        W42196   4.070  14.473  14.620  0.0004 -0.0954 -0.1161
28783W        W42197   5.021  18.170   5.481 -0.1288 -0.0955 -0.0419
28784W        W42198  18.171   0.107   6.153  0.1064 -0.0053  0.0107
28785W        W42199  15.435  14.348  15.920 -0.1523 -0.1877  0.1733
28786W        W42200  11.532  12.397  15.866 -0.0182  0.1534  0.0096
28787W        W42201  13.950  14.931   1.172 -0.0788  0.2715 -0.1750
28788W        W42202   6.757  13.028   1.261  0.4358 -0.0691 -0.0167
28789W        W42203   5.427   8.587  13.157  0.0603 -0.0126  0.0132
28790W        W42204  16.290  16.417   1.320 -0.1124 -0.1833 -0.1686
28791W        W42205   1.807   0.028   2.800  0.2832  0.1062 -0.0325
28792W        W42206  11.971   5.399  10.837 -0.0480 -0.4462  0.2473
28793W        W42207   7.794   1.432  11.954  0.0476 -0.1453  0.0943
28794W        W42208  12.322  17.007   5.788 -0.2275 -0.1023 -0.0558
28795W        W42209   4.667  14.763   4.426 -0.1954  0.2557  0.0416
28796W        W42210  16.286   8.979   2.693  0.3182 -0.2203 -0.1822
28797W        W42211   6.591  10.297  15.845 -0.1782  0.1131 -0.1319
28798W        W42212   3.026  12.182   4.339 -0.0044  0.0647  0.1702
28799W        W42213  10.241   9.049   5.425 -0.0062 -0.0737  0.1969
28800W        W42214   4.071  16.075  15.319  0.2701 -0.3349 -0.1291
28801W        W42215   9.139   4.327   1.372  0.0205  0.1149  0.1070
28802W        W42216  14.274  15.167   3.915  0.1907  0.1642  0.2314
28803W        W42217   5.145  16.159  15.395  0.0158 -0.1583  0.2612
28804W        W42218   6.336   8.178   5.178  0.1413 -0.2034  0.2169
28805W        W42219  11.913   5.151  11.281  0.0244  0.3599 -0.1134
28806W        W42220  17.441  15.226  13.131 -0.0741  0.1751 -0.2497
28807W        W42221   9.452  14.122   2.946  0.0513  0.0149 -0.2661
28808W        W42222  17.049  13.096  11.173 -0.0630  0.0346 -0.1119
28809W        W42223  11.877   9.605  16.089  0.1180 -0.1785 -0.2286
28810W        W42224   6.222   1.342  13.841  0.0607 -0.1278 -0.3111
28811W        W42225  15.636  13.970  12.226  0.0518  0.0857 -0.2098
28812W        W42226   5.986  13.819   6.407 -0.1150  0.1220  0.1088
28813W        W42227  10.898   0.642   4.987  0.2532 -0.0098 -0.1473
28814W        W42228   2.312   9.524  12.535 -0.0803 -0.0930  0.0577
28815W        W42229  17.792   3.033  16.026  0.2782  0.1027  0.1606
28816W        W42230  16.137   2.122   5.164  0.0666  0.0965  0.0388
28817W        W42231   2.893  15.708   0.670 -0.1778 -0.0442  0.2214
28818W        W42232   1.909   3.866   0.066 -0.0513  0.0294  0.0221
28819W        W42233   3.328  16.564   5.845 -0.0200 -0.2506 -0.0956
28820W        W42234  11.430  14.145  12.085  0.2203  0.2552  0.0804
28821W        W42235   6.972  16.374  12.705  0.2402  0.1355 -0.0153
28822W        W42236   8.318  10.870  16.192  0.0733 -0.0767  0.0775
28823W        W42237  13.732  15.195  11.464  0.3194 -0.1557  0.2690
28824W        W42238   7.504   9.535   1.343 -0.0021  0.1455 -0.0177
28825W        W42239   3.827  17.104  13.248  0.0019 -0.1221  0.1423
28826W        W42240  18.130  15.971  14.128  0.0296  0.4410 -0.3763
28827W        W42241   2.628   2.906   1.662 -0.3130  0.0669  0.1470
28828W        W42242   5.293   5.595   3.575 -0.0175 -0.3347  0.0246
28829W        W42243   6.772   6.153  15.159  0.1870  0.1883  0.2090
28830W        W42244   4.909   0.346   1.523 -0.2275 -0.0590  0.1138
28831W        W42245  11.969   2.394  16.363  0.0716  0.1815 -0.2564
28832W        W42246  11.724  13.243   5.473  0.0383  0.2044 -0.0816
28833W        W42247   7.420   0.133  16.316  0.1738 -0.1280 -0.0375
28834W        W42248  16.511  12.718   1.825 -0.1639  0.1303  0.2383
28835W        W42249  18.010  12.590   1.056  0.0022 -0.0610 -0.0694
28836W        W42250   8.563  12.737   3.377 -0.1158  0.0036 -0.1663
28837W        W42251  14.417  14.565   5.719  0.0287  0.0671 -0.0212
28838W        W42252  12.497   9.975  10.208  0.1627  0.1202  0.0048
28839W        W42253  14.733   4.417   2.728 -0.2752  0.2793  0.0993
28840W        W42254   6.147   3.763  15.529 -0.1792  0.2098 -0.0459
28841W        W42255  17.378   7.349  14.166  0.1398  0.1864 -0.0387
28842W        W42256   5.894  15.588  15.379 -0.0546 -0.0308 -0.1434
28843W        W42257   8.601  12.361   5.203  0.2183  0.0151  0.0491
28844W        W42258   8.646   8.297   2.860  0.1770  0.0874  0.0319
28845W        W42259  15.739   7.056  14.682  0.1318  0.3308 -0.1595
28846W        W42260  10.711   9.203   5.410 -0.0004 -0.2843 -0.6084
28847W        W42261   5.578  11.395  14.609 -0.0999  0.0455 -0.1510
28848W        W42262  17.743   4.099   4.704 -0.2069 -0.5145  0.0979
28849W        W42263   2.246   1.823   6.066 -0.0324 -0.0844 -0.2898
28850W        W42264   8.488   0.048   3.659  0.4032  0.2393  0.3449
28851W        W42265   5.218   5.098  10.906  0.0812 -0.1437  0.3745
28852W        W42266  17.021  18.076  10.490  0.0570 -0.1518  0.3557
28853W        W42267   4.717   9.199  10.558 -0.2458  0.2632 -0.0523
28854W        W42268   8.255  18.003  12.504  0.1064  0.1237 -0.1421
28855W        W42269  12.967   6.937  10.714  0.0361 -0.1893  0.1086
28856W        W42270  13.010  12.739   1.197  0.1830  0.1283 -0.1290
28857W        W42271  10.477   3.545  11.445 -0.1003  0.0215 -0.2125
28858W        W42272  17.855  11.486   4.498 -0.0356 -0.3047  0.1389
28859W        W42273  11.967  10.993  15.178  0.1888 -0.1894  0.1496
28860W        W42274  11.156  13.286   4.791 -0.4422  0.2574 -0.0837
28861W        W42275   8.618  10.090   0.615 -0.2494  0.4772 -0.2447
28862W        W42276  16.503   1.411   3.963 -0.2392 -0.0537  0.1174
28863W        W42277  11.753  10.278   3.837 -0.3254  0.2158  0.2309
28864W        W42278  10.175   8.953  15.675  0.2141 -0.0768  0.0039
28865W        W42279   0.689   6.448   5.236  0.0904  0.0810  0.3058
28866W        W42280   0.657  14.278  15.052 -0.0845  0.0377 -0.2153
28867W        W42281   6.780   4.202   0.649 -0.0389 -0.0527 -0.0208
28868W        W42282   3.134  11.978   0.519 -0.2730 -0.1457 -0.4855
28869W        W42283  16.124  13.845   2.166  0.0546 -0.0522  0.2580
28870W        W42284  12.707  15.634  12.239  0.1218 -0.1031  0.0189
28871W        W42285   0.273   0.826   2.575 -0.1450  0.0796 -0.2194
28872W        W42286   7.353   4.238   5.077 -0.5036  0.1545  0.1688
28873W        W42287   2.917  11.594  15.571 -0.2058 -0.3237 -0.0417
28874W        W42288  10.167  13.257  15.221 -0.0398  0.2556 -0.0939
28875W        W42289  14.564   1.561   1.193 -0.0623 -0.1122  0.1813
28876W        W42290  16.497   0.980  11.405 -0.1475  0.0415  0.1317
28877W        W42291  16.160  11.657   2.526 -0.2022 -0.3143  0.2730
28878W        W42292   7.399  12.636   1.885  0.1878  0.6027  0.0454
28879W        W42293   3.919  18.078  15.905  0.1444  0.1665 -0.3875
28880W        W42294  18.153   1.349  10.947 -0.1608 -0.1125 -0.0211
28881W        W42295  17.102   7.990   1.701  0.1906  0.0410 -0.0421
28882W        W42296   3.030  10.262  12.760  0.2340  0.0696 -0.1396
28883W        W42297   6.478  15.810   0.757 -0.2120  0.1252 -0.0645
28884W        W42298   6.131  16.196   2.085 -0.1751  0.0204  0.2714
28885W        W42299  10.421  12.405  10.944 -0.1200  0.0573 -0.2346
28886W        W42300   9.243   6.279  14.936  0.0114  0.0602 -0.0624
28887W        W42301   6.939  17.239  13.068  0.0707 -0.0187  0.0752
28888W        W42302   4.473   3.674  11.730  0.0164  0.1119 -0.0780
28889W        W42303   2.083  14.731  11.481  0.1882  0.0211  0.0083
28890W        W42304  17.524   2.186   2.454  0.0473 -0.0436 -0.0688
28891W        W42305   6.366   9.919   3.253  0.1777  0.1323 -0.1182
28892W        W42306  11.899   0.811  13.808  0.0795 -0.2352 -0.0266
28893W        W42307  14.748   0.302  13.672  0.1387  0.0146 -0.0013
28894W        W42308  15.207  12.523   1.253  0.0016 -0.0704  0.0920
28895W        W42309  10.833   7.464   0.608  0.0826  0.0347 -0.2410
28896W        W42310   6.294  17.542   3.932  0.0017  0.1322  0.4166
28897W        W42311   1.733   1.177  15.858 -0.0678 -0.2118  0.1343
28898W        W42312  16.282   4.153   5.029  0.0690  0.1643 -0.2122
28899W        W42313   6.737  13.034  13.687  0.1046 -0.3417  0.0144
28900W        W42314   0.738   5.618  14.707  0.0591 -0.1237  0.0754
28901W        W42315   8.808  13.351  15.772  0.1356 -0.1955 -0.2081
28902W        W42316   4.327  13.586  14.753 -0.0017  0.0407 -0.0284
28903W        W42317  16.098   4.119  12.486  0.0852  0.0123  0.0714
28904W        W42318   7.287   4.883   2.530  0.0321 -0.1244  0.1876
28905W        W42319  15.476   3.084  16.440  0.2479 -0.1788 -0.1216
28906W        W42320  17.265  14.058   4.723 -0.1108  0.4406 -0.0016
28907W        W42321  10.027   8.304  12.204  0.0446  0.2553 -0.3006
28908W        W42322  15.754  17.291  13.745 -0.0621  0.1110 -0.1030
28909W        W42323  15.174  10.636  15.438  0.1012 -0.3882 -0.0113
28910W        W42324  14.453   1.056   1.308  0.2874  0.0251  0.1877
28911W        W42325  16.390  17.314   6.517  0.1309 -0.0710 -0.0722
28912W        W42326   4.805   6.111   2.325  0.0289 -0.0671  0.1384
28913W        W42327  16.888   1.466  14.001  0.0216  0.3181 -0.1045
28914W        W42328  12.664   1.903   1.035 -0.0054  0.2670  0.0438
28915W        W42329   3.075   6.940   1.788  0.0661 -0.2206 -0.1150
28916W        W42330  15.134   4.946   4.161 -0.1865  0.3021  0.1647
28917W        W42331   3.581  16.666   2.132  0.2463 -0.2621 -0.1964
28918W        W42332   3.944  14.305  11.517  0.1449 -0.1071 -0.0025
28919W        W42333  11.281  10.692  14.472  0.1605  0.2148 -0.0579
28920W        W42334   0.172   5.428  10.109 -0.1908  0.0263 -0.0542
28921W        W42335   8.894  17.254  13.148 -0.0141  0.2118 -0.0564
28922W        W42336  14.285  11.252   0.725  0.2808 -0.1291 -0.0868
28923W        W42337  11.181   4.286   1.947  0.0998 -0.1137 -0.0514
28924W        W42338  15.360  12.059   1.456  0.3780  0.2370 -0.0100
28925W        W42339   8.583  15.017   2.180  0.1196 -0.1419 -0.1037
28926W        W42340   4.815   7.912  15.717 -0.1208  0.0819  0.1485
28927W        W42341  18.182   0.423  10.403  0.0577 -0.2783  0.1978
28928W        W42342  16.741   5.275  14.935 -0.0834 -0.0181  0.2307
28929W        W42343  15.879   9.894  10.913  0.0102  0.0124  0.0707
28930W        W42344  10.294  10.263  16.283  0.0062  0.0389 -0.0219
28931W        W42345   9.067   4.174   2.545 -0.0648  0.1936 -0.2232
28932W        W42346  13.522  15.963  13.599 -0.0276  0.1225 -0.2594
28933W        W42347   0.588  16.824  13.143 -0.0592 -0.0180  0.1594
28934W        W42348   9.687  13.004   1.864 -0.0417  0.1290  0.0106
28935W        W42349   6.883   7.515  11.363  0.1292 -0.0023  0.1716
28936W        W42350   3.856  18.209  11.767  0.0826 -0.0928 -0.1005
28937W        W42351   2.124   4.035   2.818  0.0296 -0.0540 -0.1927
28938W        W42352   4.115   2.519  13.502  0.0234  0.4085  0.1896
28939W        W42353   3.159  13.398  12.794 -0.3180  0.1152  0.0525
28940W        W42354   9.905  11.141  14.429  0.0648  0.0689 -0.1923
28941W        W42355  10.739   8.250   2.936  0.0826 -0.0690  0.1533
28942W        W42356  10.962  12.042  11.057  0.1852  0.2464  0.2072
28943W        W42357   1.668   8.298   3.012 -0.1519 -0.1040 -0.1997
28944W        W42358  14.278   8.075   3.293 -0.1423  0.1351  0.1111
28945W        W42359   6.679  10.584   5.370 -0.1306 -0.0605 -0.2828
28946W        W42360   9.018  17.457   2.452  0.1186 -0.1214 -0.0695
28947W        W42361   1.713  12.361   3.777  0.0355 -0.4614 -0.1801
28948W        W42362   2.204   0.552  15.695  0.1426 -0.3068  0.1037
28949W        W42363  14.458   8.756   4.951 -0.4909 -0.1267  0.2625
28950W        W42364   9.183   7.254  10.829 -0.4155  0.0367  0.0259
28951W        W42365  17.201   0.799  13.769  0.0543 -0.0510 -0.1262
28952W        W42366   2.395   3.192  15.952  0.0088 -0.0522 -0.1255
28953W        W42367  16.206  17.790   1.782 -0.0332 -0.0730 -0.1701
28954W        W42368   3.205   2.553   2.268 -0.0275 -0.2062  0.0668
28955W        W42369  15.876  11.236  15.038  0.1157  0.0429 -0.1734
28956W        W42370  10.088   2.932  12.655 -0.1053  0.2919  0.0584
28957W        W42371  17.935   7.248  10.308  0.2001 -0.0978  0.1126
28958W        W42372  16.562  12.507   3.413  0.2396  0.4443  0.1616
28959W        W42373   6.622   5.355   1.446  0.0293 -0.2172  0.0025
28960W        W42374  14.655   6.466  12.233 -0.1029 -0.0287  0.2195
28961W        W42375  12.802  14.116  11.069  0.1678 -0.2181  0.1644
28962W        W42376   2.122  12.841  16.126 -0.3237 -0.1102  0.1313
28963W        W42377  12.421  16.819  14.973 -0.0859  0.0481  0.1137
28964W        W42378   7.554   9.888   6.073  0.1553 -0.0268 -0.1988
28965W        W42379  17.583   6.274  11.742  0.1048 -0.0468  0.1813
28966W        W42380   7.124  15.699   0.074  0.1044  0.0168 -0.0480
28967W        W42381   1.271   2.797  15.595  0.1088 -0.1358  0.0514
28968W        W42382  15.528  10.372  10.852 -0.1013  0.0607 -0.0799
28969W        W42383  15.555   6.522  15.371 -0.1901  0.2079 -0.0789
28970W        W42384  17.131   9.807   5.663 -0.2356  0.1666 -0.0624
28971W        W42385   8.406  16.509  14.862 -0.3634 -0.0794 -0.0800
28972W        W42386  14.714  13.430   2.075  0.1622 -0.1879  0.1470
28973W        W42387   9.404  15.214   2.902  0.2135 -0.0525 -0.4344
28974W        W42388   9.709   9.579   0.171  0.0422 -0.0073 -0.1661
28975W        W42389   8.457   2.929  11.308 -0.0600 -0.2181  0.1775
28976W        W42390  14.458   9.120  15.824  0.0535  0.2085  0.0116
28977W        W42391   5.294   3.083   1.740 -0.1421 -0.1046  0.2459
28978W        W42392  11.741   6.094  12.186 -0.2609 -0.0843  0.0666
28979W        W42393  16.144  13.486  13.324  0.0783 -0.1100  0.1116
28980W        W42394   0.178   4.674   4.267  0.1321 -0.1396  0.1811
28981W        W42395   9.378   2.908  13.659 -0.0610  0.0188  0.0251
28982W        W42396  17.511  10.701   4.173  0.3010  0.2369 -0.0900
28983W        W42397   0.410   2.652   0.947 -0.0375  0.0486 -0.1687
28984W        W42398   6.562  13.019  15.385 -0.1780 -0.0874  0.1597
28985W        W42399   1.032   6.493   0.290 -0.0715 -0.0070 -0.0508
28986W        W42400  12.216  16.660  11.458 -0.1997 -0.0515  0.1246
28987W        W42401   4.739  17.068   0.312 -0.0246  0.2381  0.0006
28988W        W42402  18.229  11.626   2.106 -0.1705  0.1417  0.0689
28989W        W42403  13.667  15.292   0.948 -0.1910  0.1878  0.2897
28990W        W42404   7.956  11.950  15.559 -0.0199 -0.0344 -0.0895
28991W        W42405   3.770   4.783  12.619 -0.1144  0.0410 -0.1849
28992W        W42406  13.895   0.942  11.042  0.1088 -0.0199 -0.0277
28993W        W42407  16.728   9.508  15.766  0.0404 -0.3529  0.2461
28994W        W42408  12.499  12.895  12.494 -0.0875  0.1397 -0.0469
28995W        W42409  14.410   3.967   2.079 -0.2069 -0.0778  0.1126
28996W        W42410  15.271   0.700   2.723  0.0157 -0.0488 -0.3979
28997W        W42411   9.059   4.875  11.093  0.1259 -0.2619 -0.0330
28998W        W42412   5.891   9.674   1.608 -0.1157  0.0272  0.2248
28999W        W42413   0.693   0.057   2.917  0.1483 -0.1657 -0.0911
29000W        W42414   6.032   0.338   4.531 -0.0055 -0.3932  0.1013
29001W        W42415  11.523   7.060  12.035 -0.2346  0.0201  0.1581
29002W        W42416   1.233  10.907  13.448  0.0667 -0.1303  0.0762
29003W        W42417   5.087   8.330   3.593  0.3392  0.0316 -0.0363
29004W        W42418   9.732   7.676   2.213  0.0820 -0.5144 -0.2184
29005W        W42419  15.066   5.722   3.467 -0.0023 -0.1703  0.1436
29006W        W42420   1.585   3.665  16.072 -0.1050  0.0186 -0.0982
29007W        W42421  17.239  17.176   5.949 -0.1593 -0.0735 -0.1051
29008W        W42422   1.834  10.331   4.376  0.0124 -0.2968 -0.1834
29009W        W42423  15.588  17.801   3.462 -0.3683  0.3405  0.1912
29010W        W42424   2.226  14.426  12.628  0.0798  0.0206 -0.0229
29011W        W42425   9.838   2.108   1.180  0.4565 -0.1429  0.1649
29012W        W42426  13.234   2.457  11.531 -0.0395 -0.2915 -0.1831
29013W        W42427  10.311   4.625   2.976 -0.1035  0.2134 -0.2420
29014W        W42428   2.587  17.099  12.114 -0.0032 -0.0386  0.3686
29015W        W42429   7.085  13.066  11.186 -0.1835 -0.0054 -0.2783
29016W        W42430   2.007   8.779  11.419 -0.0780  0.0139  0.1409
29017W        W42431  10.633   0.449  11.323  0.0158  0.1572  0.2143
29018W        W42432   6.220  14.581   0.973  0.2586 -0.2186  0.4279
29019W        W42433   4.904  13.269  16.389  0.1246  0.1508  0.2480
29020W        W42434  12.069   1.539  11.276  0.0620  0.0665  0.0055
29021W        W42435   4.017   8.808  12.796 -0.0644 -0.0221 -0.1307
29022W        W42436  14.710   9.107  11.153 -0.2670 -0.0885  0.0589
29023W        W42437  13.549  10.167  14.071  0.2063  0.0021 -0.2292
29024W        W42438   4.442  12.332   0.764 -0.3109 -0.2360 -0.3879
29025W        W42439   8.696   7.085  12.305 -0.0581 -0.1118  0.1052
29026W        W42440   3.827   7.439   4.377  0.2297 -0.0369 -0.1863
29027W        W42441   6.162  14.566  11.633  0.2299  0.1217  0.1229
29028W        W42442   2.804   0.330   4.744 -0.1052  0.0464  0.2187
29029W        W42443  11.783  12.095   3.736 -0.0404 -0.3659  0.1079
29030W        W42444  16.559  12.291  13.877  0.0919  0.0631 -0.3004
29031W        W42445   1.088   7.284   1.242  0.1575 -0.1067 -0.1009
29032W        W42446   3.292   3.799   0.281 -0.1745 -0.1422 -0.2544
29033W        W42447   8.757  16.088   2.522 -0.0205  0.0156  0.4099
29034W        W42448  11.902  10.688   1.937  0.2388 -0.2679  0.1618
29035W        W42449  10.017   9.614   3.428  0.0363  0.0171 -0.0564
29036W        W42450   7.327   6.968   1.355 -0.1188 -0.3006 -0.1103
29037W        W42451  14.889  16.491   0.276  0.1261  0.3048 -0.0488
29038W        W42452   3.130   8.367  12.553 -0.0650  0.0570 -0.2097
29039W        W42453  15.387   4.927  11.511  0.1302  0.0559  0.0611
29040W        W42454  17.769   8.543  14.430 -0.0633 -0.0682  0.2752
29041W        W42455   8.399   7.467   6.089  0.0022 -0.1968 -0.1709
29042W        W42456   8.200   3.275   2.095  0.1848 -0.0776  0.2595
29043W        W42457  11.444  14.162  13.931  0.3788  0.1078 -0.1035
29044W        W42458   1.832   8.809  14.577  0.1520 -0.3623 -0.1996
29045W        W42459  16.558   9.976   5.644  0.0761  0.0331 -0.0097
29046W        W42460  11.107  17.112  14.329 -0.0391  0.1504  0.1694
29047W        W42461  16.699  12.504   0.923  0.2330 -0.0111 -0.2181
29048W        W42462   3.769   8.696  13.658  0.1322  0.1106  0.2019
29049W        W42463   1.926   4.158  10.004 -0.0257  0.1124 -0.2681
29050W        W42464   3.903  11.548   4.335 -0.1338 -0.0348 -0.0836
29051W        W42465   2.026   1.573  13.122  0.1001 -0.1634  0.0850
29052W        W42466   0.259  14.149   3.986  0.1458  0.2323  0.1294
29053W        W42467  11.376  14.546  14.260 -0.1092 -0.0804  0.1459
29054W        W42468   4.505  13.922   5.447  0.0143 -0.1520 -0.2339
29055W        W42469   5.679  15.206  15.044 -0.1363  0.3140  0.2169
29056W        W42470  11.980   9.511   3.165 -0.0132  0.0969 -0.0781
29057W        W42471   5.774  13.694  14.410  0.0407  0.1862  0.0411
29058W        W42472   7.771  14.862   3.796  0.2615  0.0663  0.1174
29059W        W42473  16.869   4.480   3.834 -0.0685  0.1139  0.0445
29060W        W42474   4.956   8.371  11.559  0.1484  0.1382 -0.1427
29061W        W42475   2.801  15.961  11.596  0.4182 -0.0539 -0.2343
29062W        W42476   4.991   5.430  14.444 -0.0043  0.1526 -0.0365
29063W        W42477   0.254   5.859  14.884 -0.2784 -0.1847  0.0628
29064W        W42478  14.078  11.833   1.424 -0.1240 -0.2400 -0.1400
29065W        W42479   5.006  12.884  11.558  0.0755  0.1020  0.0435
29066W        W42480   6.016  16.612  12.569 -0.3716  0.0591 -0.1377
29067W        W42481  15.109  11.899  12.458  0.1802 -0.0696 -0.1224
29068W        W42482   2.705  11.325   2.892 -0.0746  0.1880  0.0007
29069W        W42483  16.659   0.986  12.855 -0.2069 -0.0400  0.0427
29070W        W42484   6.199  17.193  10.580  0.1100 -0.0104  0.1131
29071W        W42485   5.873  13.169   5.127  0.0135  0.1761 -0.0284
29072W        W42486   4.239  15.781  14.932  0.1071 -0.1208 -0.2558
29073W        W42487   0.872   6.528  14.604  0.3194  0.2762 -0.2332
29074W        W42488   8.132  12.794  11.071 -0.1295  0.2738  0.0361
29075W        W42489   3.778   6.783  16.003  0.1221  0.0703 -0.3687
29076W        W42490  14.414  10.444   0.722 -0.1564 -0.0558  0.2068
29077W        W42491  12.674  11.990   4.143  0.1074  0.0096 -0.1052
29078W        W42492   3.688   9.232   0.024  0.1211  0.4431  0.0347
29079W        W42493   7.634  15.293  12.952 -0.1732  0.0308 -0.1679
29080W        W42494   7.278  13.848  12.755  0.0149  0.2414 -0.2312
29081W        W42495  12.560  11.015  11.787  0.0655 -0.2399  0.1820
29082W        W42496   6.985   1.176   5.942  0.5346 -0.1736 -0.1403
29083W        W42497   8.898   5.090   0.962 -0.1805 -0.1875 -0.0074
29084W        W42498  14.693   1.091  11.753  0.0445  0.2514  0.0038
29085W        W42499  15.095  10.957  13.274 -0.4151  0.0530  0.0481
29086W        W42500   0.132   5.323  11.437 -0.0450  0.0726  0.1776
29087W        W42501  10.233  11.770  12.456 -0.0323 -0.0483  0.1421
29088W        W42502  12.015  12.686  10.671 -0.3027 -0.0066 -0.0145
29089W        W42503   1.885   6.383  13.438  0.1197 -0.2445  0.0495
29090W        W42504   3.699   4.494  10.385  0.0357  0.1265 -0.0599
29091W        W42505   9.112  15.433  15.554 -0.1988 -0.0672  0.2262
29092W        W42506   6.578   0.179   5.351  0.0397  0.0712 -0.0033
29093W        W42507   4.227   5.166  11.317  0.1641  0.7335 -0.3150
29094W        W42508   2.363  15.008   0.098  0.1322 -0.2151  0.0111
29095W        W42509  16.928   0.866   5.240  0.1164 -0.0747  0.0031
29096W        W42510   7.091  17.817  14.418 -0.1236 -0.0639  0.1211
29097W        W42511   6.653  10.658  10.626  0.1983 -0.2325 -0.0781
29098W        W42512   4.403   5.665  13.844  0.0233  0.0236  0.1045
29099W        W42513  11.211   3.595  11.882  0.0752 -0.0189  0.0901
29100W        W42514   4.323  17.202   1.775  0.0513 -0.4434 -0.0143
29101W        W42515   1.830   4.642   9.917  0.0993 -0.0300 -0.1075
29102W        W42516   0.041   1.543   5.147 -0.0541 -0.0698  0.2713
29103W        W42517  11.268   2.888   5.671 -0.1026  0.1910  0.1038
29104W        W42518   1.618  14.461  14.131 -0.2956  0.0774 -0.0710
29105W        W42519   3.352  13.001   0.326  0.1356 -0.2269  0.0434
29106W        W42520   5.514   7.205  15.887 -0.1189 -0.0466  0.2706
29107W        W42521   7.136  12.347  15.612 -0.0388  0.1261 -0.3082
29108W        W42522   8.658   1.425   1.985  0.0258 -0.1338  0.4168
29109W        W42523   0.049   2.374  11.295  0.2330  0.3119 -0.2659
29110W        W42524   4.008   7.609   4.962  0.3357  0.0618  0.1483
29111W        W42525   8.747  15.126  12.271 -0.0790 -0.0088  0.1723
29112W        W42526  14.971  12.378  16.496  0.1246  0.0298  0.1320
29113W        W42527   6.118   0.615  15.884  0.1018 -0.4215  0.1051
29114W        W42528   6.781  12.455   0.451 -0.0242  0.2898 -0.1475
29115W        W42529  10.111  12.156  14.433 -0.4040  0.1023 -0.0635
29116W        W42530   3.489   3.974   0.700  0.0079  0.0192 -0.0872
29117W        W42531   5.848  16.140  14.905 -0.2481 -0.1577 -0.0285
29118W        W42532  10.035  12.293  13.792  0.2176 -0.1096 -0.0050
29119W        W42533   4.550   0.922  15.072  0.1371  0.0917 -0.1864
29120W        W42534   3.439   4.292   1.288 -0.1631 -0.1054  0.1413
29121W        W42535   5.810   2.326  14.410  0.2260 -0.2996 -0.3673
29122W        W42536  17.235   7.248   1.259 -0.0903  0.0359 -0.0420
29123W        W42537  11.499   1.655  16.257 -0.2089  0.0197  0.2127
29124W        W42538  17.668   0.779   2.272  0.1103  0.0968 -0.0912
29125W        W42539  14.833  14.681  11.388 -0.2299  0.0034 -0.2266
29126W        W42540   7.814  12.891   2.993  0.1872  0.0809  0.2014
29127W        W42541  12.990  15.845   1.984  0.1443 -0.0766 -0.0383
29128W        W42542  10.573   3.117  12.891 -0.0457 -0.5162  0.2243
29129W        W42543  12.163  16.422   4.080 -0.0943  0.0850  0.0878
29130W        W42544   1.488  14.126   6.127  0.0573 -0.2346 -0.2940
29131W        W42545   9.308   4.793  16.332  0.0606 -0.2056  0.1857
29132W        W42546  16.342   8.481   0.249 -0.1957  0.1858  0.0488
29133W        W42547   4.424  13.309  15.146  0.1911 -0.0308  0.1447
29134W        W42548  13.252  17.403   0.189  0.1976  0.1540 -0.1559
29135W        W42549  11.912   3.691   1.783 -0.5174 -0.0373 -0.0100
29136W        W42550  14.759   1.490   1.621  0.1313  0.1745 -0.2497
29137W        W42551  17.361   9.908   5.174 -0.1627 -0.2666 -0.3474
29138W        W42552  17.170  17.822  15.791  0.0318 -0.3632  0.1640
29139W        W42553   2.872   2.047   2.931 -0.0350 -0.0125  0.0940
29140W        W42554   7.044   3.750   5.717 -0.1080  0.1618  0.3180
29141W        W42555   4.620   4.816  10.954 -0.1030 -0.0079 -0.1377
29142W        W42556  16.429   0.747  11.910  0.4939  0.1160 -0.0013
29143W        W42557   4.621  10.011  14.508  0.0863 -0.0262  0.1637
29144W        W42558   4.375  10.844   0.952 -0.0511  0.0742  0.0017
29145W        W42559   3.772   0.039   4.670  0.0054 -0.0501  0.1481
29146W        W42560  15.568   9.022   6.169  0.0331 -0.1626  0.1142
29147W        W42561   4.743   1.442   3.923 -0.1820  0.3694  0.2375
29148W        W42562  16.312  10.894  10.750 -0.0571 -0.2338 -0.1217
29149W        W42563   9.084   3.723  13.126  0.1413  0.0554  0.1749
29150W        W42564   4.813   9.356  13.916  0.0689 -0.0443  0.2813
29151W        W42565   4.452  13.987   2.799  0.1356 -0.1571  0.2457
29152W        W42566   8.017   1.445  15.332  0.0353 -0.0653 -0.3998
29153W        W42567   6.196   3.401  11.267  0.1245  0.2282 -0.0004
29154W        W42568   1.175   8.600   1.106 -0.0322  0.0134  0.0886
29155W        W42569   1.105   2.152   2.795  0.1214  0.2466  0.1677
29156W        W42570   9.260   0.933   4.568  0.1485 -0.2723  0.1292
29157W        W42571  12.663   7.187   5.791 -0.0918  0.3731  0.0980
29158W        W42572   0.651   0.328  13.941  0.0526 -0.0050  0.1062
29159W        W42573   1.934   8.823  12.798 -0.0433  0.0476 -0.0734
29160W        W42574   3.528   9.673  14.987  0.0997  0.2317 -0.0822
29161W        W42575   7.536   4.202   1.274  0.2489 -0.1830  0.2707
29162W        W42576  14.518   5.569   4.752 -0.1060 -0.1190 -0.0739
29163W        W42577   9.337   9.149  13.057 -0.3331  0.2580  0.0086
29164W        W42578   4.482   0.747   1.490  0.2328 -0.1174 -0.0876
29165W        W42579   8.207   3.683   3.387  0.2702  0.2659  0.1414
29166W        W42580   3.742  13.846  13.955  0.1170  0.1663 -0.1722
29167W        W42581  12.331   3.674  15.832 -0.2352 -0.2811 -0.3259
29168W        W42582   9.537  17.724   9.688  0.1061 -0.0513 -0.1015
29169W        W42583   9.919   6.593   4.025 -0.3020 -0.0000 -0.0298
29170W        W42584  13.464   6.322   2.873  0.1175  0.0337 -0.0360
29171W        W42585  12.281  12.481  16.268 -0.0424  0.3137 -0.1774
29172W        W42586   8.971  10.221   2.162 -0.0309 -0.3206  0.0224
29173W        W42587  15.838  13.072  13.169 -0.0610 -0.3462 -0.2960
29174W        W42588  11.774   3.982  14.846 -0.2109  0.0365  0.3553
29175W        W42589  12.647   7.956   0.646 -0.0591 -0.1327  0.0824
29176W        W42590   5.916   1.749   1.202 -0.3134  0.1061 -0.0916
29177W        W42591   9.499   8.346   6.798  0.1586 -0.2570  0.3058
29178W        W42592   2.735  10.139  16.484  0.0086  0.2011  0.2507
29179W        W42593   4.589   3.789  12.675 -0.1523 -0.0693 -0.3815
29180W        W42594   6.547  11.889  11.625 -0.0543  0.0551  0.0292
29181W        W42595   2.776  16.842  13.897  0.1240  0.1229  0.2322
29182W        W42596   1.768  10.260  16.192 -0.2290  0.1420 -0.1699
29183W        W42597  13.908  11.073   1.032 -0.0844 -0.2451  0.2963
29184W        W42598   8.556   2.267  15.768 -0.0747 -0.1310  0.0015
29185W        W42599  13.833   5.428   4.683 -0.2222 -0.1165  0.0847
29186W        W42600   8.354  15.851  12.778  0.1126  0.0881  0.2804
29187W        W42601  17.174  15.799  13.652  0.0497  0.1586 -0.0568
29188W        W42602  11.163   1.105   5.032  0.0094 -0.1666 -0.1304
29189W        W42603   2.091  11.386  14.345 -0.2030  0.0524 -0.3466
29190W        W42604   8.322   4.379  11.145 -0.0800 -0.2416 -0.0654
29191W        W42605   3.759   4.760   0.014 -0.0333 -0.3944 -0.3190
29192W        W42606   2.354   8.507  15.770 -0.0486 -0.0472 -0.0949
29193W        W42607   8.902   9.734  16.274  0.2274 -0.0913  0.2846
29194W        W42608  13.796  13.035  10.757  0.3900 -0.0852 -0.3066
29195W        W42609   8.307  15.423   4.475  0.1839 -0.3306  0.0398
29196W        W42610   1.543   0.503   4.711  0.1887 -0.0981  0.1358
29197W        W42611  13.853   3.979  16.212 -0.2144  0.1232  0.3049
29198W        W42612   7.237   6.706   2.789  0.2128  0.1265  0.2282
29199W        W42613  10.571   2.891   0.551  0.0816  0.1758 -0.2697
29200W        W42614  13.340  18.119  12.779 -0.2597 -0.2133  0.3976
29201W        W42615  16.423   8.312   6.302  0.2551  0.0161 -0.0397
29202W        W42616  13.207   0.575  13.604  0.0714 -0.0966 -0.2563
29203W        W42617  10.438  14.334  11.253 -0.2380 -0.0050 -0.2655
29204W        W42618   7.937  17.878  11.261 -0.0234 -0.0057  0.2281
29205W        W42619  17.851   9.330  10.866  0.0044  0.0494  0.0038
29206W        W42620   3.682  15.868   4.510  0.0279 -0.0712 -0.1323
29207W        W42621  14.105  16.852   4.538  0.2980  0.0207  0.1902
29208W        W42622  10.833   2.648   3.632 -0.0374 -0.3082  0.1424
29209W        W42623  16.600  17.949   0.076  0.0708 -0.0227 -0.0415
29210W        W42624   7.339  18.218   4.606  0.2048 -0.1297 -0.0514
29211W        W42625   1.040   9.010   4.898  0.3305  0.0302 -0.4391
29212W        W42626   7.376   8.180   1.547 -0.3769 -0.0501 -0.3251
29213W        W42627  12.147   4.212   0.014 -0.1288 -0.1616 -0.1690
29214W        W42628  15.412  12.505  15.594 -0.1562  0.2111 -0.6523
29215W        W42629   7.078   5.638   3.685  0.3112 -0.1231 -0.2300
29216W        W42630   5.388  16.673   0.990 -0.0954  0.1605  0.0705
29217W        W42631  15.576  12.268   4.614 -0.1065  0.1335  0.2376
29218W        W42632   3.437  15.116  11.232 -0.1436  0.0074  0.1278
29219W        W42633   6.646  15.287   5.246  0.0052 -0.0926 -0.4366
29220W        W42634  12.558  14.888   1.515  0.2382 -0.2160  0.2496
29221W        W42635  15.872   7.430  13.321 -0.0527 -0.4294 -0.3861
29222W        W42636   4.872   1.328  11.340 -0.0607 -0.2177 -0.3606
29223W        W42637  12.579  15.880  16.324  0.0025  0.1195  0.0392
29224W        W42638   8.993  11.430  13.611  0.0436 -0.0373  0.2123
29225W        W42639  14.098  17.562   3.356 -0.2577  0.0287  0.2521
29226W        W42640  12.326  14.940  15.726  0.0554 -0.0092  0.1365
29227W        W42641  14.880  15.595   5.875 -0.0833 -0.0692  0.0811
29228W        W42642  16.831   0.091   4.554 -0.0888 -0.0627  0.3719
29229W        W42643  17.168  12.742  12.274 -0.0632  0.1469  0.0235
29230W        W42644  12.716   9.552  15.798  0.1927  0.2697 -0.0135
29231W        W42645  14.088   7.164  11.255 -0.0302  0.3149 -0.2434
29232W        W42646   0.111   3.008  13.658 -0.0478 -0.1629 -0.2569
29233W        W42647   6.121  13.669   0.890  0.0895 -0.0089 -0.3069
29234W        W42648  14.364  16.919  15.370 -0.1344 -0.2056 -0.1691
29235W        W42649   5.742  10.158   2.582 -0.1295 -0.1065 -0.0533
29236W        W42650   6.386   8.967   3.791 -0.0461 -0.2599 -0.2336
29237W        W42651   8.582  16.583   4.134  0.0886  0.0813 -0.1732
29238W        W42652   3.300   8.694  12.144  0.0029  0.1144 -0.3588
29239W        W42653  12.710   1.004  12.238 -0.2380 -0.0998  0.2049
29240W        W42654   7.285   1.470   1.501  0.0153  0.0499  0.0569
29241W        W42655   9.489  15.785  10.810  0.0333 -0.0762  0.3518
29242W        W42656   2.484  11.754   3.100 -0.0962  0.1382 -0.2194
29243W        W42657   8.149  13.689  10.975  0.0619 -0.0779  0.1784
29244W        W42658  12.821  13.480   4.331  0.6420  0.0740  0.1389
29245W        W42659   8.399  11.501   2.844 -0.1861 -0.0288 -0.1708
29246W        W42660  13.238   3.532   2.236  0.0719  0.0459 -0.4572
29247W        W42661   7.032   6.382  14.775 -0.0365 -0.0585  0.1691
29248W        W42662   3.486   4.252   2.473  0.0719  0.0642  0.0841
29249W        W42663   4.382   0.973  10.803 -0.2959 -0.2683  0.1269
29250W        W42664  13.664   8.741  10.558 -0.2603 -0.1968  0.0383
29251W        W42665   7.798   3.380   3.366 -0.0506 -0.1740  0.0126
29252W        W42666  13.774   5.081  14.184  0.1393  0.1990  0.2411
29253W        W42667   1.925   4.396   2.442  0.0545 -0.0390  0.1202
29254W        W42668   9.708  17.192   1.390 -0.1633 -0.0777  0.0917
29255W        W42669   8.861  11.110   6.226 -0.0212 -0.2588  0.0885
29256W        W42670   8.111   9.279  11.846 -0.0609 -0.0173  0.0384
29257W        W42671  11.426   8.288   3.927  0.1404  0.0400  0.2590
29258W        W42672  13.215   2.200  13.466 -0.0511  0.3240 -0.1835
29259W        W42673   0.920  14.915  14.336  0.0741 -0.0251  0.1552
29260W        W42674   8.004  14.602  11.278  0.2950  0.5860 -0.1370
29261W        W42675   4.480   0.049  14.577 -0.1170  0.0043 -0.3298
29262W        W42676  14.122   1.077  14.050  0.0116  0.2022 -0.0675
29263W        W42677   2.824  13.521   6.079 -0.1354 -0.0778 -0.0897
29264W        W42678  11.111   5.047   4.323  0.1441  0.0166  0.1739
29265W        W42679   6.720  13.374   3.897  0.0931  0.1254  0.2858
29266W        W42680   6.935   1.966   3.556 -0.0145  0.0929  0.0572
29267W        W42681  15.657   1.643  16.429 -0.3566 -0.1063 -0.0390
29268W        W42682  11.159  15.932  11.490  0.0122 -0.2292 -0.2130
29269W        W42683   8.362   7.321   5.376  0.0141 -0.2495 -0.3275
29270W        W42684  15.123   3.672   4.255  0.1622 -0.1535 -0.1531
29271W        W42685   3.505  12.236   0.878 -0.2123 -0.0144 -0.0347
29272W        W42686   3.307  17.528   1.775 -0.1781 -0.3077  0.1761
29273W        W42687   9.514   7.150  15.168  0.0769 -0.0154 -0.0095
29274W        W42688   6.827  10.500   3.498  0.1409 -0.2914  0.0825
29275W        W42689  11.008  10.846   0.034  0.1496  0.0233  0.1115
29276W        W42690   7.869   0.221  12.641 -0.0570 -0.0863 -0.0015
29277W        W42691  15.166  16.103  11.788 -0.2289 -0.4900  0.0248
29278W        W42692  16.324   9.547  15.062 -0.0500  0.1232 -0.0837
29279W        W42693   5.377  13.652   5.757 -0.0234 -0.3810 -0.3784
29280W        W42694  12.992   0.457  14.908 -0.0569 -0.3282 -0.0904
29281W        W42695  14.338  15.820   1.637  0.1858 -0.0614  0.1438
29282W        W42696  16.377   0.956   3.706 -0.1528  0.1515  0.0377
29283W        W42697   1.496  12.959   5.741 -0.2371 -0.1145 -0.2585
29284W        W42698  15.507   4.983   2.307 -0.2421 -0.2380  0.0169
29285W        W42699   5.709  13.444   6.598 -0.0708 -0.0594 -0.0168
29286W        W42700  14.963  12.640  15.319 -0.1078 -0.1276 -0.1025
29287W        W42701   8.358   9.646   2.435  0.0717 -0.1196 -0.0811
29288W        W42702  13.030   3.920  10.916  0.3079 -0.1640  0.3276
29289W        W42703  11.130  10.310   2.391 -0.2195 -0.3464  0.1382
29290W        W42704  16.966  10.836  11.150  0.0569  0.0484  0.2406
29291W        W42705  11.597   9.085   5.029 -0.0720  0.1698  0.2065
29292W        W42706  13.305   4.511  15.053 -0.1169 -0.3204  0.0738
29293W        W42707   8.959   5.888   5.588  0.1763 -0.1156 -0.0517
29294W        W42708   6.314  15.617   3.871 -0.0872 -0.0555  0.0079
29295W        W42709  11.950   2.996   2.378 -0.0713 -0.1480  0.3807
29296W        W42710   2.449   3.817   0.253  0.1029 -0.2388  0.2050
29297W        W42711   6.742   5.623   1.929 -0.2417  0.1842 -0.0430
29298W        W42712   6.745   5.951   0.561 -0.0116  0.1234  0.2240
29299W        W42713   9.691   0.215  12.225 -0.3501  0.2770 -0.1101
29300W        W42714   1.795   1.861   4.148  0.2419 -0.0255  0.0322
29301W        W42715   9.793   1.072   2.486 -0.1895  0.2488 -0.1325
29302W        W42716  13.534  11.082  13.320  0.1548 -0.0792  0.1132
29303W        W42717   1.627  16.610   3.308 -0.2484  0.0206  0.0823
29304W        W42718   6.990   7.803  14.127  0.4506 -0.3732 -0.0101
29305W        W42719  12.012   9.045  11.523  0.1484  0.0759  0.2311
29306W        W42720   3.785   7.127   3.391  0.1305  0.1058  0.2050
29307W        W42721  14.208   9.005  12.697  0.1528  0.0217 -0.2756
29308W        W42722  12.583   0.762   6.172 -0.0744  0.3202 -0.0118
29309W        W42723   4.332  17.645  16.291  0.1635 -0.1457  0.0902
29310W        W42724  16.482  14.348   1.958 -0.0734  0.0009 -0.0566
29311W        W42725   3.401   7.098  15.354  0.1233  0.1748 -0.4115
29312W        W42726  13.536   5.091   1.628  0.0911  0.2189 -0.1505
29313W        W42727  17.856  12.678  13.526  0.2267 -0.1251  0.1266
29314W        W42728   3.032   7.467  14.454  0.0713 -0.1940 -0.0273
29315W        W42729  17.871   9.668   3.639 -0.1538  0.0700 -0.0626
29316W        W42730  15.569   2.379   1.914  0.0943 -0.2859 -0.1918
29317W        W42731   0.895   6.137   6.359  0.0897  0.0722 -0.0104
29318W        W42732   6.898   4.584   5.511 -0.1638  0.2865 -0.3508
29319W        W42733  13.658   9.105  15.124  0.0836 -0.0342 -0.0709
29320W        W42734  11.275  16.391   4.328 -0.1020  0.0675  0.0587
29321W        W42735   9.822   6.762   3.576 -0.0763 -0.1175  0.0257
29322W        W42736   0.005  11.255  12.981  0.0640 -0.2040  0.0255
29323W        W42737  11.288  14.183  11.591 -0.0699  0.1743 -0.0373
29324W        W42738  12.212   4.623   5.475 -0.0285 -0.2045  0.1527
29325W        W42739  16.789  17.557  12.370  0.1846 -0.1408 -0.1057
29326W        W42740   3.399  12.579  11.580 -0.0206  0.0559  0.1935
29327W        W42741   1.454  10.029   0.148 -0.0459  0.0839 -0.1496
29328W        W42742  11.825  15.747   4.448  0.0101  0.0936  0.0752
29329W        W42743  16.648   7.124   3.418 -0.0714 -0.1951  0.1822
29330W        W42744   9.942  13.450   0.041  0.0241 -0.0733 -0.0497
29331W        W42745   0.995   6.531   2.694 -0.0069  0.1335 -0.3916
29332W        W42746  14.411  14.662   1.694 -0.3465 -0.3729  0.1576
29333W        W42747   4.513   6.086  11.613 -0.1280  0.2132  0.0603
29334W        W42748   8.420   8.263  13.504  0.1361 -0.2117 -0.3776
29335W        W42749   6.266  16.542   4.942 -0.3408  0.0954 -0.4466
29336W        W42750   2.030  14.684  16.320  0.0577  0.0416 -0.0657
29337W        W42751   9.008  13.539   3.304  0.2440 -0.1957  0.1079
29338W        W42752   7.143  14.209  10.858  0.0287 -0.0065 -0.1662
29339W        W42753   9.677   1.318   3.555 -0.0837  0.0049  0.4311
29340W        W42754  11.244   4.354  14.078 -0.1144 -0.3588 -0.0213
29341W        W42755   0.396  16.597   1.841 -0.1562  0.0652  0.0965
29342W        W42756  12.240   2.362  15.838  0.1573 -0.2085 -0.0034
29343W        W42757  17.713  15.296  10.868  0.3497  0.1152 -0.2328
29344W        W42758  12.516   3.757  14.274 -0.0757 -0.1319 -0.1925
29345W        W42759  16.509   5.788   3.981 -0.2559 -0.0128  0.1769
29346W        W42760  17.119   9.394   4.680 -0.1678  0.0973 -0.2087
29347W        W42761   7.375   0.277  13.738  0.1903  0.1140  0.2973
29348W        W42762  17.712  13.623  14.580 -0.4490  0.3197 -0.0869
29349W        W42763   9.248  13.251  15.996  0.1428 -0.1164 -0.2901
29350W        W42764   7.943  14.184  11.549 -0.1437 -0.3409 -0.0282
29351W        W42765   3.337   5.466   4.982 -0.1142 -0.0278 -0.0365
29352W        W42766   9.505  18.213  15.245  0.4030 -0.0777  0.3033
29353W        W42767  17.267  11.318  16.210  0.0018  0.0705 -0.0165
29354W        W42768  18.182  14.716   3.369  0.3145  0.2828 -0.1819
29355W        W42769  11.376  11.760   5.649 -0.0007  0.1543 -0.0451
29356W        W42770   3.324   0.372   3.820  0.1029 -0.0809 -0.0211
29357W        W42771  13.477  17.638  12.545  0.1918  0.1072 -0.0857
29358W        W42772  15.051  13.505  13.282  0.1411  0.2548  0.0110
29359W        W42773  10.386   8.452  12.630 -0.1286  0.0602  0.2047
29360W        W42774  12.920  10.841   2.135  0.1212 -0.1073  0.1727
29361W        W42775   3.456   6.972   5.138 -0.0298 -0.1139 -0.0723
29362W        W42776  15.498   9.668  11.264 -0.1212  0.0047 -0.1708
29363W        W42777   4.176  12.149  14.866  0.0837  0.2407  0.0921
29364W        W42778  12.331   5.383   5.262 -0.1532 -0.2735 -0.1066
29365W        W42779  12.063  12.894   1.669  0.3151 -0.0156  0.1306
29366W        W42780   2.546   0.057   5.093 -0.0662 -0.1536  0.0027
29367W        W42781   2.859  12.102  15.598  0.0024  0.0322 -0.0342
29368W        W42782  11.496   9.028   0.321 -0.2139  0.2029  0.0714
29369W        W42783   8.389   9.158   6.117  0.0252 -0.0546  0.0771
29370W        W42784   1.535  10.263  14.750 -0.0941 -0.3167  0.0361
29371W        W42785  17.699  13.353  10.520  0.0858  0.0722 -0.1023
29372W        W42786   3.277  16.066  11.481 -0.2219  0.1369 -0.1435
29373W        W42787   5.604   5.165   3.371  0.1730  0.0210  0.2962
29374W        W42788   7.606  16.318  14.238 -0.2552 -0.0579 -0.2269
29375W        W42789   3.997   3.626  11.567 -0.0678  0.1463  0.3099
29376W        W42790  10.179  10.410  15.473 -0.1504  0.2125  0.2396
29377W        W42791   6.659  15.486  16.003  0.1171  0.3579 -0.1560
29378W        W42792   4.168  14.798   0.676  0.2402  0.1944  0.1285
29379W        W42793   1.952  10.860  14.218 -0.0186  0.1044  0.1385
29380W        W42794   0.580   7.582   0.444 -0.1173 -0.0184  0.1059
29381W        W42795  14.679   1.102  14.169 -0.1489 -0.1240  0.0372
29382W        W42796  17.694  10.373   2.460  0.2352 -0.1384 -0.1063
29383W        W42797  16.758  17.258   1.583  0.3177 -0.1778 -0.0411
29384W        W42798   5.234   7.220   5.806  0.2135  0.1711  0.1756
29385W        W42799  11.273  18.160  14.547 -0.1359 -0.0269 -0.1369
29386W        W42800   1.044   1.412  11.656  0.0591 -0.2272  0.2453
29387W        W42801   3.713   3.591   2.288 -0.2534  0.1332 -0.0484
29388W        W42802  16.976   6.501   0.438 -0.1042  0.1245  0.2089
29389W        W42803  12.572   7.304   4.033 -0.2380 -0.0102 -0.1568
29390W        W42804   8.492  12.933   6.417  0.1683 -0.0259  0.0251
29391W        W42805  15.152  17.289  12.994  0.0894  0.0848  0.2672
29392W        W42806  11.995   2.815   4.556  0.2341 -0.0778  0.0649
29393W        W42807   6.105   2.977   4.202 -0.3255 -0.0027  0.2330
29394W        W42808  10.480   8.386  13.405 -0.2440 -0.1520  0.0576
29395W        W42809  13.113   0.707  14.457  0.1961  0.0265 -0.0079
29396W        W42810   4.879   4.037   0.294 -0.2474 -0.1992  0.5376
29397W        W42811   2.500  14.679  13.814  0.0841  0.0887 -0.0105
29398W        W42812   5.011  13.143   5.600  0.0731 -0.3502 -0.2510
29399W        W42813  16.670  10.143  10.410 -0.1216  0.2156 -0.1815
29400W        W42814  10.788   7.261   1.184  0.0569  0.3145  0.0846
29401W        W42815   0.185  14.909  10.416  0.0776  0.1782  0.0507
29402W        W42816   3.707  13.684  16.332 -0.0275  0.4151 -0.0397
29403W        W42817   0.205   1.521   3.866 -0.0623  0.0251 -0.3599
29404W        W42818  15.243   6.315  12.791  0.0224 -0.0314  0.1959
29405W        W42819  16.606   2.540  15.237 -0.1169  0.0684 -0.0838
29406W        W42820   5.264   6.606  12.699  0.0997  0.0088  0.1602
29407W        W42821   0.567  12.760   0.315  0.5648 -0.1629 -0.0736
29408W        W42822   0.657   8.668  15.108  0.2071  0.0729  0.0939
29409W        W42823  11.316  13.279  14.803 -0.1800  0.1574  0.1957
29410W        W42824   0.409   0.325   1.410 -0.1115  0.3218 -0.1396
29411W        W42825   2.351   8.825   4.015 -0.1870  0.0716 -0.0760
29412W        W42826  13.072  13.707   2.555  0.4530 -0.0907 -0.0167
29413W        W42827  17.235   0.435  11.832 -0.1038  0.1424  0.1620
29414W        W42828   2.967  14.464   5.568 -0.1874  0.1384 -0.0612
29415W        W42829   4.001   8.474   2.702 -0.1154 -0.2084  0.0517
29416W        W42830   7.727  12.674  10.653  0.0460 -0.0420 -0.1262
29417W        W42831   6.135  15.385  16.182  0.1371  0.1738 -0.3175
29418W        W42832   8.969  15.940  11.163 -0.2189 -0.0596  0.0601
29419W        W42833   7.001  10.003  12.682  0.0105 -0.2107  0.1807
29420W        W42834  11.128  16.365  12.279 -0.0341 -0.0435  0.0383
29421W        W42835  11.631  11.015   3.319 -0.1173  0.0891 -0.0370
29422W        W42836  10.654  16.930  14.159  0.1884  0.0368  0.4612
29423W        W42837   2.854   4.730   1.917 -0.1001 -0.0252 -0.1815
29424W        W42838   3.714   3.785   4.909  0.2144 -0.2010 -0.1517
29425W        W42839   5.190   9.505   2.473 -0.1875 -0.0705 -0.0610
29426W        W42840   4.944   6.979   2.702 -0.1640 -0.0811 -0.1303
29427W        W42841  10.438   9.667  14.983 -0.2707  0.1047  0.3788
29428W        W42842   9.892   5.863  14.532 -0.1468  0.3592 -0.0414
29429W        W42843   8.021   9.099  13.483  0.0866 -0.4179 -0.0523
29430W        W42844   6.734   3.693   3.284  0.1699 -0.0025  0.0551
29431W        W42845  11.810  17.327  16.261 -0.4100  0.3216 -0.3176
29432W        W42846   7.602  17.618   3.825  0.0210  0.4765 -0.1666
29433W        W42847   7.131   7.023  16.495 -0.0787 -0.0252 -0.0896
29434W        W42848   6.513   8.199   1.740  0.0975 -0.1375  0.1306
29435W        W42849   7.748   4.399  13.246  0.0818  0.1345  0.2905
29436W        W42850  14.011   0.411   2.974 -0.0435  0.1181  0.2402
29437W        W42851  12.598   4.527  15.555  0.0882 -0.1235  0.1069
29438W        W42852   3.177   9.519   2.431 -0.2869  0.0380  0.0342
29439W        W42853   1.968   5.281  14.601  0.1508 -0.0063 -0.4513
29440W        W42854   1.017   2.269  14.152  0.2669  0.1821 -0.0718
29441W        W42855   8.670  17.132  12.311 -0.0151 -0.0854 -0.0756
29442W        W42856  10.151  15.028  12.272  0.2586  0.1005  0.1805
29443W        W42857   6.208   6.303   1.310  0.4337 -0.2447 -0.0074
29444W        W42858  16.326  12.502  11.018 -0.1089  0.1469 -0.1613
29445W        W42859  12.676   5.952   4.506  0.3092  0.1478  0.1973
29446W        W42860   0.113   4.201   2.144 -0.2432  0.1554  0.1167
29447W        W42861   5.949  13.107  15.265  0.2889 -0.0968  0.1776
29448W        W42862   8.481  16.852  13.549 -0.2211 -0.2168 -0.0127
29449W        W42863  12.134  15.907   0.056 -0.3878 -0.0666 -0.0767
29450W        W42864   5.944   6.925   1.316 -0.1291  0.0450 -0.0591
29451W        W42865  16.308   7.857  13.103 -0.0730 -0.2325  0.2737
29452W        W42866   0.596  17.715   4.390  0.0055 -0.1801 -0.0531
29453W        W42867  12.823  12.018  10.687 -0.1003  0.0185  0.0968
29454W        W42868   8.991  13.605  16.206  0.1989 -0.1088 -0.1427
29455W        W42869   4.825   2.927   0.571 -0.0338  0.1948 -0.1140
29456W        W42870   4.203   9.049  11.945  0.1040  0.0876  0.2121
29457W        W42871   6.841   2.204  15.186  0.2156 -0.0829 -0.2401
29458W        W42872   1.246   7.726   6.080 -0.0481 -0.1354 -0.1530
29459W        W42873  14.470   1.337   4.154  0.2660  0.1201  0.0920
29460W        W42874  15.188   1.238  14.017  0.1069 -0.1334 -0.0560
29461W        W42875   6.051   3.923   2.609  0.0571 -0.0967 -0.2506
29462W        W42876  17.308   2.790  14.026  0.0894 -0.1715  0.1438
29463W        W42877  14.571   8.729   2.671  0.0113 -0.0194  0.2515
29464W        W42878  11.501   9.257  13.342 -0.0140  0.0208 -0.1771
29465W        W42879   8.138   3.886   4.865  0.0035 -0.0935  0.1002
29466W        W42880   5.055  13.801  16.457 -0.4968 -0.3071  0.3426
29467W        W42881   8.259   9.253   0.860 -0.0049 -0.2030  0.2894
29468W        W42882   2.530  11.871  12.693 -0.1741 -0.3459  0.0956
29469W        W42883   6.486   6.021   1.888 -0.0764  0.0465  0.1950
29470W        W42884   1.943   7.184  14.274  0.1168 -0.0618  0.3677
29471W        W42885  17.330  16.397  11.883 -0.2604 -0.2255 -0.1424
29472W        W42886  13.176  16.313  13.921 -0.0901 -0.1907  0.0024
29473W        W42887   8.184  11.996   3.226  0.2783 -0.1351  0.0457
29474W        W42888  17.654   3.173   4.225  0.1438  0.1986  0.1615
29475W        W42889  16.579  13.461  12.719 -0.1284 -0.3497 -0.0444
29476W        W42890  17.181   5.274  14.695  0.1860  0.0652  0.0860
29477W        W42891   1.946  12.080   1.378  0.0725 -0.0472 -0.1552
29478W        W42892  18.063   3.361   5.063  0.0686 -0.3285 -0.2457
29479W        W42893   9.244  14.296   0.480 -0.0914  0.1380  0.4168
29480W        W42894  11.716  18.007  12.933 -0.3095  0.2372 -0.1931
29481W        W42895   4.114  17.373  15.229 -0.3390 -0.0547 -0.0113
29482W        W42896  12.828  17.956   1.457 -0.3654 -0.1265  0.2285
29483W        W42897  15.928  16.271   1.049  0.1506 -0.0604  0.0691
29484W        W42898   5.189   3.056   6.278 -0.1312 -0.1398 -0.0376
29485W        W42899   1.680   6.292  14.004 -0.0122  0.0720  0.0674
29486W        W42900   0.924   4.614  13.424 -0.5176 -0.0736  0.2112
29487W        W42901   4.558  15.883  11.355 -0.3077 -0.0532  0.4743
29488W        W42902   5.072  17.155   5.322  0.2138 -0.0465  0.0476
29489W        W42903   5.484  16.962   4.635 -0.2756  0.0123 -0.0619
29490W        W42904  15.469  10.006  15.586 -0.0837 -0.0903 -0.2566
29491W        W42905   7.500  10.685  12.310 -0.0620  0.0913  0.0247
29492W        W42906  10.356   0.752   3.985 -0.2179  0.0263 -0.1307
29493W        W42907   6.364   7.147   4.385 -0.2188  0.1745 -0.2735
29494W        W42908  10.005  10.689   4.613  0.3805  0.1807 -0.3326
29495W        W42909   3.172  12.877   5.642 -0.4139  0.0904  0.0720
29496W        W42910   5.020   8.843  16.450  0.3304 -0.1443 -0.4042
29497W        W42911  10.107  10.036   2.608 -0.0229 -0.1450 -0.1910
29498W        W42912   7.296  11.782   1.731 -0.1683 -0.1685 -0.2457
29499W        W42913   6.462   7.806  14.332 -0.0704 -0.0741 -0.2589
29500W        W42914   2.886   3.945   1.546 -0.1920  0.1271  0.1926
29501W        W42915  14.384  16.856  11.596 -0.2318  0.1111  0.0423
29502W        W42916   0.843  17.588  12.364 -0.2786 -0.1681  0.0281
29503W        W42917   8.876   1.084   1.677  0.1738  0.2792  0.2121
29504W        W42918   4.247   8.062   4.877 -0.2119 -0.3064  0.1159
29505W        W42919  12.008  12.264   0.234 -0.1398  0.1838 -0.1205
29506W        W42920   4.182   1.980  11.713  0.2431  0.1968  0.2658
29507W        W42921  11.711  17.217  15.779  0.3836  0.1090 -0.1350
29508W        W42922   7.123  18.183   1.990  0.0678  0.3807 -0.0336
29509W        W42923  15.251  11.216  14.938 -0.0502 -0.0339 -0.2845
29510W        W42924   1.564   9.795  13.684 -0.0695  0.0398 -0.3348
29511W        W42925   4.542   8.497  14.290  0.0443 -0.2000  0.0120
29512W        W42926   0.338  13.594   5.535  0.1263  0.0950  0.0091
29513W        W42927   2.231   4.096  13.836 -0.0383  0.1108 -0.4483
29514W        W42928  10.936   6.243   3.991 -0.0280  0.2106 -0.0723
29515W        W42929  16.211   5.460   5.573  0.1809 -0.1924  0.4617
29516W        W42930   2.967  17.162  14.276  0.4314  0.1441  0.1422
29517W        W42931   9.259   2.194  12.123 -0.3296 -0.1060  0.3021
29518W        W42932  11.633   4.059  14.094 -0.2025 -0.1516 -0.0819
29519W        W42933  11.746  13.539  11.030  0.2052  0.2722 -0.0125
29520W        W42934   1.191   6.519  13.287  0.0659 -0.0806 -0.1150
29521W        W42935  16.552   3.017   4.931 -0.1338  0.0214  0.0514
29522W        W42936  11.838  16.314  15.791 -0.2468  0.2905  0.0033
29523W        W42937  16.112  10.239  11.564 -0.2905  0.2168 -0.0305
29524W        W42938  14.071   3.250  13.870  0.0913  0.0409 -0.1614
29525W        W42939  12.646  11.782  14.276  0.1157  0.2216  0.1160
29526W        W42940  10.113   0.859  13.538  0.1505  0.2807 -0.2296
29527W        W42941   6.368  11.587  12.565 -0.3058  0.2529  0.3128
29528W        W42942  17.787   2.322   1.673 -0.0223 -0.0600  0.0434
29529W        W42943   8.593  11.826   3.939 -0.0921  0.1411  0.1705
29530W        W42944   0.157  14.290  15.266 -0.0675  0.0753 -0.1235
29531W        W42945   4.229   6.052  10.398  0.2528  0.1235 -0.2179
29532W        W42946  17.747  15.122  13.861  0.0609 -0.2157  0.1059
29533W        W42947   0.532  11.692  11.613  0.0645  0.1367  0.1322
29534W        W42948   4.743  14.915  11.682 -0.0593 -0.2134 -0.0467
29535W        W42949   9.154  16.133   1.430 -0.2969 -0.0196 -0.3835
29536W        W42950  15.660  15.891  13.148  0.1324  0.1541  0.2140
29537W        W42951   8.071   5.258  11.438  0.0589  0.2204  0.2003
29538W        W42952  11.919   8.127   4.085 -0.1409  0.1082 -0.4190
29539W        W42953   0.621  17.198   4.291 -0.2009  0.1174 -0.1464
29540W        W42954   9.949  16.536   4.175 -0.1737  0.4214 -0.0628
29541W        W42955  18.176   3.826   9.941 -0.0135 -0.0333 -0.0936
29542W        W42956   0.210   8.597  11.621  0.0788 -0.1144 -0.0690
29543W        W42957  12.300   7.155   1.167 -0.3212  0.2532 -0.2337
29544W        W42958   6.758   7.243  13.710  0.3144  0.5534  0.0891
29545W        W42959  16.274   6.471  11.370 -0.1768 -0.1407 -0.0842
29546W        W42960   2.349  13.568   0.795  0.0256 -0.0991 -0.0229
29547W        W42961  10.447  12.050   1.489  0.0207 -0.1722  0.1617
29548W        W42962   7.050  13.225  15.526 -0.1112 -0.4068  0.0131
29549W        W42963  16.351   2.414   4.150 -0.2901  0.0947  0.1514
29550W        W42964   4.074  10.819  16.028 -0.2501  0.1684 -0.0402
29551W        W42965   7.064  12.011  14.168 -0.0441 -0.1304 -0.0154
29552W        W42966   2.449  10.702  14.054 -0.0432  0.1092 -0.0294
29553W        W42967  14.179  16.831   5.675  0.0547 -0.0379  0.1916
29554W        W42968   2.831   4.532  16.267 -0.1945  0.0243 -0.4317
29555W        W42969  16.727   9.343   3.642  0.0389  0.3030 -0.1699
29556W        W42970   6.176  10.598  16.378  0.1694  0.1427 -0.2311
29557W        W42971  16.605  10.651   3.310 -0.3112  0.1246  0.0332
29558W        W42972  13.294   9.024  16.354  0.0988  0.1341  0.0908
29559W        W42973   7.928   1.495   5.355  0.2495  0.0664  0.4639
29560W        W42974  16.119  11.443  12.577 -0.3667 -0.2059 -0.0258
29561W        W42975   3.400   9.641   1.142  0.4105 -0.1308 -0.1156
29562W        W42976   8.787  10.080   0.111 -0.2780  0.3427  0.1449
29563W        W42977   8.907   5.380  12.537 -0.1342 -0.0465  0.1816
29564W        W42978   7.079   3.355  11.727  0.0180  0.0823  0.2397
29565W        W42979   3.015   5.217   1.095  0.3151 -0.1955 -0.2800
29566W        W42980   1.861  15.910   3.890  0.0396 -0.3016 -0.4120
29567W        W42981  16.949   4.924  12.771  0.2170 -0.0879  0.0756
29568W        W42982   4.849   9.543   4.162 -0.1568 -0.2045 -0.3290
29569W        W42983   9.544   5.925   2.014 -0.1690 -0.0955  0.0382
29570W        W42984   7.394  12.629   2.986  0.0324  0.0461  0.4985
29571W        W42985  15.185   6.334   5.544  0.0716  0.1043  0.0734
29572W        W42986  14.609   3.833  16.060 -0.1313  0.0573  0.0837
29573W        W42987   4.427   5.438  12.905 -0.1999  0.2403 -0.0678
29574W        W42988   9.894  13.680   2.606  0.2100 -0.0259  0.1370
29575W        W42989   9.796   8.420  15.020 -0.0579 -0.3095 -0.1935
29576W        W42990   8.675  14.295  10.311  0.0868 -0.1705 -0.3473
29577W        W42991   9.772  11.400  13.370 -0.1673 -0.2684 -0.0398
29578W        W42992  16.473  12.082   2.588 -0.0372 -0.0391 -0.0332
29579W        W42993   8.493   1.764   2.795  0.0308 -0.1606 -0.1558
29580W        W42994   3.049   1.961   5.653  0.2989  0.0033  0.3239
29581W        W42995   3.777   1.198   4.050  0.1525 -0.2127 -0.2835
29582W        W42996   2.056  12.561  11.042  0.0271  0.0561 -0.0524
29583W        W42997  18.055  10.685   3.515  0.1716 -0.2333  0.1392
29584W        W42998   4.762  10.192  15.844 -0.1081 -0.0184 -0.0654
29585W        W42999   8.930   4.630   0.834  0.0031 -0.1359  0.1255
29586W        W43000   5.460  10.911   3.691  0.0141 -0.3746  0.0616
29587W        W43001   0.698   9.175  12.621  0.0840  0.1374  0.0803
29588W        W43002   1.468  10.911   3.631 -0.0410  0.3502 -0.2627
29589W        W43003  13.075   2.089   4.695 -0.1625  0.1479  0.1833
29590W        W43004  12.111   5.781  13.731 -0.0417 -0.0330 -0.1285
29591W        W43005   2.779   0.900   1.421 -0.0672 -0.0977  0.0335
29592W        W43006   6.470  17.450  15.379 -0.2839  0.0794 -0.2685
29593W        W43007   5.503   1.493  15.388  0.0380 -0.0114  0.2365
29594W        W43008   4.307   9.624  13.817  0.2722 -0.0404  0.1059
29595W        W43009   5.254  15.686   0.601 -0.0125  0.3336 -0.0662
29596W        W43010  11.205  15.873  12.003  0.0864 -0.4794  0.1802
29597W        W43011   5.303  14.273   5.171  0.2627 -0.1255  0.3553
29598W        W43012   8.234  17.020   4.422 -0.3033  0.0057 -0.1333
29599W        W43013  17.072   0.620   2.907 -0.0074  0.1431 -0.1106
29600W        W43014   0.862   0.911  16.095  0.2451  0.1914  0.0677
29601W        W43015  16.817  10.018   2.731 -0.0033  0.0126  0.1692
29602W        W43016  16.400   3.750   0.816 -0.1127 -0.2194  0.2859
29603W        W43017   7.997   8.763   4.406  0.0042 -0.3265 -0.2823
29604W        W43018   8.816   5.676   4.731 -0.0009 -0.0789 -0.1254
29605W        W43019   5.758  14.996  11.616 -0.3610 -0.1498 -0.1528
29606W        W43020  14.129   5.485   1.597  0.3939  0.0988 -0.1352
29607W        W43021   6.904   9.486  15.309 -0.1533 -0.0469 -0.0783
29608W        W43022   5.853  12.558   1.974  0.1061  0.2952  0.1617
29609W        W43023  14.638   6.011   4.335  0.1983 -0.0174 -0.0313
29610W        W43024  11.969   6.576  14.357  0.1299 -0.0359  0.2697
29611W        W43025   8.023   7.145  11.988  0.0039 -0.4334  0.0288
29612W        W43026   7.990   5.745  11.493  0.2969  0.0153  0.0103
29613W        W43027  10.887  17.153  16.079  0.0886 -0.0302 -0.0911
29614W        W43028  16.517   8.675  15.310 -0.1720 -0.0267 -0.2020
29615W        W43029   6.598  16.626   1.327 -0.1301 -0.1367  0.0126
29616W        W43030  15.869   2.556   1.583 -0.2505  0.0460 -0.0755
29617W        W43031   9.738  12.713  13.361  0.0594  0.0279  0.2080
29618W        W43032   8.054  12.062   1.357 -0.0283  0.2962 -0.2977
29619W        W43033  10.453   5.247  15.790 -0.0557  0.4135 -0.1377
29620W        W43034  16.365   2.931   2.065 -0.3821 -0.2826 -0.0640
29621W        W43035  13.618  11.540   1.397  0.2126  0.4386  0.3149
29622W        W43036   9.258  10.160  10.150  0.2026 -0.0635 -0.0076
29623W        W43037  10.224  12.188   5.363 -0.1609  0.3911  0.0672
29624W        W43038  13.794  12.324  10.227  0.1920 -0.0271 -0.4231
29625W        W43039  15.286  16.241   0.127 -0.0388  0.0623  0.0635
29626W        W43040  15.014  16.402   0.802 -0.1675  0.2839 -0.0043
29627W        W43041   3.431   6.002   5.785  0.2537 -0.1462  0.1234
29628W        W43042   8.162   6.065   3.742  0.2258 -0.0574  0.0397
29629W        W43043   2.535  10.376  10.810 -0.1509 -0.1099  0.0587
29630W        W43044   3.579  10.416   1.639  0.0022  0.1223 -0.1072
29631W        W43045   4.253   9.729  15.188  0.1037  0.1400 -0.0305
29632W        W43046  13.908   7.527  13.285  0.0319 -0.0946 -0.0816
29633W        W43047   1.585  10.385   6.489  0.1232  0.0992  0.2706
29634W        W43048  15.352   2.854  11.036 -0.0322  0.1003 -0.0736
29635W        W43049  15.818  11.676   0.337 -0.0772  0.1130  0.0337
29636W        W43050  15.453   2.541   5.749 -0.0154 -0.0173 -0.0598
29637W        W43051   2.752   3.678   3.249  0.1732 -0.1574  0.1045
29638W        W43052  10.808   6.125  12.471  0.0402 -0.3081  0.1135
29639W        W43053   4.756   5.251   4.639 -0.1782  0.1454 -0.1769
29640W        W43054   1.219  16.006  12.764  0.0586 -0.0780  0.1113
29641W        W43055  11.314  16.087  10.480  0.1128  0.0943 -0.1041
29642W        W43056   8.483   7.580   3.407  0.1058 -0.0182 -0.0385
29643W        W43057  11.503   1.599  13.229  0.0519 -0.0378 -0.2400
29644W        W43058   3.926  13.568   3.406 -0.3198 -0.1197 -0.0745
29645W        W43059   4.451   7.477   3.630 -0.0056  0.0494 -0.1031
29646W        W43060   7.455  14.496  15.897  0.2589  0.1569 -0.2427
29647W        W43061  14.700   6.084  16.481 -0.0799  0.2122  0.2681
29648W        W43062  15.244   4.453   4.374  0.0943  0.0837  0.1870
29649W        W43063   1.515  18.166   3.372 -0.1628  0.0530  0.1827
29650W        W43064  11.490  16.805   3.011  0.0151  0.1227  0.4252
29651W        W43065  16.916  15.455   0.737 -0.1302 -0.2574 -0.0475
29652W        W43066  12.033   9.381   6.104  0.0914 -0.0260  0.4406
29653W        W43067   5.799  14.997   0.060  0.0676  0.2274 -0.0837
29654W        W43068  14.885  10.155  10.945  0.1436 -0.1937 -0.1197
29655W        W43069   2.772  17.519   3.775 -0.0605  0.0393 -0.1783
29656W        W43070  10.921  17.583  15.830  0.2762  0.0800 -0.0801
29657W        W43071   2.028   8.568   4.301  0.0742  0.0398  0.1618
29658W        W43072   4.743  11.801   4.412  0.3513 -0.0108 -0.0608
29659W        W43073  13.029   0.502  10.593 -0.2069  0.0655 -0.1000
29660W        W43074  13.969   1.230   2.880 -0.0901  0.0165 -0.1187
29661W        W43075  16.377   2.211   6.545  0.0514  0.0677  0.2905
29662W        W43076   8.293  14.379   5.827 -0.1028 -0.1021  0.4493
29663W        W43077   4.105   9.660  11.443 -0.1222  0.0698  0.0990
29664W        W43078  15.976  11.353   0.698 -0.3383  0.0079 -0.0391
29665W        W43079   7.700   6.725   5.715  0.1054  0.1568 -0.0859
29666W        W43080   4.279  12.096  14.400 -0.0113  0.0640 -0.0532
29667W        W43081   1.715   5.823  10.697 -0.4375  0.2155 -0.3484
29668W        W43082  13.733   8.283   1.451 -0.1239 -0.0355 -0.0417
29669W        W43083  13.085  18.224   1.843 -0.0643 -0.2460 -0.0898
29670W        W43084  13.106  12.843   3.715 -0.1539  0.1278 -0.0043
29671W        W43085  12.973   4.112  12.088  0.1242 -0.2015  0.0880
29672W        W43086   4.169   3.993  15.549  0.1891 -0.2272  0.2528
29673W        W43087  16.547   9.283  10.670 -0.4348  0.1765  0.1683
29674W        W43088  10.981   0.390   5.409  0.0088  0.2181 -0.1097
29675W        W43089  11.575   2.946  11.539  0.1363  0.1471  0.3172
29676W        W43090   9.843   1.239  16.015  0.1161 -0.2695  0.1508
29677W        W43091  14.410  17.772   2.435  0.0493 -0.0544 -0.0179
29678W        W43092  10.086  16.270   2.917  0.0165 -0.2596  0.0440
29679W        W43093  16.330   6.574  11.985  0.1579  0.1397  0.2804
29680W        W43094   0.637   4.572  13.795  0.3922  0.0869 -0.1182
29681W        W43095   1.264  17.781  15.505 -0.2482  0.1112 -0.0902
29682W        W43096  10.752  10.721   1.000  0.0907 -0.0900 -0.2114
29683W        W43097  14.133  14.100   1.742 -0.1407  0.2128  0.1037
29684W        W43098  16.358   3.655   1.706 -0.0878 -0.3841  0.1274
29685W        W43099   8.046  12.246  11.347  0.1100 -0.0613 -0.1688
29686W        W43100  13.614  13.608   2.317  0.2059 -0.2489  0.1767
29687W        W43101   6.297   5.925  13.938  0.1341  0.0042  0.0927
29688W        W43102   0.521  12.116  10.717  0.3057 -0.0722  0.1270
29689W        W43103  12.140  18.200  15.369 -0.3052 -0.2724 -0.0455
29690W        W43104  14.725   0.465   1.002 -0.2258 -0.2276 -0.2318
29691W        W43105   6.312   2.648   4.529 -0.3880 -0.0749  0.0093
29692W        W43106   9.898   3.349   0.570 -0.1737  0.1069  0.1055
29693W        W43107  16.530  11.607   5.960  0.3843  0.1490 -0.0076
29694W        W43108  14.335   3.774   2.812 -0.0589  0.3331  0.1394
29695W        W43109   2.968   9.702   2.012  0.0021 -0.0767  0.1887
29696W        W43110   6.099  15.984   1.020  0.2711  0.4584 -0.1320
29697W        W43111  14.268   9.283  11.307  0.0663  0.3920  0.2768
29698W        W43112   5.476  13.449  13.250  0.3135 -0.0802 -0.2632
29699W        W43113  12.849  12.979  13.690 -0.0911 -0.0252  0.4066
29700W        W43114   6.754   5.391  13.051 -0.1865  0.2995 -0.0508
29701W        W43115   0.427  12.813  13.839  0.2598 -0.2528 -0.1709
29702W        W43116   9.003  13.622  12.042  0.0766 -0.0453 -0.2124
29703W        W43117  12.243  17.655   2.042 -0.0541  0.2857 -0.2932
29704W        W43118   6.787  11.314   4.789  0.1512 -0.2811  0.4887
29705W        W43119   7.809  10.881  14.127 -0.1658 -0.1035 -0.0204
29706W        W43120   3.823   9.956  15.371  0.0184 -0.0147  0.1044
29707W        W43121  13.863  18.100   0.253  0.2064  0.0753  0.0054
29708W        W43122  14.345  11.892  14.459  0.3369  0.0629  0.1392
29709W        W43123   1.530   7.955   4.439 -0.1159  0.0379  0.1235
29710W        W43124   1.989   6.346   4.788 -0.1883 -0.1662  0.4112
29711W        W43125   4.363   0.089  12.488 -0.1786  0.0790 -0.3282
29712W        W43126   2.533  10.371   3.856  0.0669 -0.0633  0.2183
29713W        W43127   4.145  17.982  14.833  0.1321  0.0803 -0.0463
29714W        W43128  16.700   7.338  10.957  0.0561  0.1042 -0.2016
29715W        W43129   1.354   7.469   2.085  0.0871 -0.2367  0.2930
29716W        W43130  17.893   1.753  15.553  0.0028 -0.2698 -0.0650
29717W        W43131   5.267  17.012  11.555  0.1486 -0.1176 -0.1746
29718W        W43132  11.347  13.070  10.383 -0.2481  0.3315 -0.1922
29719W        W43133  17.012  14.548   1.234 -0.0067  0.0300 -0.0749
29720W        W43134   6.212   2.976  10.188 -0.1436 -0.3221 -0.1139
29721W        W43135   0.813   4.129  13.565  0.3255 -0.2032  0.1957
29722W        W43136   9.149   9.627   4.427 -0.1748  0.1166 -0.0551
29723W        W43137  10.640  10.041  11.213 -0.0318  0.1429  0.0941
29724W        W43138  12.273  17.253   4.365 -0.1211  0.0713  0.0196
29725W        W43139   6.345  16.993  13.839 -0.0244  0.2824 -0.2093
29726W        W43140  12.441   2.115   5.463 -0.0220  0.2877 -0.2741
29727W        W43141  14.573   9.242   0.056 -0.1375 -0.2081  0.5031
29728W        W43142  17.471  10.537   6.021 -0.2978  0.1599 -0.0926
29729W        W43143   7.829  16.679  11.800 -0.1728 -0.1274 -0.1095
29730W        W43144  13.821  16.872  11.578 -0.0549 -0.0147  0.1432
29731W        W43145  16.793  17.405   2.700 -0.2865 -0.1092  0.2184
29732W        W43146   1.676   4.768   4.905  0.0303 -0.0592 -0.0426
29733W        W43147  16.180   7.195   1.079  0.0788 -0.1382 -0.1075
29734W        W43148  12.342   3.387   3.056  0.2132  0.0283 -0.0252
29735W        W43149  13.436  10.697  13.785  0.0823 -0.0621 -0.1693
29736W        W43150   2.158   1.354   0.122  0.3348 -0.1956  0.1966
29737W        W43151  18.148   6.541   5.840 -0.3916  0.0832 -0.0388
29738W        W43152   1.747  17.463   0.110  0.0267 -0.0188 -0.1475
29739W        W43153  16.707  13.407   0.587 -0.1477 -0.0650  0.1831
29740W        W43154  14.057  12.491  10.798 -0.1548 -0.0892  0.1363
29741W        W43155  15.796  12.231   1.738 -0.1436 -0.0632 -0.0457
29742W        W43156  11.731  18.010   2.920 -0.0178  0.1321 -0.0974
29743W        W43157   7.911  11.916   5.503  0.0627  0.0346  0.1740
29744W        W43158   2.557  18.008   4.137 -0.0147 -0.1367 -0.0829
29745W        W43159  11.800   9.081   0.727  0.1115  0.1522  0.0104
29746W        W43160   1.249  10.834  14.199 -0.0711  0.0858  0.0246
29747W        W43161   9.725  15.266  16.164 -0.0513 -0.4993  0.2490
29748W        W43162   5.561  13.193  11.017  0.1552  0.1305  0.0226
29749W        W43163  11.579   7.705   4.244  0.1495 -0.4068 -0.0951
29750W        W43164  15.123   2.882  15.181  0.2632  0.3675  0.2697
29751W        W43165  13.986  14.323   4.340 -0.0103 -0.0349  0.3197
29752W        W43166   1.410  14.053   1.555 -0.3397 -0.2396  0.0127
29753W        W43167   3.656   1.798   1.645 -0.1170 -0.0951 -0.1531
29754W        W43168  18.071   1.863   1.914  0.1237  0.1196 -0.1432
29755W        W43169   4.032   5.403  14.151 -0.0745  0.1401 -0.1485
29756W        W43170  13.133  15.591   2.413  0.1448 -0.3001 -0.3495
29757W        W43171   9.693  14.417  10.663  0.1653  0.0226 -0.2660
29758W        W43172   6.233   6.289   4.758 -0.1818 -0.3355  0.2609
29759W        W43173  10.796  10.356   0.026  0.0933  0.0058  0.2395
29760W        W43174  12.253  11.533   0.857 -0.1124 -0.1924  0.3446
29761W        W43175   9.344   9.648  10.815 -0.0418 -0.1876  0.1243
29762W        W43176   2.445  10.507   4.830  0.2072 -0.1020  0.0944
29763W        W43177  14.547  18.125  11.402  0.2299 -0.2551  0.1517
29764W        W43178  13.239   1.446   2.444  0.1728 -0.0296 -0.1004
29765W        W43179  11.501   8.167   1.570 -0.0370 -0.0883  0.2303
29766W        W43180   4.268  15.734   0.515 -0.2313 -0.2648  0.0449
29767W        W43181   7.580   3.766   1.004  0.1593  0.1847  0.0343
29768W        W43182  14.839  16.937  15.731  0.0282  0.0719 -0.2157
29769W        W43183  18.188  15.039   4.098  0.1453  0.2672  0.0160
29770W        W43184  15.346  12.524   0.348  0.0648  0.2238  0.0083
29771W        W43185   6.638   1.658  13.586 -0.0198  0.3707 -0.0552
29772W        W43186  18.234   8.701   4.489  0.0364 -0.0657  0.1038
29773W        W43187   7.742   2.311  15.141  0.0348 -0.4028 -0.1415
29774W        W43188   7.744   2.821  11.939  0.0127  0.0555  0.0708
29775W        W43189   8.562  10.370  14.566 -0.0208 -0.0322  0.2967
29776W        W43190   5.385  16.995  15.773  0.1649  0.2067  0.0337
29777W        W43191  13.890  17.190  16.101  0.0534 -0.1896  0.0333
29778W        W43192  18.149  11.722  12.147 -0.1135 -0.2619 -0.0532
29779W        W43193   3.536   2.182   2.464 -0.0054  0.0472 -0.0063
29780W        W43194   0.255   2.148   1.222  0.1750  0.2677 -0.2244
29781W        W43195  12.759   8.007  15.534 -0.0327 -0.0937  0.1448
29782W        W43196  17.345   7.654  15.842 -0.1395  0.1603  0.0834
29783W        W43197   1.440   9.871  12.159  0.1911 -0.0287  0.1656
29784W        W43198   4.705   7.293  12.154 -0.0499 -0.0565  0.1349
29785W        W43199  16.563  15.491   5.282 -0.0703 -0.1004  0.1317
29786W        W43200   9.847   8.153  14.496  0.1863  0.0254  0.0601
29787W        W43201   1.584  12.772  11.028 -0.0210 -0.2058 -0.0033
29788W        W43202   6.671  11.807   4.586  0.3322 -0.1436  0.0514
29789W        W43203   1.176   0.737   5.742 -0.0067  0.2821 -0.1943
29790W        W43204   5.375   7.124  15.019 -0.0637  0.0915  0.1958
29791W        W43205  17.657   3.063   2.167  0.0730  0.2225 -0.0675
29792W        W43206   6.213   8.957   0.245 -0.0284 -0.2449  0.2313
29793W        W43207  17.329  16.645   2.029 -0.0574 -0.0511 -0.0839
29794W        W43208  15.610   4.560  14.735 -0.0464  0.2287 -0.0461
29795W        W43209  10.140   0.064   0.864 -0.1027 -0.1645  0.0056
29796W        W43210   3.248   9.820  15.376  0.0651  0.0190  0.1498
29797W        W43211  12.189  17.279  15.951 -0.1882  0.2724  0.2726
29798W        W43212   9.105  13.835   6.029  0.0903  0.0270  0.4063
29799W        W43213   9.882  11.380  12.834 -0.1091  0.0340  0.0437
29800W        W43214  18.245  12.060   5.896  0.0314  0.3629 -0.2544
29801W        W43215   1.948   1.746   5.617  0.0906  0.1195 -0.5061
29802W        W43216   7.189   3.081  16.226  0.0990 -0.1111  0.0026
29803W        W43217   6.425  16.120  11.205 -0.0653 -0.1076 -0.2690
29804W        W43218   2.655   5.830   5.254 -0.0495  0.3312  0.3012
29805W        W43219   6.714   9.625  10.751 -0.0975  0.0017  0.1960
29806W        W43220   2.108  18.159   3.710  0.2559  0.1975  0.0702
29807W        W43221  16.771  13.236   6.456  0.0003 -0.1702 -0.1706
29808W        W43222   8.535  12.389  11.329 -0.0350 -0.0399 -0.0704
29809W        W43223   6.181   1.732   9.869  0.0013  0.2874  0.0170
29810W        W43224   6.917  13.337  10.799 -0.0042  0.2249 -0.0851
29811W        W43225   3.456  12.891   6.513 -0.0728 -0.0261  0.1696
29812W        W43226  15.328  12.109   5.012 -0.2990  0.0191  0.0608
29813W        W43227   0.043   6.020   5.563 -0.0796  0.0318  0.3491
29814W        W43228  13.717   3.538   2.828  0.1428  0.0121  0.1647
29815W        W43229  18.058   0.009   0.020 -0.0917 -0.0382 -0.4067
29816W        W43230   1.844  13.941  14.026  0.2290  0.1205 -0.3679
29817W        W43231   4.101   0.881   4.283 -0.1427 -0.4023 -0.0117
29818W        W43232   4.517  17.271   4.020  0.2440 -0.0578 -0.3279
29819W        W43233  11.011   7.224  13.507  0.1492  0.3795  0.1913
29820W        W43234   0.477  12.140  10.161 -0.1401 -0.0943  0.1683
29821W        W43235   7.823   4.323  14.513  0.0992  0.4819 -0.1254
29822W        W43236  10.726   1.338  12.933 -0.0145 -0.0442  0.2041
29823W        W43237   9.766   7.006  12.352  0.0213  0.0496 -0.0770
29824W        W43238   7.090  15.149  11.470  0.1729 -0.0618 -0.1620
29825W        W43239   4.277  16.962   6.353 -0.3705 -0.1036  0.0339
29826W        W43240   1.297  13.338   4.528 -0.1118  0.2205  0.0247
29827W        W43241  15.962   9.739  11.486  0.0074  0.2289 -0.1692
29828W        W43242  17.750   4.692  13.042  0.0348  0.1614 -0.1297
29829W        W43243  15.655   7.124  11.336  0.0220  0.2315 -0.2978
29830W        W43244  17.306  13.799   5.460  0.0563  0.0639  0.2132
29831W        W43245   5.282   2.858  13.540 -0.1029 -0.0519 -0.1694
29832W        W43246   7.281  15.133   3.900 -0.0342  0.2310  0.1371
29833W        W43247   1.629   3.659  10.797 -0.0967 -0.0375  0.2471
29834W        W43248   4.897   4.797  12.645  0.1379 -0.0943  0.0662
29835W        W43249  16.440   8.085  15.866 -0.0090  0.1100  0.0092
29836W        W43250  11.592  11.498   3.407  0.2453  0.2128 -0.2264
29837W        W43251   7.378  17.011  16.427 -0.1189 -0.0756  0.0940
29838W        W43252   3.293   1.588   0.652  0.2713 -0.1486  0.1687
29839W        W43253  12.407  11.562  14.649 -0.3267  0.3390 -0.2377
29840W        W43254   1.421   5.779  11.148 -0.0060  0.1692  0.3067
29841W        W43255   2.500  11.753  15.793  0.2008 -0.0274  0.0713
29842W        W43256  14.508   2.124   6.094  0.0073 -0.0892 -0.0794
29843W        W43257   9.120   5.046   5.477 -0.1387 -0.0193 -0.1698
29844W        W43258   7.615  15.006  13.389  0.1087  0.2366 -0.0675
29845W        W43259  17.039  16.468  13.727 -0.1443  0.0533  0.1038
29846W        W43260   2.609   2.832  11.276 -0.2238 -0.2926  0.0097
29847W        W43261  17.268  15.896  11.845  0.1491 -0.0363 -0.0110
29848W        W43262  17.197   3.295   1.994  0.2221 -0.3324  0.1970
29849W        W43263  18.185   6.526  16.001 -0.0111 -0.0584 -0.0831
29850W        W43264   3.076  17.575  12.313  0.3053 -0.2059  0.0233
29851W        W43265  13.980  17.265   5.401 -0.1893 -0.3522 -0.2358
29852W        W43266  12.673   5.408   4.854  0.0009  0.0261 -0.0623
29853W        W43267  12.339  17.569   0.665 -0.2017 -0.0039 -0.2002
29854W        W43268  10.937  14.944  11.831 -0.1539 -0.0077  0.3804
29855W        W43269   5.990  12.642  13.291 -0.2719  0.2869 -0.3408
29856W        W43270   8.694   1.082   4.603 -0.0257 -0.2734  0.1646
29857W        W43271  14.718  14.163  14.342 -0.0032  0.1194  0.1738
29858W        W43272   9.972  12.770   4.408 -0.2051 -0.1196 -0.1251
29859W        W43273   2.490   6.849   4.205  0.2334 -0.0786  0.0591
29860W        W43274  15.906   9.756   5.632  0.0481 -0.0434 -0.1783
29861W        W43275  13.564   1.715  11.372 -0.2102  0.2829 -0.0442
29862W        W43276   4.456  12.535   5.724  0.1610  0.0320  0.0687
29863W        W43277   1.474   9.257  15.228 -0.2441  0.3097  0.0305
29864W        W43278   8.991  14.968  14.309  0.0103  0.1446  0.2055
29865W        W43279   3.096   3.795   5.576  0.1346  0.1113  0.1861
29866W        W43280   9.227   0.185  10.569  0.0960  0.0313  0.1386
29867W        W43281  16.572   1.049   1.533 -0.0165 -0.0226 -0.3074
29868W        W43282  12.737   5.621  15.134  0.0028  0.2514  0.0746
29869W        W43283  16.240  17.665   5.480 -0.2408 -0.1484 -0.2460
29870W        W43284   8.620  11.056   2.594 -0.2358 -0.1752  0.2263
29871W        W43285  15.249  13.903   0.413 -0.1189  0.1074 -0.0538
29872W        W43286   4.992   4.160   1.094 -0.2799  0.1951 -0.1601
29873W        W43287   4.256  17.161  11.360  0.3089  0.1039  0.1459
29874W        W43288  16.716  11.329   1.241 -0.0728 -0.2743 -0.0670
29875W        W43289   3.958   6.879  11.756  0.2075 -0.1218 -0.0352
29876W        W43290   1.155  12.978   1.870  0.4487 -0.1767  0.1290
29877W        W43291  14.176   0.013  12.803  0.0184 -0.2707 -0.0848
29878W        W43292  10.920  15.753   3.844 -0.1846  0.0729 -0.2643
29879W        W43293  12.802   6.076  12.797 -0.3053 -0.1116  0.0407
29880W        W43294  12.369   7.022   4.424 -0.2216 -0.2354 -0.0293
29881W        W43295   7.349  13.176  15.059 -0.3018  0.0923 -0.1277
29882W        W43296   9.219  18.256   4.897 -0.3577 -0.3056  0.2141
29883W        W43297   8.949  10.656   1.869 -0.0021  0.1618  0.0437
29884W        W43298  12.086  12.444   1.151  0.3294 -0.0481  0.0549
29885W        W43299   3.180  10.614   2.782  0.0006  0.1617 -0.0778
29886W        W43300   9.796  12.000  12.613 -0.0952  0.0850  0.1997
29887W        W43301  10.015  15.625  12.844  0.0752 -0.1974  0.1415
29888W        W43302   8.978  16.967   2.432 -0.4492  0.2348 -0.0264
29889W        W43303   3.547  17.273   2.613  0.0934  0.1724 -0.2501
29890W        W43304   1.819   8.821   1.290 -0.1117 -0.1653  0.1512
29891W        W43305  15.828  14.573  12.814  0.2157 -0.1384 -0.3497
29892W        W43306   5.414   4.513   0.959 -0.2145  0.0516  0.2116
29893W        W43307   2.398   8.545  12.601 -0.3645 -0.1276  0.0607
29894W        W43308   0.839   5.282   2.722 -0.1452  0.0286  0.0277
29895W        W43309  15.014  17.241   1.957 -0.0153  0.3688 -0.0712
29896W        W43310  10.221  16.540  13.365  0.1347  0.1833 -0.1147
29897W        W43311   2.322   6.081   0.319  0.2229  0.0789  0.3660
29898W        W43312  10.158  12.256  15.858 -0.1061 -0.0537  0.0073
29899W        W43313  15.361  12.198   2.586  0.2663  0.0336  0.2425
29900W        W43314   5.842   5.395  13.143  0.0244  0.1717 -0.1506
29901W        W43315   5.610  16.824   0.506  0.0471 -0.0079  0.2364
29902W        W43316   8.148   1.703   3.169  0.4054 -0.2327 -0.1969
29903W        W43317  10.286   4.643  15.259  0.0852 -0.0938  0.0498
29904W        W43318   8.942   5.216   4.794  0.2136  0.1949  0.1667
29905W        W43319  13.432   1.309  11.607  0.0461 -0.3830 -0.1907
29906W        W43320   4.037  11.565  11.670  0.0827  0.1570  0.3042
29907W        W43321   3.383  17.211  12.539 -0.1252 -0.0256  0.2783
29908W        W43322   8.910  10.410  15.613 -0.1527 -0.0639  0.2681
29909W        W43323  10.454   8.279  11.252 -0.1229  0.0595  0.1826
29910W        W43324  12.804   6.972  12.825  0.1419  0.0123  0.0760
29911W        W43325   0.618   8.047  15.729 -0.1121 -0.1041 -0.2200
29912W        W43326  10.302   5.385   2.391 -0.0933  0.1856 -0.0507
29913W        W43327  16.031   4.438   1.260 -0.1713  0.2369 -0.0753
29914W        W43328  12.701   1.368  14.449 -0.0383 -0.2732  0.0592
29915W        W43329  14.115   8.475  15.631 -0.2108 -0.3977 -0.1784
29916W        W43330   6.681  15.946   2.796 -0.2303  0.0354  0.1657
29917W        W43331  15.380   1.567   2.846 -0.1889  0.1009 -0.0821
29918W        W43332   0.672   2.354  13.748 -0.0709 -0.0436  0.0417
29919W        W43333   3.310  13.637   5.991 -0.1825 -0.1337 -0.0788
29920W        W43334  16.731   5.263   1.969  0.0650 -0.0346  0.0448
29921W        W43335   5.456  12.232  13.861  0.0617  0.0114 -0.0765
29922W        W43336   4.541   1.930  11.010  0.2513  0.0551 -0.1349
29923W        W43337   9.931   6.482  15.230 -0.1238  0.1674  0.1121
29924W        W43338  17.147   6.742  12.533  0.0605 -0.1377  0.0413
29925W        W43339  15.222  11.700   3.241  0.0206  0.0240 -0.1714
29926W        W43340   0.237  11.718  12.969  0.2811 -0.1802  0.0805
29927W        W43341   1.512   4.970   1.907  0.3094  0.2489 -0.1869
29928W        W43342   4.437  14.982  12.170 -0.0608 -0.0416  0.0337
29929W        W43343  17.234  15.578  12.364 -0.2028  0.5264  0.4490
29930W        W43344   6.140  10.181  15.422  0.2178 -0.0927 -0.0055
29931W        W43345   6.372   3.985  13.497  0.2903  0.0196  0.1593
29932W        W43346   3.599   9.676  16.213  0.1039  0.0275  0.0364
29933W        W43347   4.944  12.471  12.857  0.1178 -0.2218 -0.0439
29934W        W43348   7.941   9.956   2.624  0.2597 -0.0369  0.0594
29935W        W43349  12.564  14.373   1.640  0.0382 -0.0549  0.0155
29936W        W43350   6.257   6.065   0.449  0.3887  0.3028  0.1940
29937W        W43351   1.765   2.567  11.236 -0.0220  0.1022 -0.0604
29938W        W43352  11.684  14.880   1.887  0.0054 -0.1781  0.3140
29939W        W43353  17.811  12.690   4.878  0.0006  0.2703  0.1658
29940W        W43354   4.414  16.575   1.010  0.0191 -0.0222  0.1837
29941W        W43355  17.073   8.774   3.355  0.0746 -0.0819  0.0451
29942W        W43356  13.363   6.036   5.088 -0.0114  0.1697  0.3121
29943W        W43357   6.324   5.059   0.410  0.3324  0.0399 -0.0667
29944W        W43358   0.004   8.111   2.830  0.3178  0.0396 -0.0917
29945W        W43359   0.580  11.630   4.475 -0.1558  0.0455 -0.1385
29946W        W43360   2.487  11.123  14.381  0.1196 -0.0215 -0.2465
29947W        W43361   7.159   5.054  14.467 -0.2433  0.1724  0.1529
29948W        W43362   6.308  15.068   2.760  0.2157  0.2166  0.2489
29949W        W43363   2.058   6.840  12.212  0.2276 -0.1856  0.1343
29950W        W43364  16.639  10.846  13.971 -0.0510  0.0734  0.1728
29951W        W43365   7.561  15.884  14.851 -0.0217  0.1231  0.0988
29952W        W43366   5.703  13.875  12.191 -0.1888 -0.3830  0.1586
29953W        W43367  17.491  10.607   1.121  0.0397  0.0495  0.0690
29954W        W43368  12.471   7.779   2.837 -0.2146 -0.1624 -0.2109
29955W        W43369  12.194   9.305   3.694  0.0800 -0.3310 -0.1382
29956W        W43370   6.721  12.064  15.756 -0.2382  0.0880 -0.1747
29957W        W43371  15.249   6.242  11.133  0.2838  0.1424  0.0513
29958W        W43372   4.822   0.596   1.936  0.1167 -0.1729 -0.1748
29959W        W43373   9.190   3.106   1.009  0.1054 -0.1145 -0.2477
29960W        W43374  12.467   4.631  10.748 -0.0553  0.1075 -0.1681
29961W        W43375   8.671   3.529  12.164 -0.0822 -0.2247 -0.0419
29962W        W43376   9.702  17.036  12.202  0.1294  0.2307  0.0110
29963W        W43377   7.313   9.840   3.776  0.0004  0.0335  0.3518
29964W        W43378   6.533  16.604  15.372 -0.0532 -0.2733  0.0345
29965W        W43379   9.798  12.322  10.116  0.0400 -0.1751 -0.1549
29966W        W43380  15.371  10.726  14.028  0.1137 -0.1602 -0.1553
29967W        W43381  11.180  17.577   2.305 -0.0503  0.2880 -0.2621
29968W        W43382   2.820  18.200   0.524  0.0085  0.2453 -0.2210
29969W        W43383  16.131  12.473   4.327 -0.1469 -0.2861 -0.1018
29970W        W43384   9.743  12.984  16.304  0.0998  0.0283  0.2657
29971W        W43385   8.062  11.264   5.937  0.1530 -0.0311  0.0388
29972W        W43386   9.215   3.467   1.770  0.0975 -0.3437 -0.1505
29973W        W43387   2.005   2.248   4.721  0.0677  0.0100 -0.1915
29974W        W43388   8.564  14.847  10.606  0.2268  0.2491  0.2961
29975W        W43389   3.767   4.237  12.820 -0.1718 -0.1773  0.0866
29976W        W43390  11.325  16.891  10.890 -0.1549 -0.2869  0.1855
29977W        W43391  10.925   8.327   0.813  0.0244  0.0931  0.1013
29978W        W43392   8.394   9.686   0.444 -0.2764 -0.1758 -0.2487
29979W        W43393   6.682  11.666  14.220  0.0764 -0.6409  0.0144
29980W        W43394   9.868   1.493  15.548 -0.1435  0.1472 -0.1607
29981W        W43395   7.504   7.694  12.201  0.1804  0.1221  0.1356
29982W        W43396   3.279  11.136   2.783  0.3234  0.1286  0.1665
29983W        W43397  11.234  11.070   4.077  0.1209 -0.3011 -0.1640
29984W        W43398   5.205  14.688  12.620 -0.1351 -0.2659  0.2127
29985W        W43399   6.462  16.362  12.729  0.1659  0.0401  0.1295
29986W        W43400   3.564  11.317  12.903 -0.0018 -0.1484 -0.0705
29987W        W43401   0.560  12.105   1.582  0.0919  0.0865 -0.0782
29988W        W43402   8.485  13.715  13.252 -0.1864 -0.0705  0.2061
29989W        W43403   3.175   5.062   4.854 -0.2738  0.1828  0.0016
29990W        W43404   2.478  11.505  14.749 -0.4782 -0.2821  0.2205
29991W        W43405   0.002  16.921  11.404 -0.0691 -0.2891 -0.0380
29992W        W43406   0.083   3.009   1.580  0.0680 -0.3040  0.2110
29993W        W43407  12.936  16.415   2.767 -0.0007  0.3186 -0.3238
29994W        W43408  17.639   2.729  15.614 -0.2011  0.1510 -0.2652
29995W        W43409  13.813  16.442  10.815 -0.0458  0.1467  0.0976
29996W        W43410  12.942  16.208  15.285 -0.1733  0.1073  0.1212
29997W        W43411   2.088   4.447   3.188  0.0184  0.1467 -0.2923
29998W        W43412   7.108   3.115   5.002  0.1278  0.0581  0.3009
29999W        W43413  15.626   9.423  15.117 -0.0836 -0.0732 -0.0108
30000W        W43414   1.511   0.016   1.940 -0.1144  0.1915 -0.2440
30001W        W43415   8.491  14.841   0.457  0.0386 -0.2861 -0.1193
30002W        W43416   1.267   7.377  14.977 -0.2979 -0.0306 -0.1114
30003W        W43417  13.482   4.881  15.397  0.0833  0.0140  0.0273
30004W        W43418  16.458  14.638   4.676  0.0372  0.2029  0.0535
30005W        W43419   4.871   3.801   2.947  0.1248 -0.1602 -0.1419
30006W        W43420  11.475   3.121  13.243  0.0694 -0.4355 -0.0007
30007W        W43421   8.839  17.176   2.925  0.0441  0.0732 -0.1219
30008W        W43422   0.732  13.805  14.770  0.0924  0.0378 -0.1222
30009W        W43423  17.532   1.635   5.328  0.1400 -0.1106  0.1258
30010W        W43424  10.512   5.908   4.741  0.0880  0.2316 -0.1675
30011W        W43425   2.639   7.458   5.392 -0.1596  0.0324 -0.0217
30012W        W43426  17.916   0.004   4.889 -0.0217 -0.0895  0.0011
30013W        W43427   2.449   3.205   2.547 -0.0614 -0.3943  0.2546
30014W        W43428   0.094   3.446  15.300  0.2828  0.1353  0.5656
30015W        W43429  13.783  15.711  15.672  0.1263 -0.2756 -0.2050
30016W        W43430   1.955  10.115  10.531 -0.1053  0.3044 -0.1729
30017W        W43431   1.701  16.044   2.600 -0.1189 -0.1049  0.0185
30018W        W43432   9.770   7.292   3.571 -0.1229  0.3664  0.0293
30019W        W43433  14.063   9.847   1.966  0.1422 -0.0451 -0.3062
30020W        W43434  14.750  15.192   3.658  0.1028  0.0348  0.0640
30021W        W43435   1.525  13.925  15.662  0.4460 -0.0574 -0.0941
30022W        W43436  17.122   1.980   2.704 -0.1814 -0.4628  0.0312
30023W        W43437   2.412   3.535   2.913 -0.0805  0.3092  0.1197
30024W        W43438  17.011   8.398   5.160  0.3010  0.1996  0.1638
30025W        W43439  11.506  10.826   0.327 -0.0104  0.0006 -0.0107
30026W        W43440  11.946  11.084   4.591 -0.0399  0.2342  0.0410
30027W        W43441   9.480   4.100   3.965  0.0124 -0.3239 -0.1911
30028W        W43442   0.552   6.437   3.419  0.0677  0.0479 -0.1445
30029W        W43443   5.260   9.986   2.337 -0.1007 -0.2159 -0.1856
30030W        W43444   9.858   7.412   1.189  0.0455  0.0234  0.0233
30031W        W43445   5.978  14.320  12.028 -0.0160  0.0865 -0.1053
30032W        W43446  16.679  14.118  15.739  0.2151  0.0567 -0.2008
30033W        W43447  15.208  11.275  10.257  0.3365 -0.2381  0.3119
30034W        W43448   6.057   9.419   3.554  0.1180  0.0145 -0.2569
30035W        W43449  17.455  17.967   9.939 -0.4227 -0.0801  0.0532
30036W        W43450  10.797  14.117   5.058  0.1267  0.1127 -0.2477
30037W        W43451   8.662   0.055  12.363  0.1272 -0.0737  0.1090
30038W        W43452  11.153   4.692   1.038  0.1433 -0.0633  0.3292
30039W        W43453   2.086  17.036   2.883  0.2062 -0.0117  0.1551
30040W        W43454   6.982  10.452   5.007 -0.1383 -0.0425 -0.1339
30041W        W43455   0.677  16.555  16.179  0.0566  0.0385  0.2034
30042W        W43456   5.133  16.689  15.491 -0.1757 -0.0373  0.2005
30043W        W43457  17.083  13.445  12.907  0.0829 -0.2844 -0.3372
30044W        W43458   4.978   0.467   0.165  0.3460 -0.0963 -0.0230
30045W        W43459   9.699   9.097  12.689 -0.2438  0.1150  0.1197
30046W        W43460  15.888   0.067   3.219  0.0900  0.1669 -0.0443
30047W        W43461   0.817   8.521   4.795 -0.0519 -0.1109  0.4098
30048W        W43462   9.917   3.852   1.084  0.0081 -0.3206 -0.0397
30049W        W43463   5.869  17.023  16.049 -0.0616 -0.0895  0.0629
30050W        W43464   5.547   5.371  16.301 -0.0443  0.1773 -0.2482
30051W        W43465   1.141  16.929   1.747 -0.0729  0.0330 -0.2675
30052W        W43466  18.034  17.847   6.077  0.0896 -0.1081 -0.2191
30053W        W43467  15.069  16.935  11.630 -0.0856 -0.0699  0.1307
30054W        W43468  14.946  11.454  12.194  0.0777 -0.5007 -0.1486
30055W        W43469  11.615   7.635  13.900 -0.0138 -0.0955  0.0411
30056W        W43470   7.308   2.517   2.358  0.0572 -0.0268  0.1895
30057W        W43471   0.563  17.721  11.456 -0.1598  0.0895  0.0866
30058W        W43472   7.512  12.057  14.873 -0.2845  0.2693  0.1873
30059W        W43473   1.617   4.849  12.815  0.0984  0.0295  0.1790
30060W        W43474  12.907  11.698  14.777  0.1307 -0.2262 -0.2424
30061W        W43475   0.565   4.900  14.113 -0.0036 -0.1414 -0.0241
30062W        W43476   5.618   7.804   0.344 -0.2032 -0.0545  0.1461
30063W        W43477   7.759   2.658  11.305 -0.3546  0.1565 -0.1940
30064W        W43478  14.161   6.835  16.319  0.1377 -0.0084  0.1511
30065W        W43479   3.900   5.857   6.364 -0.0759  0.1072 -0.0490
30066W        W43480  14.125  14.503   2.989 -0.0267 -0.2101 -0.2997
30067W        W43481  14.694   1.412  13.817  0.1816  0.0072  0.0551
30068W        W43482   1.526   2.535   3.469  0.0511  0.1020 -0.3594
30069W        W43483   9.083  12.282  11.433 -0.2137  0.2001  0.1099
30070W        W43484   4.250   8.693  13.836  0.0132  0.2015 -0.1809
30071W        W43485   2.482   1.305   1.786  0.2791  0.1956 -0.0388
30072W        W43486  10.571  18.065   4.782 -0.0525 -0.0362  0.0568
30073W        W43487  13.426   8.515  14.400  0.3323  0.0356  0.0964
30074W        W43488   8.857  11.440   1.376 -0.1376 -0.0111  0.2134
30075W        W43489   0.587  14.326  12.252  0.0486  0.0132 -0.0412
30076W        W43490   0.914  11.252   4.496  0.0688  0.0130 -0.1239
30077W        W43491   6.862  11.738  12.422  0.1718 -0.0603 -0.0213
30078W        W43492   3.847   9.242   4.290 -0.0774 -0.0610  0.1740
30079W        W43493  16.432  11.693  10.304 -0.0156  0.1400  0.2184
30080W        W43494  12.195   1.612   4.675  0.1489  0.0152 -0.0333
30081W        W43495  10.889   3.414  13.914  0.1551 -0.1117  0.0025
30082W        W43496   2.643   6.977   4.745  0.2222  0.2510  0.3096
30083W        W43497   9.925  14.521   1.645 -0.1068 -0.1354  0.1442
30084W        W43498   7.984   0.598   5.912 -0.0304  0.2762 -0.0089
30085W        W43499  16.177   5.417   0.162  0.2516 -0.2122 -0.1714
30086W        W43500   9.659   7.326   5.760 -0.4048  0.2277  0.1245
30087W        W43501   1.200   8.104  12.907 -0.0923 -0.2627  0.0811
30088W        W43502   1.219   2.711  10.716  0.0619 -0.2715 -0.3370
30089W        W43503  11.084   5.178  11.701  0.1867 -0.0576 -0.2500
30090W        W43504  14.954  17.869  11.185 -0.1109  0.0100 -0.2482
30091W        W43505   4.506  15.373  11.268 -0.0236  0.1549  0.0267
30092W        W43506  11.904   7.929  12.361 -0.0361 -0.1067 -0.1522
30093W        W43507   9.467  13.378  16.404  0.2300  0.1193 -0.2617
30094W        W43508  11.738  17.103   9.661 -0.1263 -0.1631 -0.0509
30095W        W43509  13.308   5.258  15.705  0.3776 -0.0987 -0.0576
30096W        W43510   3.278   5.961  11.335 -0.5516  0.0904 -0.2403
30097W        W43511   2.054  11.359   1.294  0.4028 -0.1118  0.0996
30098W        W43512   5.850   3.208   1.957 -0.4346  0.1801 -0.1701
30099W        W43513   4.093   5.310  11.845 -0.0844  0.0124 -0.0477
30100W        W43514  12.014   7.883   4.550 -0.2802 -0.1468 -0.0271
30101W        W43515  16.488   1.165  10.524  0.0602 -0.1923 -0.0824
30102W        W43516  11.494  17.934   4.325 -0.1258 -0.1242  0.1764
30103W        W43517   1.830   7.903  14.957 -0.0605  0.0849 -0.0525
30104W        W43518   2.836   7.378   1.045 -0.1001  0.2825 -0.2030
30105W        W43519  12.290  13.378   1.982  0.0306 -0.0535  0.1454
30106W        W43520   3.958   7.911  13.052  0.0270 -0.0038 -0.0878
30107W        W43521   6.075  15.878   3.502  0.1107 -0.1761 -0.0505
30108W        W43522   8.613  14.357  11.733 -0.0509 -0.0762  0.3238
30109W        W43523  10.718   7.736   2.753 -0.0942  0.3425  0.1177
30110W        W43524   6.557   4.658   0.524  0.0789  0.2456 -0.2215
30111W        W43525  16.846   2.183   4.020  0.2030  0.0711 -0.1618
30112W        W43526   5.282  10.941   1.344 -0.0412  0.2573 -0.0509
30113W        W43527  12.274  11.385  16.091 -0.0602 -0.0901 -0.0327
30114W        W43528  13.902  12.426  11.710 -0.1066 -0.1371 -0.1517
30115W        W43529   6.488   1.478  10.840 -0.0270  0.2104 -0.1877
30116W        W43530  14.851   8.027  15.063 -0.1771 -0.1358 -0.0074
30117W        W43531  15.763  17.786  12.443 -0.2042 -0.0132 -0.4786
30118W        W43532   0.525   2.914  15.960 -0.0701  0.2946  0.0888
30119W        W43533  18.009   4.369   0.653  0.0020  0.1383 -0.2122
30120W        W43534  13.702   2.307  13.337  0.0954 -0.0293  0.2413
30121W        W43535   4.762   0.433  10.748  0.2124  0.0840  0.1531
30122W        W43536   8.092  16.093   1.903  0.4312  0.0758 -0.2737
30123W        W43537   8.863  17.732  11.391 -0.1311  0.2238  0.1329
30124W        W43538  17.990   2.153   0.386  0.3032  0.3648 -0.2044
30125W        W43539   1.675   2.909  14.624 -0.0244 -0.2207 -0.0980
30126W        W43540   3.886   1.798   2.688  0.0285  0.2733 -0.0178
30127W        W43541  13.704   8.610   2.329  0.0268  0.1096 -0.1714
30128W        W43542   2.933  17.082   1.766  0.0469 -0.0486  0.1512
30129W        W43543  10.363   9.924   3.731 -0.2587  0.0579 -0.0812
30130W        W43544   4.878   5.258   1.800 -0.0061 -0.1477 -0.0944
30131W        W43545   0.119   5.019   2.241 -0.1428 -0.0261 -0.0594
30132W        W43546  18.089  10.447   5.557  0.0070  0.1598  0.2237
30133W        W43547   8.628   5.606   1.136 -0.0464  0.3348 -0.0254
30134W        W43548  16.169  12.044  16.484 -0.0243  0.0777  0.1028
30135W        W43549   0.332  15.190   0.594 -0.2360  0.2016  0.1550
30136W        W43550   7.135   6.386  11.669  0.0478 -0.1162  0.0534
30137W        W43551   0.714  11.958  16.333  0.1241  0.2867  0.3248
30138W        W43552   9.178   1.726  11.962 -0.2993 -0.1182 -0.0571
30139W        W43553   8.540   9.270  12.895 -0.3919  0.0059 -0.0142
30140W        W43554  10.504  14.711  10.017 -0.1208 -0.1351 -0.1610
30141W        W43555  12.366  15.190   2.690 -0.1869 -0.0258 -0.0082
30142W        W43556  17.750  16.250   0.188  0.3686 -0.2896 -0.1247
30143W        W43557   2.430  14.397  11.259  0.2422  0.1162 -0.0085
30144W        W43558  11.809   9.114  12.356  0.1933  0.0493 -0.0247
30145W        W43559  12.852   8.146   4.743  0.0842 -0.0741  0.2997
30146W        W43560   4.765  14.409   2.114 -0.0970 -0.0933  0.2231
30147W        W43561   2.309   5.236   3.231 -0.0105  0.1210 -0.0474
30148W        W43562   4.010   7.475   1.145 -0.2507  0.1561 -0.2291
30149W        W43563   4.606   1.662   4.923  0.1227 -0.1286  0.1222
30150W        W43564  12.626   3.508   3.981 -0.0772  0.1812 -0.1871
30151W        W43565   5.195   7.347  11.993 -0.2140 -0.2463 -0.0923
30152W        W43566  15.870  12.496   0.046  0.4358  0.1740 -0.1514
30153W        W43567  13.982   3.056   1.781  0.1793  0.1444 -0.2538
30154W        W43568   9.924  10.476  12.291 -0.0172  0.0554  0.1145
30155W        W43569  17.005  11.814  16.158  0.2058  0.0544 -0.0097
30156W        W43570  11.045   9.164  15.432 -0.1275  0.2534  0.1294
30157W        W43571  15.111   2.873   3.144 -0.1547  0.2396  0.2865
30158W        W43572   1.885   7.437   1.285  0.3678  0.1128 -0.1370
30159W        W43573  11.844   6.620  16.265  0.2475  0.2393  0.2329
30160W        W43574  11.427  16.215  14.463  0.2455 -0.1044 -0.2077
30161W        W43575   0.389   6.357   1.113  0.1451  0.1212 -0.0991
30162W        W43576   6.804  15.954  10.696  0.3360 -0.1392 -0.0515
30163W        W43577  13.111   7.144   4.924  0.0375 -0.1353 -0.0224
30164W        W43578  15.732   8.584  12.556 -0.0206  0.2317  0.2702
30165W        W43579  11.135   5.221  10.594 -0.0752 -0.0984  0.0950
30166W        W43580  17.327   2.115  11.664  0.2087 -0.1502 -0.0272
30167W        W43581  16.781   0.049  13.780 -0.2049  0.0646  0.2680
30168W        W43582   6.945  17.376   2.280 -0.4339  0.0055  0.0248
30169W        W43583  10.444  13.410   3.580 -0.0401  0.2440  0.0495
30170W        W43584   8.291   6.095   0.226 -0.0031  0.1015  0.0763
30171W        W43585   3.457   3.718   3.271 -0.1290 -0.0895  0.1280
30172W        W43586  17.053  11.920   2.892  0.1674  0.0470  0.1187
30173W        W43587  16.028   8.822  13.966 -0.3424  0.1053 -0.0901
30174W        W43588   9.561  13.770   5.183  0.0125  0.2724 -0.1457
30175W        W43589   6.192  10.529  10.942  0.2608  0.1889  0.0438
30176W        W43590  17.659  10.789   5.051  0.1149 -0.4168 -0.2155
30177W        W43591  10.470  11.246  15.856 -0.4523 -0.0021 -0.0290
30178W        W43592   4.638   6.846  16.489 -0.2266 -0.2651 -0.0475
30179W        W43593   9.581   1.954   0.197 -0.1636 -0.6047  0.2349
30180W        W43594   2.493  11.049   1.627  0.0337 -0.0698  0.1355
30181W        W43595   2.358  16.850  11.492  0.1500 -0.0314 -0.3381
30182W        W43596   3.375   1.155   2.255  0.2702 -0.1221 -0.1256
30183W        W43597   2.151  17.986  12.165  0.1429 -0.5341 -0.2254
30184W        W43598   4.303   9.768   1.118 -0.0340  0.3297 -0.1221
30185W        W43599  14.846  13.475   3.544  0.0672 -0.0944 -0.1143
30186W        W43600  14.759  15.799   3.915  0.2710 -0.2949  0.1049
30187W        W43601  17.007  15.455  13.175  0.2154 -0.4222 -0.0351
30188W        W43602   2.200   0.812  14.976 -0.3133 -0.0256  0.1371
30189W        W43603  10.980   3.355   1.519  0.0431 -0.0311  0.0686
30190W        W43604   5.114  11.969   4.898 -0.1625  0.0820  0.3146
30191W        W43605   3.914  16.258  13.474  0.0132  0.3098 -0.0846
30192W        W43606  16.410   3.362  14.426  0.0307  0.1103  0.0403
30193W        W43607  15.877  10.367   2.191  0.2071  0.0990 -0.3658
30194W        W43608  16.860  16.565   2.196  0.2749 -0.0289  0.0238
30195W        W43609   8.108  12.944   2.473 -0.0955 -0.1776 -0.0939
30196W        W43610   5.716   6.511  15.382  0.1138  0.1364  0.0456
30197W        W43611  16.698  15.031  13.587  0.2413 -0.2188  0.1243
30198W        W43612   0.832   1.380  15.282 -0.0806  0.0871  0.1153
30199W        W43613   1.606   2.149   5.495  0.1042 -0.1363  0.1937
30200W        W43614  13.380  12.519  12.554  0.1045 -0.0682 -0.1605
30201W        W43615   6.935   2.767  11.505  0.0962 -0.0089  0.1256
30202W        W43616  17.836   5.765   2.544  0.0467 -0.2077  0.1959
30203W        W43617   9.682  16.942   3.875  0.0385  0.0602 -0.0329
30204W        W43618   4.225   7.161  13.153  0.1867  0.2829  0.2922
30205W        W43619  10.222   2.698   3.785 -0.0602  0.0374 -0.1264
30206W        W43620  12.970   2.371  15.569 -0.3263  0.3250  0.1385
30207W        W43621  12.519   5.222   1.613 -0.4302  0.1667  0.0199
30208W        W43622  17.558   7.175  11.569 -0.0060  0.2651 -0.0338
30209W        W43623  10.545  10.879  13.832 -0.0281  0.0822  0.1887
30210W        W43624   6.463  18.163  16.447 -0.3915  0.0615 -0.1365
30211W        W43625  10.886   7.830   9.976 -0.4864 -0.1399  0.0603
30212W        W43626   7.202   0.255   6.300  0.0887  0.0189 -0.0137
30213W        W43627  15.974   5.729   2.154  0.0264  0.0485 -0.1097
30214W        W43628  15.930  13.893  13.587  0.0404  0.1156  0.0399
30215W        W43629   2.718  12.794   5.401 -0.2348  0.1998  0.0973
30216W        W43630   4.123  16.417  14.464 -0.0365  0.3083  0.0210
30217W        W43631  17.093  14.345  16.143  0.1547  0.2014 -0.3124
30218W        W43632   6.686   7.856   4.967 -0.2429 -0.1041 -0.0408
30219W        W43633  15.033   3.401  10.731  0.2453  0.0474  0.0239
30220W        W43634   8.225  16.678  11.460 -0.0102 -0.0655  0.0626
30221W        W43635   0.460  17.777   0.502  0.2733  0.2453  0.0054
30222W        W43636   5.021  12.747   0.122  0.3360  0.2507  0.1292
30223W        W43637   6.804  12.636   4.174 -0.1682  0.3217 -0.0720
30224W        W43638   5.908   5.855   1.242 -0.0978  0.1033  0.0393
30225W        W43639   8.909  11.432   3.909 -0.1119  0.1669  0.3694
30226W        W43640   1.992  10.001   3.076 -0.1962  0.0956  0.0267
30227W        W43641   5.831   0.691   2.700  0.0137  0.2029 -0.1023
30228W        W43642   2.972   6.684   1.270 -0.0626 -0.2105 -0.0494
30229W        W43643   0.752   0.774  10.819  0.1072  0.1230  0.2658
30230W        W43644   6.191   3.231  13.652  0.0667 -0.1320  0.0365
30231W        W43645   2.128  11.853  14.143 -0.1416  0.0322  0.2500
30232W        W43646   7.145   0.538  16.231 -0.1413 -0.1694  0.1705
30233W        W43647   3.256   4.269  11.301 -0.0695  0.0367  0.0747
30234W        W43648  13.892  15.607  15.208 -0.0062 -0.0756 -0.0193
30235W        W43649   3.459   1.020   4.849  0.1156 -0.1097  0.3963
30236W        W43650  16.276  16.718   2.530 -0.0603  0.0196  0.1943
30237W        W43651   6.908   7.915   1.548 -0.2143  0.0366  0.0738
30238W        W43652  17.068   7.727   1.258 -0.2736 -0.1255  0.2257
30239W        W43653  13.554  10.247   2.518  0.1170 -0.4000 -0.2738
30240W        W43654   7.804  15.769   4.699  0.1571 -0.2053  0.1213
30241W        W43655   5.984   5.150  11.381  0.1410  0.0754 -0.2078
30242W        W43656  14.122   5.687   5.056 -0.0824 -0.0476  0.1701
30243W        W43657  12.348  12.029   1.467 -0.1394 -0.3213 -0.1953
30244W        W43658   4.093   5.058  14.504 -0.0973  0.0006 -0.0544
30245W        W43659   9.018  13.077   1.402 -0.0259  0.0536 -0.1973
30246W        W43660   7.888   8.792  12.147  0.1642  0.0439  0.1459
30247W        W43661   1.393   7.180  15.733 -0.0336 -0.2823 -0.1105
30248W        W43662   8.662  14.978  16.465  0.1703  0.2319  0.1166
30249W        W43663   4.945   3.688  12.010 -0.2696 -0.2651 -0.0273
30250W        W43664  13.398  14.307   1.236  0.0959 -0.1786 -0.0380
30251W        W43665   7.688  17.365   3.402 -0.2001  0.2527  0.0380
30252W        W43666   2.118  13.321  12.500  0.3260 -0.0886  0.1370
30253W        W43667   6.394  16.720  12.345 -0.2040  0.1928  0.0373
30254W        W43668  11.079  17.124   2.043 -0.0853 -0.3233 -0.1363
30255W        W43669   4.001   9.369  13.443 -0.0154  0.0742  0.1756
30256W        W43670   1.517   6.971  13.167  0.1599 -0.2011  0.3014
30257W        W43671  13.427  10.834   0.854  0.1582  0.1785  0.2900
30258W        W43672   4.326  15.923   3.769 -0.2844 -0.0555  0.0121
30259W        W43673  18.211   1.360   5.670 -0.0043  0.0668 -0.3345
30260W        W43674  17.654   0.263  14.149 -0.0327  0.1619  0.3147
30261W        W43675   6.815   0.012  11.636  0.1812 -0.1401  0.0564
30262W        W43676   1.278  10.602  14.927 -0.0168  0.2448 -0.1972
30263W        W43677  14.852   7.758  13.825  0.3335 -0.2237 -0.0315
30264W        W43678   8.717   1.422  15.123  0.0241 -0.1870 -0.0644
30265W        W43679  10.539  13.427  15.889  0.0323 -0.0552  0.0131
30266W        W43680   0.728   6.994   1.376 -0.0619 -0.0442  0.3083
30267W        W43681   8.484   2.673  13.677  0.3359  0.2595 -0.0250
30268W        W43682  16.210   9.819  15.996  0.1027 -0.0268  0.0594
30269W        W43683  14.742  14.706  15.752  0.0796 -0.0280  0.0805
30270W        W43684  16.267  15.883   1.158 -0.1541 -0.0356  0.3975
30271W        W43685  10.487   7.124   4.423  0.0007 -0.4198  0.1062
30272W        W43686   1.569  12.941  13.267 -0.4759 -0.0109  0.0312
30273W        W43687  10.811  17.507   1.793 -0.1271 -0.1409 -0.2618
30274W        W43688  12.450  10.673  14.759  0.0254  0.1426 -0.0275
30275W        W43689   4.833   1.431   5.787 -0.3269  0.0339 -0.1018
30276W        W43690  13.985  14.434   1.424  0.0494 -0.1844  0.0468
30277W        W43691  13.340   3.814  12.565 -0.2243  0.1066  0.0887
30278W        W43692  13.540   2.417  11.065  0.2176 -0.2617  0.4049
30279W        W43693   1.321  18.142   2.902 -0.0610 -0.0401  0.1716
30280W        W43694  17.911   2.891  10.536  0.0599  0.1084  0.0402
30281W        W43695   2.939   8.081   4.114  0.1147 -0.1715  0.0386
30282W        W43696  16.192   9.775   4.546 -0.1848  0.0987 -0.1243
30283W        W43697  11.504   0.544  12.501 -0.1494  0.2815 -0.0438
30284W        W43698   7.711   4.569  10.795 -0.0117  0.2023  0.0848
30285W        W43699   2.190   3.118  15.534  0.0179 -0.0681  0.0267
30286W        W43700  14.248  15.698  11.735  0.0593  0.1449 -0.0352
30287W        W43701  15.685  12.725  12.837  0.2315 -0.1386 -0.2094
30288W        W43702  15.379   0.669   4.524 -0.0664  0.0468  0.1756
30289W        W43703  17.802  14.556   1.402  0.3475 -0.0580  0.1356
30290W        W43704  10.440   7.178   5.396  0.3334 -0.3037 -0.0746
30291W        W43705  10.588   9.490   3.832  0.1877  0.0628  0.0310
30292W        W43706  13.905   5.072  15.138  0.2361 -0.0340 -0.1970
30293W        W43707  17.372   4.115  11.753 -0.1804  0.0385  0.0795
30294W        W43708  12.625  15.745   2.412  0.1384  0.2155 -0.1982
30295W        W43709   9.966   3.517   2.274 -0.1267 -0.1546 -0.2720
30296W        W43710  16.516  15.180   3.076  0.0258 -0.1404  0.2052
30297W        W43711   6.180  15.570  11.538 -0.0222  0.1210  0.0311
30298W        W43712   4.991   8.790   3.342 -0.4437  0.0303 -0.0259
30299W        W43713  14.524   9.031   3.137 -0.2607  0.0523 -0.1773
30300W        W43714   7.284   8.555   4.045 -0.2629 -0.1947  0.2872
30301W        W43715   2.186   2.186   2.115 -0.2073  0.3445  0.1000
30302W        W43716   5.289   2.285  10.729  0.4325 -0.2547  0.0556
30303W        W43717  14.113   6.144  14.886  0.0604 -0.3175 -0.2240
30304W        W43718   5.938  13.696  15.510 -0.0331 -0.0676 -0.0140
30305W        W43719   5.784  15.749   4.009  0.0910  0.1376  0.2447
30306W        W43720   7.377   5.884  14.969  0.0523 -0.1666 -0.0079
30307W        W43721  13.850   7.958   3.481 -0.0678 -0.0264 -0.1351
30308W        W43722  11.036  15.744  15.808  0.1718  0.1866  0.0353
30309W        W43723   2.710  11.158   6.687 -0.4347 -0.1960  0.1749
30310W        W43724   9.344   8.621   5.581 -0.2383  0.1278 -0.1318
30311W        W43725   6.604  15.175   4.733  0.2126  0.2930 -0.0105
30312W        W43726   3.837   9.243  10.995  0.0462 -0.3758 -0.1180
30313W        W43727  16.170   8.989   1.975 -0.0644  0.0298 -0.0108
30314W        W43728  14.721  10.165  11.486  0.1338 -0.1602 -0.0441
30315W        W43729  13.789  17.942  12.807  0.1195  0.4036 -0.2423
30316W        W43730   7.819   1.681   0.293 -0.1527 -0.1780  0.1190
30317W        W43731   3.293  12.360   3.445  0.1269  0.1583  0.0999
30318W        W43732   2.461  13.417   2.370 -0.1172 -0.1059 -0.1749
30319W        W43733  12.257  16.827   5.230  0.3616  0.4013  0.0208
30320W        W43734  10.033  17.388  12.828  0.3436 -0.0146  0.2724
30321W        W43735  10.341  10.498  14.957  0.1864  0.0884  0.1557
30322W        W43736   2.511  17.216  14.790 -0.1305 -0.0102  0.0730
30323W        W43737  18.068   5.108   0.877 -0.0753  0.1462 -0.0002
30324W        W43738   0.247   8.761  15.378  0.0697  0.4048 -0.0832
30325W        W43739  13.527   4.650   0.559  0.1652  0.0594 -0.0413
30326W        W43740   1.495  15.259  12.504  0.1426  0.1059 -0.0330
30327W        W43741   8.833  16.332  10.856 -0.2582  0.0759 -0.0376
30328W        W43742  17.353  13.634  16.397 -0.0493 -0.0607  0.0621
30329W        W43743   3.270  11.307  16.370  0.3337  0.0626  0.0451
30330W        W43744   1.323  17.750  11.885 -0.3762 -0.0830  0.3706
30331W        W43745  12.036  15.072  13.381 -0.1067  0.2352  0.0800
30332W        W43746  15.328  13.361  14.078 -0.0725 -0.1324  0.3938
30333W        W43747   0.784   2.321   5.127 -0.1251 -0.1764  0.4364
30334W        W43748  15.359   0.040  15.411  0.1028 -0.3899 -0.0252
30335W        W43749   9.491  14.907  14.413  0.0552  0.0900 -0.0094
30336W        W43750  12.976  10.257   4.011 -0.1403 -0.0741  0.4143
30337W        W43751  12.010   7.435   0.239 -0.0394  0.0432 -0.1066
30338W        W43752  11.050   3.865  15.920  0.3518 -0.3145  0.1485
30339W        W43753  10.250  15.026   2.491 -0.0079  0.0891 -0.2288
30340W        W43754  10.764   3.172  15.546  0.0713  0.3349  0.1540
30341W        W43755   7.948  15.694   4.244 -0.0539  0.3054 -0.2431
30342W        W43756  10.501  17.398  13.303  0.0597 -0.0101  0.1802
30343W        W43757   8.506  12.505   0.532  0.0074  0.0039 -0.1592
30344W        W43758  15.569  11.274  16.414 -0.2260  0.0824  0.2141
30345W        W43759  12.926   9.102   4.879  0.0181  0.1421  0.2372
30346W        W43760  15.987  10.216  15.569 -0.3811 -0.1002 -0.0639
30347W        W43761  12.826  12.635  11.148  0.1111  0.3463  0.0502
30348W        W43762   8.603   6.206   3.880 -0.1595  0.0348 -0.0968
30349W        W43763  12.306   5.102   1.110 -0.2054 -0.0917 -0.0842
30350W        W43764  10.823   6.408   1.198 -0.2787  0.1245 -0.1138
30351W        W43765  16.058   0.826  13.818  0.1532  0.0182  0.0774
30352W        W43766  11.607   3.086  15.788 -0.1947  0.1520 -0.1854
30353W        W43767  16.488  16.639  12.611  0.1148  0.1930 -0.1130
30354W        W43768   3.345  14.305  13.135  0.2751 -0.4121  0.2282
30355W        W43769  11.313   8.011  13.725  0.0393  0.1882 -0.2046
30356W        W43770  17.711  12.730  12.682  0.2051 -0.0905 -0.0334
30357W        W43771  12.498   3.347  14.017 -0.1685 -0.2950  0.3516
30358W        W43772  10.257  15.515   6.162  0.1307 -0.0604  0.2042
30359W        W43773  11.174   4.770  12.466  0.2507 -0.0127 -0.1024
30360W        W43774  15.013   3.196  15.708 -0.0045 -0.1194  0.3818
30361W        W43775   6.201  16.521   5.570 -0.1884 -0.0132 -0.1682
30362W        W43776  16.498  14.247   3.947 -0.1315 -0.0184  0.1164
30363W        W43777  17.000   9.684   3.443 -0.1779  0.0680  0.0619
30364W        W43778  12.347  13.651  13.219 -0.0688  0.4164  0.2582
30365W        W43779  16.808   9.253  12.402  0.2543 -0.1621 -0.0301
30366W        W43780   5.132   5.155   1.268  0.0313  0.1570  0.1530
30367W        W43781   0.147  15.282   5.556 -0.1141 -0.2110 -0.1892
30368W        W43782   2.053   7.384  11.148 -0.2978  0.1591  0.0721
30369W        W43783   2.938  10.464   1.555  0.0033  0.0649  0.0553
30370W        W43784  18.179  17.973  12.384  0.1391  0.1805  0.1632
30371W        W43785   9.284   0.234  14.551  0.2566  0.0402 -0.0635
30372W        W43786  12.457  12.468  13.966 -0.0343 -0.1125 -0.1409
30373W        W43787   5.583   1.872  13.358  0.2697  0.0173  0.1338
30374W        W43788   2.568  15.495  14.626  0.0137 -0.0939  0.3416
30375W        W43789  16.223   9.595   5.007 -0.2319 -0.0340  0.2600
30376W        W43790  17.045  10.422   4.144  0.0279 -0.1452 -0.1827
30377W        W43791   7.405   6.366  14.442 -0.1048 -0.0281 -0.2476
30378W        W43792   8.138  13.040   0.913  0.0895  0.2221  0.1974
30379W        W43793   4.508  14.477  14.270 -0.1390 -0.1018  0.2548
30380W        W43794  15.253   6.990   5.764 -0.0779 -0.2551 -0.2289
30381W        W43795  16.309   5.014   2.459 -0.4171 -0.2518 -0.0035
30382W        W43796   1.253  13.264  13.531 -0.2903  0.0428  0.2805
30383W        W43797   0.672   1.337  16.353 -0.2927 -0.0100  0.1351
30384W        W43798   2.416   4.716   2.913 -0.3418 -0.0860 -0.0716
30385W        W43799  10.169   2.502  16.484 -0.1063 -0.0912 -0.0983
30386W        W43800  12.305  15.898   1.453  0.0045 -0.0254 -0.0098
30387W        W43801  17.634   4.084   0.380 -0.1972 -0.1522  0.2889
30388W        W43802  12.034   3.289  15.675  0.0326  0.0514 -0.0187
30389W        W43803   4.831   3.029   1.164  0.1465 -0.0662  0.1519
30390W        W43804   3.714   1.306   1.765  0.0404 -0.0169  0.0532
30391W        W43805   6.118  18.056  14.394 -0.0799  0.1057  0.1071
30392W        W43806  10.241   1.953   0.395 -0.0659 -0.0635 -0.3323
30393W        W43807  14.199  10.096  12.294 -0.0471 -0.4917 -0.3570
30394W        W43808  11.946  12.097  10.916  0.1597 -0.0747  0.3685
30395W        W43809   1.112   5.235   1.791  0.1163  0.2110  0.2696
30396W        W43810   3.879  17.459   0.886 -0.0388 -0.1444  0.4650
30397W        W43811   5.256   5.297   2.164  0.0615  0.1816 -0.0611
30398W        W43812   8.140  17.651   1.851 -0.2229  0.2054  0.2829
30399W        W43813  14.213   6.916   1.500 -0.3093 -0.3984 -0.1093
30400W        W43814   8.963   0.038   5.872  0.2478  0.1338  0.0271
30401W        W43815   7.065  13.629   2.517 -0.0209  0.0609  0.0422
30402W        W43816   3.699   3.745  14.020  0.2452  0.1123 -0.1951
30403W        W43817   2.412  14.049   0.261 -0.0796  0.2249  0.2422
30404W        W43818   9.358   2.493   4.379 -0.1258 -0.4406 -0.1767
30405W        W43819  10.463  17.193   6.001  0.3172  0.0178  0.1462
30406W        W43820   3.953  17.622   0.367 -0.0747  0.0330  0.1352
30407W        W43821   8.696  16.510  11.315 -0.3668  0.1419 -0.0131
30408W        W43822  11.197   1.733   5.753 -0.3285  0.4631  0.0040
30409W        W43823  17.289  17.630  14.728  0.0024 -0.0643  0.2132
30410W        W43824   9.980   1.103   4.100 -0.0661 -0.1303  0.0992
30411W        W43825   8.763   6.270   0.461 -0.0647  0.0205 -0.2605
30412W        W43826   9.058  11.884  11.776  0.2744  0.1725 -0.1964
30413W        W43827   8.921   6.633  11.509 -0.1520 -0.0668 -0.1853
30414W        W43828   6.283   8.027   4.643 -0.2507  0.0578  0.0715
30415W        W43829   0.931  13.911  14.310  0.1476  0.4052 -0.2754
30416W        W43830   0.881   3.830  12.899  0.0618  0.0015  0.2426
30417W        W43831  11.241  17.491  10.673  0.1064  0.0766  0.1102
30418W        W43832   0.218   9.153   2.602 -0.0321  0.3128  0.0457
30419W        W43833   5.870  15.083   1.178 -0.0741 -0.1552  0.2558
30420W        W43834   9.810  10.749   1.177  0.0042  0.2863 -0.0158
30421W        W43835   5.509  13.195   5.704 -0.1428 -0.0612  0.0790
30422W        W43836   9.643   3.197  16.081  0.1789  0.1796  0.3900
30423W        W43837   3.108   0.610   1.657  0.2859  0.1133 -0.0097
30424W        W43838  12.627  12.960  11.964  0.0026 -0.2303  0.3033
30425W        W43839   6.617   4.000  14.614  0.4675  0.0972  0.2017
30426W        W43840  15.185  15.924  10.875  0.1853 -0.0424 -0.2349
30427W        W43841  13.044   4.368   4.032 -0.1454 -0.3032  0.0912
30428W        W43842  17.317   4.679   1.169  0.0590 -0.4261 -0.1709
30429W        W43843   3.696  13.837  11.870  0.1026  0.1306  0.1144
30430W        W43844   0.465  14.446   2.638 -0.2424  0.1079  0.0041
30431W        W43845   4.177  16.105   5.442  0.2132 -0.1549  0.2862
30432W        W43846   6.492   5.477   3.431  0.0565 -0.1788 -0.1112
30433W        W43847   8.544   2.829   1.858 -0.0260  0.5589  0.2283
30434W        W43848   2.254   6.694  16.355 -0.1768  0.2165  0.2929
30435W        W43849   6.384   2.147   2.868  0.2544  0.0466 -0.0615
30436W        W43850  10.954  15.131  16.270 -0.3333 -0.2823 -0.0500
30437W        W43851  16.409   8.488   2.713  0.0079 -0.0793  0.1286
30438W        W43852  15.088   2.151  15.927 -0.1896 -0.0745  0.0151
30439W        W43853   0.310  16.211  12.278 -0.0795  0.2354 -0.4428
30440W        W43854  10.803  11.156   1.339 -0.2306 -0.0824  0.0722
30441W        W43855   4.049   8.656   1.879  0.1775 -0.1760  0.2034
30442W        W43856  11.404  13.524   1.860  0.1718 -0.1743  0.1013
30443W        W43857   5.598   1.231   4.309 -0.0194 -0.0554  0.0281
30444W        W43858   7.883   6.882   0.502  0.1551 -0.3012 -0.0269
30445W        W43859  16.128   1.879  13.531  0.3864 -0.3608 -0.1102
30446W        W43860   7.995  10.098   1.274  0.0375 -0.1938 -0.1054
30447W        W43861   7.155   7.340   1.691  0.0771 -0.0034  0.2132
30448W        W43862   3.981  15.338  11.357  0.1063  0.0070 -0.1444
30449W        W43863  14.377   3.103  11.829 -0.0744  0.0971 -0.2359
30450W        W43864   5.457  10.545   2.611  0.1029  0.1370  0.1747
30451W        W43865   2.119   3.976   5.057 -0.2537  0.1081 -0.0742
30452W        W43866   2.762   7.088  14.171  0.1577 -0.0173  0.1781
30453W        W43867  14.413  16.793   3.334 -0.0594  0.3213  0.0702
30454W        W43868   9.707  10.921  13.071  0.0569 -0.1828 -0.2190
30455W        W43869  13.990   6.602  12.992 -0.1406  0.0947 -0.3787
30456W        W43870   6.764   0.291  10.712  0.2996  0.0076  0.0779
30457W        W43871  10.959  10.186  15.580 -0.1143 -0.0296  0.1424
30458W        W43872  17.773  12.004  15.383 -0.0091 -0.1151  0.0248
30459W        W43873  15.662  15.294  13.426  0.1011  0.0220 -0.0276
30460W        W43874  14.526  11.901  10.761  0.0927 -0.2152  0.0879
30461W        W43875   7.771  16.330  11.388  0.0585  0.1329  0.0938
30462W        W43876  12.497   9.275  10.940  0.0235  0.1851  0.2881
30463W        W43877   0.106   9.932  11.940  0.1805 -0.1169  0.1126
30464W        W43878   1.124  17.452  15.092  0.2337 -0.0001  0.0138
30465W        W43879  12.507   1.650   5.605  0.1041 -0.3021 -0.0724
30466W        W43880  11.534  14.482   4.237  0.0330  0.2763 -0.0634
30467W        W43881  12.717  13.546   2.223 -0.2236  0.1660  0.4319
30468W        W43882  12.867   8.808   1.711 -0.0742  0.0245  0.0316
30469W        W43883  13.125  15.329  12.290 -0.1737  0.1636  0.0653
30470W        W43884   5.004  16.675  12.644 -0.0255  0.3084 -0.0611
30471W        W43885   5.120  14.146  16.035 -0.3837 -0.1004  0.3467
30472W        W43886   2.247   2.738   1.914  0.0730  0.1572 -0.1808
30473W        W43887   4.994   8.226   4.049 -0.2689 -0.1905 -0.3001
30474W        W43888  12.151   0.493   4.051  0.0868  0.3862 -0.0888
30475W        W43889   6.702  11.406   5.938 -0.0478  0.1495 -0.0028
30476W        W43890  16.367  13.744  13.710 -0.0232 -0.0524 -0.3465
30477W        W43891   6.365   6.428  14.081 -0.0593  0.1963 -0.0698
30478W        W43892  17.837   4.772   2.809 -0.2272  0.0378 -0.1788
30479W        W43893  13.715  15.084  13.642  0.3831  0.1206 -0.2099
30480W        W43894  17.116  16.024  15.935  0.0841  0.0531  0.0788
30481W        W43895  13.995  17.660   5.080  0.1755 -0.0080 -0.2826
30482W        W43896  11.356  16.084  15.885  0.0426  0.1203  0.1772
30483W        W43897  15.254   8.813   4.560  0.1506  0.1390 -0.0687
30484W        W43898  12.516  13.249   3.291  0.0394 -0.1568  0.2299
30485W        W43899   5.694   7.451  16.311 -0.4983 -0.0535 -0.3044
30486W        W43900   9.207   5.626   1.871  0.0091 -0.0861  0.2279
30487W        W43901   9.446   9.946  13.148 -0.4241 -0.2686 -0.0810
30488W        W43902   2.343  10.855   6.779 -0.1573 -0.0607 -0.3071
30489W        W43903   1.245   9.957  11.700 -0.4501  0.3322 -0.2683
30490W        W43904  11.401   5.639  11.979  0.0363  0.6670  0.1750
30491W        W43905  13.634  15.287  12.352  0.0114 -0.1341 -0.1159
30492W        W43906   8.583   6.852   4.661  0.0018  0.0906 -0.4471
30493W        W43907  14.603   7.785   0.556  0.2810 -0.0360 -0.0590
30494W        W43908   0.181  13.387  14.101  0.0447  0.0266 -0.0127
30495W        W43909  13.605  10.377   0.745  0.0725  0.3099  0.0638
30496W        W43910  10.563  10.244  15.847 -0.0206 -0.2626  0.2236
30497W        W43911   3.212   1.291  11.634 -0.0917  0.3681 -0.0958
30498W        W43912  18.092   6.142  12.277 -0.0566  0.0363 -0.0399
30499W        W43913  11.792  17.849  13.776 -0.0766  0.1383 -0.2135
30500W        W43914   6.509  18.138   9.958 -0.0396  0.0680 -0.1648
30501W        W43915  11.985  13.785   2.093  0.0350  0.0737  0.2571
30502W        W43916   3.153   7.364  13.962 -0.0037  0.0265 -0.0156
30503W        W43917  12.275   7.393   2.028  0.0109 -0.2003  0.2066
30504W        W43918   6.277   4.167   0.613  0.0751  0.2677 -0.3097
30505W        W43919   1.431   5.082   5.836 -0.0429  0.0819 -0.4179
30506W        W43920   1.479   9.839   5.685  0.1055  0.0860  0.1984
30507W        W43921   3.464  13.205  13.698  0.0064 -0.1367 -0.0291
30508W        W43922  18.239   7.491   3.177  0.1814  0.1039 -0.1147
30509W        W43923  11.355   2.371  14.295 -0.0437 -0.1639 -0.1576
30510W        W43924  14.807   4.535  14.752 -0.1270  0.0859 -0.2242
30511W        W43925   4.429  12.444  12.865 -0.0072 -0.2654 -0.0423
30512W        W43926  10.898   3.359  12.249  0.5231  0.3321  0.2776
30513W        W43927   4.088   9.595   1.676 -0.0367  0.0458  0.0644
30514W        W43928  15.878  16.208  15.361 -0.2764  0.2348  0.1012
30515W        W43929  12.493  11.220   5.182  0.4076  0.1674  0.2639
30516W        W43930   4.213  17.404   1.326 -0.0938  0.1554 -0.0939
30517W        W43931   3.022   6.305  14.967 -0.0525  0.1081  0.4660
30518W        W43932  14.118  13.259   1.250  0.0256  0.0361  0.3047
30519W        W43933  16.940   2.619  13.107  0.0888 -0.0388 -0.0520
30520W        W43934  13.757   4.600   2.494  0.3887  0.1357  0.1180
30521W        W43935   9.703   0.542  15.983  0.0312 -0.0051 -0.1038
30522W        W43936  10.720  16.819  15.548  0.1131  0.2643 -0.3110
30523W        W43937   2.998   4.672   5.270 -0.2115  0.1160 -0.1567
30524W        W43938  11.742   7.934   0.243  0.0761  0.1858 -0.0915
30525W        W43939   8.228   8.907  14.291  0.0700  0.2678 -0.2218
30526W        W43940  11.051   0.531   2.591 -0.0409  0.3677  0.2812
30527W        W43941   8.838  17.047   4.279  0.0400 -0.1447  0.0613
30528W        W43942   3.133  14.380  12.320 -0.2046  0.0372 -0.4252
30529W        W43943  13.599   1.456   4.896  0.3600  0.1944  0.3223
30530W        W43944   4.446  13.884   2.284  0.1019 -0.2307  0.2669
30531W        W43945  14.177  12.434  16.433 -0.0543 -0.2658 -0.1900
30532W        W43946   1.755   1.507   0.581 -0.3281 -0.1232 -0.1803
30533W        W43947   1.301  18.217   2.384 -0.2100 -0.1650  0.0561
30534W        W43948   6.190  11.806  15.850  0.0000 -0.0225  0.2474
30535W        W43949   3.136  15.855  13.345  0.1308 -0.5549 -0.0891
30536W        W43950  16.901   3.965  10.569 -0.3854 -0.2388  0.0016
30537W        W43951   5.430   6.482   3.546 -0.0721 -0.1371  0.0450
30538W        W43952  14.156   0.227  15.726  0.0254 -0.1624  0.1001
30539W        W43953  16.431  15.826   2.474 -0.0258 -0.1683  0.1233
30540W        W43954   8.863   5.544   5.256 -0.0478  0.1552 -0.1886
30541W        W43955   1.814   6.773   0.044  0.1159  0.3045 -0.2677
30542W        W43956  13.633  15.772   3.367 -0.1586  0.0574 -0.1222
30543W        W43957   0.218  10.314  14.108 -0.1210  0.1728  0.2865
30544W        W43958  16.824   3.953   4.640 -0.3312  0.1863  0.0092
30545W        W43959   2.042   8.087   3.916  0.1270 -0.1926  0.0742
30546W        W43960   6.233  17.656  12.944  0.3077  0.1463 -0.1320
30547W        W43961  15.206  17.477  15.469  0.0255 -0.1528  0.4394
30548W        W43962   0.860   7.339  11.782  0.0290  0.0255 -0.2961
30549W        W43963  12.471   0.938   6.647 -0.0499  0.0634 -0.0858
30550W        W43964   7.702   5.280   0.520  0.0513 -0.1093 -0.1251
30551W        W43965  16.345   1.434  13.270  0.2831 -0.0788  0.2962
30552W        W43966  13.083  10.162   2.857 -0.0069  0.2960 -0.2391
30553W        W43967  11.997   4.625   2.199 -0.0128  0.0041  0.0899
30554W        W43968  12.292  10.088  14.639  0.4777  0.0880  0.2412
30555W        W43969   0.707  15.473   0.454 -0.0202  0.3404 -0.0830
30556W        W43970  16.967  10.894  15.973  0.1161 -0.1003  0.2818
30557W        W43971   5.027  17.452   1.085  0.1455  0.3196 -0.2949
30558W        W43972  10.940  10.197  12.489  0.1191 -0.0081  0.0830
30559W        W43973   5.146   7.007  12.985  0.2034 -0.0553  0.0283
30560W        W43974   8.891   8.602   1.146  0.1956 -0.3925  0.1244
30561W        W43975  17.187  15.004  15.502 -0.0017 -0.0335 -0.0966
30562W        W43976   0.661  14.438   1.351 -0.0037  0.2574 -0.0720
30563W        W43977  11.506   7.721   1.116 -0.1661  0.1712  0.0060
30564W        W43978   8.146  11.428   4.524 -0.3376 -0.1744  0.1467
30565W        W43979  15.654   2.695  11.786 -0.2331  0.0312  0.0344
30566W        W43980  13.994  12.619   1.997  0.2135  0.2746  0.3070
30567W        W43981  14.576  13.108   5.931 -0.1384  0.0242  0.1648
30568W        W43982  11.854   2.813  15.470 -0.3207  0.0180 -0.1757
30569W        W43983   6.912   8.064   4.075  0.2527 -0.0628 -0.0433
30570W        W43984   6.028   3.040   2.843  0.4010 -0.2181  0.0695
30571W        W43985   2.059  13.290   0.525 -0.1023  0.3165  0.2121
30572W        W43986   1.092  18.073  13.074  0.1998 -0.4163  0.1037
30573W        W43987   6.921  17.470  14.907  0.0888  0.2741 -0.1282
30574W        W43988  14.803  17.358   4.859 -0.0685  0.1150  0.3320
30575W        W43989  16.166   0.764   2.434 -0.0288 -0.0463 -0.0922
30576W        W43990   3.046  17.465  12.941 -0.1716  0.1780  0.1791
30577W        W43991   5.189   9.637   4.669 -0.2432 -0.0719  0.4050
30578W        W43992  12.696  14.147   6.028 -0.2790  0.0322 -0.1141
30579W        W43993  17.266   5.623   5.055  0.1024 -0.3558 -0.0808
30580W        W43994  17.611  17.280  13.353 -0.1519 -0.0565 -0.2989
30581W        W43995  18.126  14.936   1.439  0.0226  0.0575 -0.2784
30582W        W43996   7.087  12.485  11.235 -0.3358 -0.2860  0.0600
30583W        W43997  17.736  10.881   2.449 -0.0137  0.1224 -0.5721
30584W        W43998  13.624   4.124   4.857  0.4023  0.1856  0.0662
30585W        W43999  11.640   8.640   4.779  0.0978 -0.0974 -0.0742
30586W        W44000   0.625   3.378  15.874 -0.0033 -0.1299 -0.1154
30587W        W44001   4.543   2.315   3.494  0.1579 -0.0281 -0.0895
30588W        W44002  12.254   2.262   2.026  0.1014  0.0463 -0.1237
30589W        W44003  15.231   2.295   2.361  0.1584 -0.0723 -0.1974
30590W        W44004  17.972   8.480   3.215 -0.0153 -0.2150 -0.0044
30591W        W44005   3.594  11.117  15.067  0.1691 -0.0889  0.0750
30592W        W44006  16.538   8.259  13.078  0.1414 -0.1484 -0.0438
30593W        W44007   1.490   0.566  16.439  0.0283 -0.3543 -0.2149
30594W        W44008  10.355  13.593  16.293  0.1031  0.3008  0.1460
30595W        W44009  12.055  12.288  15.858  0.1927  0.0727 -0.0168
30596W        W44010  10.080   9.503   1.423 -0.0586  0.0798 -0.2103
30597W        W44011  15.251   6.110   4.287  0.0429 -0.2840 -0.0199
30598W        W44012   5.043  11.021   1.800 -0.0468  0.1393  0.0540
30599W        W44013   2.748  13.012   2.100  0.0787  0.1484  0.0180
30600W        W44014   8.956   6.297   3.175 -0.4333 -0.0374  0.2013
30601W        W44015   4.925  10.808   5.975  0.3561 -0.0172 -0.0126
30602W        W44016  17.393   3.715   4.731  0.1868 -0.0343 -0.0330
30603W        W44017   3.942  15.570  15.890  0.1147 -0.0825  0.1378
30604W        W44018  12.755   0.578   3.919 -0.0793  0.3560  0.0392
30605W        W44019  16.002   2.214   4.692  0.1377  0.1504 -0.0069
30606W        W44020   5.008  11.006  13.651  0.2869  0.3632 -0.1726
30607W        W44021   3.433  10.316  15.439  0.0662  0.2872  0.1965
30608W        W44022   5.979  14.035  11.330 -0.0739  0.1470 -0.2405
30609W        W44023  10.921  17.984   1.606  0.1728  0.2159 -0.0784
30610W        W44024  15.183  14.339  12.061 -0.2394 -0.0924 -0.1824
30611W        W44025  15.714  13.014  11.351  0.1229  0.5197 -0.0792
30612W        W44026  14.308  13.853  13.166 -0.2694  0.1026 -0.2149
30613W        W44027  11.470  14.797  12.267 -0.1851  0.0605  0.4036
30614W        W44028  11.898  11.207  11.160 -0.2169 -0.1538 -0.0867
30615W        W44029   3.623  14.962  11.774 -0.0620  0.4139  0.2501
30616W        W44030   3.621  13.037  11.653  0.0514  0.3696  0.1359
30617W        W44031  15.948   7.015   6.398  0.0917 -0.1854  0.1125
30618W        W44032  18.076   4.319  11.353 -0.0743 -0.3645 -0.2973
30619W        W44033   0.212   5.920  10.510 -0.1241 -0.1556 -0.0830
30620W        W44034   6.326   0.811   2.587 -0.1815 -0.1130  0.0427
30621W        W44035   4.218   7.915  11.053 -0.1210  0.0065 -0.0312
30622W        W44036  10.263   5.472   4.045  0.1961 -0.4980  0.0790
30623W        W44037  14.452   0.493   0.611  0.0364  0.1288 -0.1722
30624W        W44038  14.415   8.811  16.347  0.1288 -0.0114  0.1591
30625W        W44039  15.167   3.200   5.044  0.2049 -0.0687  0.0597
30626W        W44040   8.750  13.708   1.144  0.0997  0.1287  0.2474
30627W        W44041  10.982  16.937  13.773  0.2681  0.0199 -0.0198
30628W        W44042  13.699  10.638   3.452  0.0148  0.1928  0.1204
30629W        W44043  17.638  13.332   4.392  0.1456 -0.2098  0.0946
30630W        W44044   0.954   7.674  12.149  0.2768 -0.1486 -0.1765
30631W        W44045   1.128  15.992   4.936  0.1365 -0.0164  0.2449
30632W        W44046   4.393   1.451   0.924  0.1582  0.0401  0.2807
30633W        W44047   4.088   5.702   0.350 -0.0752 -0.0759  0.1129
30634W        W44048  14.251   0.142  13.656  0.0861  0.1406  0.1075
30635W        W44049  13.712  14.517   3.434 -0.0520  0.1391 -0.0394
30636W        W44050   4.677  10.790   2.331  0.0706  0.2708 -0.3798
30637W        W44051  12.941   4.048   1.679  0.1972 -0.0094 -0.1477
30638W        W44052  12.771  17.953   2.745 -0.0146  0.4694  0.1576
30639W        W44053   1.823   4.699   1.574  0.1746  0.2467 -0.1134
30640W        W44054   2.219  15.581  12.800  0.1396  0.0240  0.0338
30641W        W44055   3.549  14.056  13.543  0.1716  0.1202 -0.2757
30642W        W44056  13.793   5.446  12.457 -0.1550  0.1367  0.0980
30643W        W44057  17.589  17.622   5.303 -0.1536 -0.2174 -0.1995
30644W        W44058   2.656  10.406   5.347  0.1994 -0.1078  0.2396
30645W        W44059   3.958   8.970   3.329 -0.2521  0.1978 -0.2110
30646W        W44060   6.648  15.800  11.572  0.1717  0.1425  0.2949
30647W        W44061  14.987   5.223  10.256 -0.0383  0.1167  0.0075
30648W        W44062  17.737  14.617  13.978  0.0153 -0.2012 -0.0780
30649W        W44063  10.724  11.417  14.544 -0.0777  0.0414 -0.0339
30650W        W44064   1.040  10.992  11.544  0.2756 -0.0830 -0.0574
30651W        W44065  12.768   0.917  14.194 -0.1298  0.2270 -0.0573
30652W        W44066  15.717   1.108  10.739 -0.0788 -0.1192 -0.0539
30653W        W44067   4.478   8.598   2.649  0.0812  0.0094  0.1449
30654W        W44068   9.600  12.403   1.017 -0.4145 -0.0815  0.2386
30655W        W44069  10.534  16.148   2.003 -0.0501 -0.3249 -0.0187
30656W        W44070  11.661  13.376   4.860 -0.2905 -0.0857  0.1257
30657W        W44071   7.046  16.291   0.264 -0.1890  0.1751 -0.0536
30658W        W44072  17.011   3.169  12.761 -0.0244  0.1073  0.1150
30659W        W44073  15.563   1.682   1.007 -0.2181  0.0471  0.1573
30660W        W44074  13.752   7.067  16.228 -0.0963  0.1614  0.0446
30661W        W44075   3.333  15.881   0.457 -0.0238 -0.0186  0.2228
30662W        W44076  11.646  13.711  14.065  0.2229  0.0099  0.0344
30663W        W44077   6.405   1.214   3.121 -0.0123 -0.1187  0.1767
30664W        W44078  11.739  15.242  12.465 -0.4432  0.2358 -0.2377
30665W        W44079   9.276   7.738   3.262  0.3157 -0.5447  0.0429
30666W        W44080  13.268   1.397  16.101  0.2195 -0.1616 -0.0798
30667W        W44081   5.555   3.364  16.285 -0.0055 -0.0443 -0.0458
30668W        W44082  13.355   5.968  13.809  0.0783  0.0041  0.2489
30669W        W44083   7.496  11.583  12.520  0.1150  0.1153 -0.0283
30670W        W44084   2.912  14.909  12.447 -0.2876 -0.0420  0.0676
30671W        W44085   1.229   8.389   6.685  0.1191 -0.1131 -0.0879
30672W        W44086   2.941   4.168  13.008 -0.0702  0.1747  0.1706
30673W        W44087   0.175  10.888  11.683 -0.1559 -0.2886 -0.0529
30674W        W44088   9.229  16.371   0.407  0.0880  0.1845 -0.1650
30675W        W44089   8.125   2.361  14.409  0.0207  0.0468 -0.1569
30676W        W44090   4.789   9.163   4.463  0.3176  0.0841  0.2214
30677W        W44091  18.122   2.050  12.596 -0.1795 -0.2025  0.1586
30678W        W44092  14.950  14.370  12.929 -0.3211  0.2497  0.0336
30679W        W44093  11.863  15.919   1.192  0.1663 -0.0572  0.0644
30680W        W44094   6.821   5.026   0.421  0.0780  0.2458  0.1202
30681W        W44095  17.367  12.829  13.722 -0.0856  0.2564  0.0408
30682W        W44096   2.775   2.474   2.595 -0.2632 -0.0619  0.3818
30683W        W44097  14.469   1.614   5.726 -0.0027  0.1920  0.2742
30684W        W44098  11.441   8.543   0.125  0.1088  0.2019 -0.2229
30685W        W44099   5.818   7.661  14.563  0.0749  0.1369  0.0049
30686W        W44100  16.471   2.737  16.093  0.0159 -0.1055 -0.0529
30687W        W44101  16.021  15.895  14.769 -0.0975  0.2349  0.4083
30688W        W44102  17.332   9.242   2.232  0.1275  0.0364  0.1359
30689W        W44103   0.915  13.063  15.595 -0.0921 -0.0879 -0.0342
30690W        W44104  13.974   3.315  14.888 -0.1638  0.1881 -0.0131
30691W        W44105  10.732   2.786  13.783  0.0437  0.1135  0.0146
30692W        W44106  16.197  10.165  12.160  0.0944 -0.3716  0.0571
30693W        W44107   8.744   7.444   0.580  0.5549  0.2493 -0.1356
30694W        W44108  10.863  10.683   6.203  0.1279 -0.2635  0.3067
30695W        W44109   4.743   7.704  12.550 -0.0406  0.0862 -0.1611
30696W        W44110  16.790   4.546  12.452  0.1096  0.0186  0.1379
30697W        W44111   5.197   6.034  13.084  0.1478 -0.2437 -0.2407
30698W        W44112   2.172   2.944  13.731  0.1738  0.2186 -0.0688
30699W        W44113  12.737   4.230  11.617  0.1735 -0.0849  0.0932
30700W        W44114  15.742   1.798   5.343  0.2019 -0.0853  0.0457
30701W        W44115  17.991  13.917   6.089 -0.3496 -0.0790  0.1047
30702W        W44116   2.274   8.409  11.174 -0.1098 -0.3052  0.1914
30703W        W44117   2.797  10.562   5.886 -0.2263  0.1081 -0.0511
30704W        W44118   3.800   4.011   1.119  0.4495 -0.0454  0.1242
30705W        W44119  10.601  14.798   0.637 -0.4698  0.0675 -0.0084
30706W        W44120   8.579   1.964   1.860  0.2197 -0.2087 -0.3124
30707W        W44121  12.428   8.925  11.303 -0.3614  0.2859  0.1182
30708W        W44122  17.593  15.980   4.617  0.2608  0.0980  0.0559
30709W        W44123   6.572  14.203   0.872  0.0544 -0.0997  0.0874
30710W        W44124  14.169   7.807   1.939  0.1346 -0.1677  0.0747
30711W        W44125   6.969   7.563   2.557 -0.2884 -0.2020 -0.1661
30712W        W44126  18.253  11.769   3.743 -0.0615 -0.0589 -0.0400
30713W        W44127   3.200   9.825  11.854  0.2898  0.1095  0.3995
30714W        W44128  14.299   6.435  14.544 -0.1092  0.2448 -0.0793
30715W        W44129   3.507   9.964  15.788 -0.2652 -0.0176  0.0123
30716W        W44130   6.744   6.540  12.100  0.2897 -0.0281 -0.1711
30717W        W44131  13.782   9.290  12.678  0.2797  0.0012 -0.0902
30718W        W44132  18.045   4.709  13.488  0.0990  0.2939 -0.0845
30719W        W44133   4.121  13.753   1.649 -0.1030 -0.0336  0.0590
30720W        W44134  18.052   1.184   4.031 -0.0767 -0.2456  0.0467
30721W        W44135   4.476   1.682   2.773  0.1298  0.0291  0.0416
30722W        W44136  15.600   2.015   2.647  0.0335  0.1031  0.2588
30723W        W44137   4.759   4.633  10.480  0.1467 -0.0229  0.2600
30724W        W44138  13.010  11.109   5.890 -0.2105 -0.2237  0.2769
30725W        W44139  14.995  12.843   5.173  0.2527  0.0960  0.2378
30726W        W44140   3.500   4.864   2.006  0.1119  0.1982 -0.2444
30727W        W44141  15.356   6.299   0.640 -0.1874  0.3180 -0.0410
30728W        W44142  13.332  11.751  12.082 -0.2170  0.1883  0.0248
30729W        W44143   4.675   2.909  14.257  0.1661  0.0961  0.1177
30730W        W44144   1.683   0.948   5.718 -0.1566 -0.1000  0.0882
30731W        W44145   1.633   8.872   0.783  0.0401  0.2518 -0.4749
30732W        W44146  12.822   2.109   3.328 -0.1123  0.0363 -0.2824
30733W        W44147   3.028  14.759   1.883 -0.0913 -0.4141  0.1203
30734W        W44148  13.538   1.802   3.992  0.1354 -0.1454 -0.2391
30735W        W44149   4.638   1.407  11.845 -0.0713  0.0294 -0.0531
30736W        W44150   1.397   8.779  14.336 -0.1674  0.1263 -0.0405
30737W        W44151   2.015   4.826   2.036  0.0510 -0.1184  0.0101
30738W        W44152   9.457   1.799   1.045  0.1090  0.1505 -0.0646
30739W        W44153  12.293   5.104   3.464  0.1062  0.0100  0.0800
30740W        W44154   5.753   6.957   4.977  0.2482  0.1669 -0.0997
30741W        W44155  13.450   8.102   0.248  0.0454  0.0947 -0.1371
30742W        W44156  15.380   5.735  15.913  0.1335 -0.0281  0.0665
30743W        W44157   2.572  12.759   1.017 -0.0944  0.1029 -0.2962
30744W        W44158  17.204  13.254  10.676 -0.1266  0.0398 -0.2389
30745W        W44159  12.328   9.220  15.835  0.3168 -0.0455  0.0223
30746W        W44160  12.532   6.368   2.812 -0.1337 -0.1319  0.0514
30747W        W44161   3.896   3.310  14.427  0.0494  0.0786  0.0919
30748W        W44162  14.158   2.359   0.884  0.3038 -0.0584 -0.0179
30749W        W44163  13.711   9.693  12.270  0.1131 -0.0019  0.1731
30750W        W44164   8.187   2.095   0.523  0.1666  0.1223 -0.1287
30751W        W44165   8.400   7.564  11.912  0.0946 -0.0666 -0.0522
30752W        W44166   5.583  16.463   2.202 -0.1675 -0.0933  0.2007
30753W        W44167   4.206   3.527  12.937 -0.1975  0.1081 -0.0955
30754W        W44168  12.225   9.871  12.348  0.1051  0.5257  0.0445
30755W        W44169  15.396   8.841   2.602 -0.0158 -0.0521  0.0580
30756W        W44170   2.176   3.204   1.277  0.0211 -0.0422  0.1998
30757W        W44171  15.776   0.364   1.390  0.1473 -0.0595 -0.2191
30758W        W44172  13.130  16.369   0.178  0.2169 -0.1927 -0.2612
30759W        W44173  13.582  10.189   3.018 -0.1043 -0.2013 -0.0591
30760W        W44174  13.477   0.823  11.437 -0.1165  0.2079 -0.0856
30761W        W44175   8.257  18.128   2.023  0.2470 -0.0553  0.2154
30762W        W44176   9.742   4.150  14.514  0.0563  0.1213 -0.1471
30763W        W44177  16.081  10.981   4.601  0.0564 -0.3991  0.1022
30764W        W44178  15.000   1.076   4.486  0.5892 -0.1118 -0.0937
30765W        W44179   0.034  14.859  12.644  0.1358 -0.5514  0.0666
30766W        W44180   6.785   6.823  14.988  0.0647  0.3412 -0.0965
30767W        W44181   3.365   3.911   1.594  0.3200  0.1415  0.0285
30768W        W44182  13.419  12.774   0.823  0.0453  0.2106  0.3608
30769W        W44183   7.611  13.018   1.626 -0.1158  0.1393  0.1772
30770W        W44184   3.385   3.269   4.948 -0.1629  0.1691 -0.0668
30771W        W44185   7.845   3.756  16.388 -0.0037  0.0202  0.1168
30772W        W44186  10.107  11.877   4.953 -0.0141 -0.0588  0.1523
30773W        W44187   0.038   4.814  15.039 -0.1631 -0.1004  0.0175
30774W        W44188  13.681  18.014  12.246  0.1657  0.1387 -0.3748
30775W        W44189   0.703  14.722   6.513 -0.1360  0.3814  0.0582
30776W        W44190   2.140   1.917  15.326  0.0931  0.5104  0.4018
30777W        W44191   6.198  16.374   3.394  0.0162 -0.0680 -0.0274
30778W        W44192   7.591   1.481   3.009 -0.0804  0.0820  0.3675
30779W        W44193   5.559   7.236   0.984 -0.1035 -0.1890 -0.0519
30780W        W44194   7.570  11.433   3.105  0.0340  0.0086 -0.2285
30781W        W44195  17.397  11.663   3.967 -0.0047 -0.1811  0.1280
30782W        W44196   3.827  15.857  12.173 -0.0839 -0.3896 -0.1423
30783W        W44197  12.565  13.268   0.049  0.0266  0.2437  0.3296
30784W        W44198   1.082   9.971  10.438 -0.2108  0.1274  0.0088
30785W        W44199  11.567  15.606  11.248  0.1281  0.1518 -0.0104
30786W        W44200  12.317   4.785   3.841  0.1320 -0.0684 -0.4263
30787W        W44201  12.377   5.554   4.433 -0.2043 -0.2461  0.2128
30788W        W44202   1.298  15.979  14.505 -0.2698  0.1770  0.1180
30789W        W44203   0.085  12.787   3.493 -0.1781  0.2985 -0.0577
30790W        W44204  10.415   0.393  10.310 -0.2154  0.2453 -0.1066
30791W        W44205  14.457   6.456   3.133 -0.1620 -0.0243  0.0618
30792W        W44206  16.869   0.913  13.320  0.4374 -0.3093  0.3528
30793W        W44207  13.824   4.598   0.947 -0.2794  0.0036 -0.3012
30794W        W44208  15.670   0.984   6.421 -0.3104  0.0458  0.0762
30795W        W44209   8.246  14.563  15.141  0.0398  0.0427  0.1767
30796W        W44210  11.222  14.525  13.204 -0.0710 -0.0677  0.0113
30797W        W44211  12.579   8.941   4.491  0.0920  0.3791  0.1147
30798W        W44212   0.622   8.015   4.955  0.0756 -0.2205 -0.1220
30799W        W44213   1.955   3.485  11.150  0.1205  0.1052 -0.1414
30800W        W44214  18.099  17.040  12.292  0.1464  0.0120 -0.0145
30801W        W44215  16.657   6.257  11.229  0.0591 -0.0231  0.1377
30802W        W44216   1.314   2.107  13.645 -0.0145  0.2946  0.0328
30803W        W44217  15.037  15.790  13.579  0.4208 -0.1130  0.0026
30804W        W44218  13.205   9.716  12.277 -0.2744 -0.3945  0.3067
30805W        W44219  10.379  11.589   4.139  0.1575 -0.2103 -0.3447
30806W        W44220  15.416  17.523  15.930 -0.1047 -0.2955 -0.1850
30807W        W44221   1.687   7.457  13.275  0.0538  0.0908 -0.0094
30808W        W44222   8.358  17.604  15.685 -0.0539 -0.0286 -0.0749
30809W        W44223  18.163  14.141   1.223 -0.1102 -0.2742  0.1821
30810W        W44224  10.101  10.188   1.124 -0.0583 -0.0381 -0.0617
30811W        W44225  14.521   5.277  12.079 -0.0050  0.1212  0.0416
30812W        W44226  10.437   9.697   2.770  0.1148  0.3660 -0.3193
30813W        W44227  14.449  17.088  14.368 -0.1737  0.2481 -0.0171
30814W        W44228   2.275  11.786   5.371 -0.1514 -0.1715  0.1905
30815W        W44229  13.621  13.495   1.761 -0.0889 -0.1013  0.1294
30816W        W44230   2.829   9.527  11.653  0.1330 -0.0632  0.0649
30817W        W44231  17.253   6.008   1.866 -0.0048  0.0092  0.1912
30818W        W44232   7.553   7.364  16.044 -0.0003 -0.0713  0.3439
30819W        W44233   3.122   9.055   2.573 -0.2249 -0.0110 -0.0719
30820W        W44234  10.407   5.472  14.179  0.1184 -0.2136 -0.0625
30821W        W44235  14.834  15.635   2.920 -0.4284  0.3737 -0.2277
30822W        W44236   4.965  10.046   3.957  0.0429  0.3437  0.2383
30823W        W44237   8.346   8.549  16.329 -0.0478 -0.0140  0.0054
30824W        W44238  10.520  15.090   0.150 -0.1889  0.0258 -0.0465
30825W        W44239   4.483   2.193   6.040  0.1261  0.1064  0.0508
30826W        W44240   4.104  16.240  11.271 -0.1857 -0.2175  0.2291
30827W        W44241  14.915   3.896  10.797  0.1831  0.1556  0.0943
30828W        W44242  10.069  13.868   0.409 -0.0260 -0.0746 -0.0996
30829W        W44243  11.835   8.925  13.283  0.0301 -0.1659  0.0668
30830W        W44244   0.371  16.140   0.958 -0.0771  0.0280  0.3081
30831W        W44245  15.521  12.572  16.200  0.1612  0.1218  0.1853
30832W        W44246  14.748  10.649   0.099  0.1343  0.1262 -0.1857
30833W        W44247   1.719  10.651   4.792 -0.1154  0.0885 -0.0077
30834W        W44248  12.752   6.924   1.367  0.3411 -0.1271 -0.2569
30835W        W44249   6.042   9.754  16.235  0.1281 -0.2961  0.3359
30836W        W44250   1.833   1.807   4.660  0.1903 -0.2677 -0.0247
30837W        W44251   9.674  12.349   5.544  0.0655 -0.1637  0.1683
30838W        W44252  15.975  12.507  15.841  0.1587  0.0530  0.0451
30839W        W44253  17.237  15.209  13.666 -0.0805  0.0111 -0.0578
30840W        W44254   2.622   2.209   5.957 -0.0914 -0.2509 -0.2249
30841W        W44255   8.229   4.561  15.861 -0.2447  0.3276  0.1541
30842W        W44256  17.237  11.313  14.297 -0.2796  0.0989  0.0890
30843W        W44257   9.005   4.687  11.562  0.0503  0.2765  0.1769
30844W        W44258  11.565   1.336  11.348  0.0205  0.0131  0.0735
30845W        W44259   6.575   9.293  12.000  0.0699  0.3954  0.2345
30846W        W44260  12.067   0.827   1.098 -0.1568  0.0440 -0.0640
30847W        W44261  16.801  13.248   3.209  0.1756 -0.1771  0.0569
30848W        W44262  15.148   1.917  14.541  0.2986  0.0695 -0.0317
30849W        W44263  15.825  12.030  14.475  0.0399  0.0986  0.0162
30850W        W44264   5.436  17.470  15.310  0.1706  0.0057  0.1853
30851W        W44265  17.196   9.503  15.479 -0.0010 -0.5988 -0.1980
30852W        W44266   0.778  13.500   3.304 -0.1776 -0.0208  0.1946
30853W        W44267   7.638   9.276  14.870 -0.1294 -0.0689 -0.0859
30854W        W44268   6.951   7.409   5.117 -0.2723  0.2614 -0.0184
30855W        W44269  11.865  16.527  12.261  0.1927  0.0224  0.0111
30856W        W44270  10.152   2.994   2.146  0.0591  0.0349  0.1777
30857W        W44271  15.948   7.448  10.999 -0.0601  0.2391  0.1889
30858W        W44272   9.717  13.958  15.724  0.0130 -0.2523 -0.2749
30859W        W44273  12.453   7.824   3.789  0.0556  0.0829  0.2381
30860W        W44274   5.668  17.685   2.072  0.0792  0.1123  0.1619
30861W        W44275   4.092   9.502   0.164 -0.0750  0.0322 -0.0955
30862W        W44276   5.439   2.211   2.461  0.0605  0.0498  0.1022
30863W        W44277   9.637   2.216   1.684  0.0597  0.0431  0.2037
30864W        W44278  16.203  11.825  14.712  0.0565 -0.1785 -0.2550
30865W        W44279   5.852  14.130  10.863 -0.1910  0.1935 -0.0123
30866W        W44280  13.120   4.295   2.992  0.2661 -0.1331  0.1203
30867W        W44281   4.127   4.231   0.709  0.0011  0.2987 -0.1975
30868W        W44282   5.917   1.394  16.238  0.3396  0.1151 -0.2785
30869W        W44283   9.404   3.747  10.583  0.2136 -0.0994 -0.0554
30870W        W44284   4.585   0.970  13.826 -0.0505 -0.0890 -0.0903
30871W        W44285  13.379   2.581  10.610  0.0513 -0.0440  0.0482
30872W        W44286  16.468  11.236   0.665  0.2235  0.2407  0.0170
30873W        W44287   3.571  16.018   3.083 -0.2623  0.0475  0.1292
30874W        W44288   1.898   2.211  11.657  0.2192  0.0128  0.0302
30875W        W44289  14.221   1.212  11.837 -0.0314 -0.2069  0.1904
30876W        W44290   4.293  12.718  12.501  0.4146 -0.0395 -0.1915
30877W        W44291   2.608  13.340   2.860  0.0193  0.2758  0.2608
30878W        W44292  17.624   8.205   2.944 -0.0874  0.1018 -0.1884
30879W        W44293  14.012  10.117   0.079 -0.2604 -0.0056 -0.2073
30880W        W44294  11.179  12.992  11.819 -0.0889  0.2751  0.1320
30881W        W44295   8.823   2.688   2.648  0.0516  0.0208  0.0775
30882W        W44296  12.992   8.293  15.119  0.1164  0.0348 -0.1015
30883W        W44297  12.055   5.874  13.151 -0.0260 -0.0364  0.0148
30884W        W44298   0.466   8.840  15.810  0.1150  0.1482  0.1877
30885W        W44299   8.359   1.180   5.399  0.1227  0.1232 -0.0083
30886W        W44300   2.961   1.325  13.346 -0.2142  0.1147  0.1557
30887W        W44301   9.545   6.736   5.923  0.0902  0.0109 -0.0886
30888W        W44302   4.552  12.263   2.907  0.1597 -0.1440  0.2148
30889W        W44303  11.811   7.758  11.857 -0.1294  0.3301 -0.2014
30890W        W44304   1.525   9.364   5.039 -0.0007  0.1716  0.2806
30891W        W44305  12.124   1.939   3.849 -0.0411  0.0336 -0.0144
30892W        W44306   3.634   7.686   3.970  0.0214 -0.0481 -0.0655
30893W        W44307  13.273  14.852  12.213 -0.1083 -0.1339  0.0747
30894W        W44308  12.537   7.198  15.934  0.0855 -0.0424 -0.2849
30895W        W44309  16.875  16.233   5.997 -0.1627 -0.1357  0.0459
30896W        W44310  15.486   9.378  13.833  0.0678  0.0390  0.1757
30897W        W44311  15.429   6.292  13.228  0.0284  0.3000 -0.0458
30898W        W44312  13.255   9.276  11.569 -0.1338  0.0518 -0.0136
30899W        W44313  14.435  16.041  13.450 -0.0475  0.1471  0.0089
30900W        W44314   2.102   1.644  13.922 -0.0751  0.2589 -0.1924
30901W        W44315   4.642  17.377   5.571  0.2064 -0.1585  0.0631
30902W        W44316   0.025  16.481  15.420 -0.2373 -0.0210 -0.0563
30903W        W44317  12.826  10.058  12.506  0.3448  0.2674  0.4081
30904W        W44318   7.201   9.395   0.452 -0.2920 -0.4498  0.1164
30905W        W44319  12.931  10.584  11.843  0.4510 -0.1346  0.0484
30906W        W44320  11.576   5.436   4.013  0.3370 -0.0174 -0.0743
30907W        W44321   6.001   4.477   5.714 -0.0935  0.1364 -0.1054
30908W        W44322   7.932  17.767   0.746  0.1807  0.0506  0.1681
30909W        W44323   7.934  14.142   2.438  0.0343 -0.1096  0.2271
30910W        W44324   1.630  17.554   6.163 -0.0268 -0.3966 -0.0613
30911W        W44325   7.187   7.399   5.585 -0.1136  0.0611  0.2319
30912W        W44326  11.034  11.908  10.513  0.0010 -0.2180  0.1631
30913W        W44327   9.153  15.367   2.096  0.3369  0.0603 -0.3605
30914W        W44328   5.890   3.282  14.448 -0.1742 -0.1646 -0.0391
30915W        W44329  11.278  10.447  16.340  0.0376 -0.1353 -0.3176
30916W        W44330  10.651   0.613   0.804  0.1174  0.4063 -0.0482
30917W        W44331   5.721  14.353  14.663  0.2812 -0.2860 -0.2714
30918W        W44332  16.636  11.289   4.438 -0.0374 -0.1956 -0.2771
30919W        W44333  12.468   4.580   0.328 -0.0208 -0.2001 -0.0800
30920W        W44334   3.911   9.395  15.066 -0.0237  0.0116  0.1788
30921W        W44335   2.254   0.688   0.520 -0.2359 -0.0426  0.2511
30922W        W44336  12.233  12.028  13.909  0.0667 -0.0274 -0.2801
30923W        W44337   8.889   7.701   5.311  0.0746 -0.1493 -0.2349
30924W        W44338   3.578   2.832   1.172 -0.0025 -0.1624  0.2803
30925W        W44339  15.058   1.135   2.354  0.0173  0.1183 -0.1278
30926W        W44340   0.307   2.728   4.349  0.0105  0.0754 -0.0159
30927W        W44341   4.293  17.007  13.700  0.0297 -0.1816  0.0561
30928W        W44342  10.655  10.512  15.336 -0.1561  0.0408  0.1451
30929W        W44343   2.449  10.573  14.597 -0.0033 -0.1447 -0.3341
30930W        W44344   3.699  17.215  13.816 -0.1488  0.2141  0.4527
30931W        W44345  17.254   1.949  12.814 -0.0516  0.0019 -0.0604
30932W        W44346   0.299  11.863   2.988 -0.1719 -0.3561  0.1495
30933W        W44347   2.877   2.063  15.081  0.1654  0.1131  0.0357
30934W        W44348   5.732  12.261  11.268 -0.0374 -0.3534  0.1441
30935W        W44349  12.137  10.358   5.250 -0.1645  0.0577  0.1495
30936W        W44350   1.245   6.123   4.555 -0.0112 -0.1589 -0.2217
30937W        W44351  13.337   1.198   0.958 -0.1458 -0.1441  0.0031
30938W        W44352  14.064  11.452  14.486  0.0245  0.0262  0.0579
30939W        W44353  11.314   3.381   0.581  0.0700  0.1035 -0.2255
30940W        W44354  14.881   7.610  13.046  0.1184  0.1378 -0.0735
30941W        W44355  14.006  12.896   5.128 -0.3787 -0.1722  0.2987
30942W        W44356  17.350   4.144   6.142  0.2114  0.1772 -0.0088
30943W        W44357  11.334   4.678   3.860  0.2333 -0.3926  0.1978
30944W        W44358  16.299   3.891   3.806  0.2684  0.0763 -0.0966
30945W        W44359  10.554   6.174  16.230  0.1517 -0.0338 -0.1247
30946W        W44360   9.809   2.564   4.749  0.1910 -0.0682 -0.1443
30947W        W44361  11.270  10.888  15.020  0.0429  0.1504  0.0449
30948W        W44362   5.595   0.406  14.512  0.2570  0.3029 -0.2849
30949W        W44363   2.949   3.370   3.766 -0.0595 -0.0711 -0.0087
30950W        W44364  11.827  15.609   3.900 -0.3308 -0.2333 -0.0656
30951W        W44365   4.206   3.622  14.118  0.1364  0.0214 -0.1345
30952W        W44366   5.919   2.103  15.655 -0.2546  0.1510 -0.2583
30953W        W44367  17.862  15.490   5.254 -0.2704  0.2021  0.2016
30954W        W44368  15.097  11.871  13.588  0.0766 -0.1845  0.1047
30955W        W44369   1.588  18.028   4.372 -0.1597  0.0238 -0.0756
30956W        W44370   5.839   1.472  12.998  0.1140  0.2590 -0.0639
30957W        W44371   3.314  12.118  14.818 -0.1570 -0.3888 -0.0507
30958W        W44372  13.491  10.170  15.399 -0.0172  0.3350  0.3064
30959W        W44373   7.898   4.469   1.764  0.0782 -0.2246  0.1109
30960W        W44374   2.723  15.927  15.254 -0.1008 -0.0129 -0.1538
30961W        W44375  10.557   2.559   4.599 -0.1616  0.1441 -0.0384
30962W        W44376   0.292  14.831   3.042  0.1390 -0.2699  0.1299
30963W        W44377   3.204   8.416   2.991 -0.0226  0.1026 -0.0531
30964W        W44378  11.078  17.070  15.184  0.1154  0.0606 -0.0297
30965W        W44379  15.419   0.237   4.136 -0.0834 -0.0250  0.2057
30966W        W44380   1.326  15.125  13.384  0.2837  0.0915  0.0008
30967W        W44381   4.790   8.717   6.536 -0.0623 -0.0273  0.0896
30968W        W44382  17.831   9.416   0.622  0.0524  0.0687 -0.2098
30969W        W44383   1.442   8.728   3.086  0.1494 -0.4155 -0.0423
30970W        W44384   2.515  13.969  12.618 -0.2711 -0.2199  0.0288
30971W        W44385   5.481   2.259   5.094  0.0067 -0.1410  0.1487
30972W        W44386  13.526  13.331  11.865  0.2406  0.1513  0.1366
30973W        W44387   3.021   7.723   5.480 -0.1270 -0.0690  0.1485
30974W        W44388   4.370   7.542   4.169 -0.1719  0.2101  0.2102
30975W        W44389  12.611  14.124   0.008  0.0632  0.1561  0.0323
30976W        W44390  12.584   1.876   2.044  0.1032 -0.1762 -0.0567
30977W        W44391   8.497  10.923  11.028 -0.0682  0.1514  0.1597
30978W        W44392  12.779  14.931   0.645 -0.2555  0.1644  0.1189
30979W        W44393  13.741  16.142  11.292  0.1113 -0.0931 -0.1558
30980W        W44394   7.744  16.513   3.639 -0.1577 -0.1827  0.2312
30981W        W44395   6.813   5.384  15.760  0.1945  0.1382  0.0253
30982W        W44396  16.430   9.366   0.902 -0.2203  0.0630  0.1643
30983W        W44397  10.967   1.539  14.296 -0.2019 -0.0352 -0.3091
30984W        W44398   5.782   2.212   1.434  0.0233  0.0360 -0.2771
30985W        W44399  11.673  10.624  15.294 -0.0321  0.1877  0.3384
30986W        W44400   6.527   5.089  16.004 -0.0514 -0.0173 -0.1106
30987W        W44401  14.309   4.323  15.164  0.0368  0.1784 -0.0337
30988W        W44402  16.986  10.794   6.034 -0.1747  0.1169 -0.1186
30989W        W44403   5.642   3.100  11.927  0.0853  0.0568  0.0288
30990W        W44404  15.316   8.781  16.243  0.1966 -0.0521 -0.0375
30991W        W44405   9.840   5.652  14.059  0.2134 -0.2498 -0.1940
30992W        W44406  11.333  13.070   5.734 -0.1653  0.0060  0.4672
30993W        W44407  15.628  11.264  10.593  0.2761 -0.2177 -0.0036
30994W        W44408   5.296   1.647   5.614  0.3493 -0.3476 -0.1230
30995W        W44409   2.075  10.483  10.946  0.0496 -0.3439 -0.0815
30996W        W44410  15.465  13.703  16.466  0.1961 -0.2327  0.0387
30997W        W44411  16.391   8.320  12.586  0.1347 -0.1055  0.3539
30998W        W44412   0.732   3.931   5.209  0.0556 -0.2334 -0.0635
30999W        W44413   4.072   8.138   5.658  0.3923 -0.0475  0.2312
31000W        W44414   9.286  12.904  16.412  0.0601 -0.0238 -0.0936
31001W        W44415   2.967  13.134  10.969  0.1942  0.1536 -0.0560
31002W        W44416   7.712   1.594  13.086  0.0373  0.3293 -0.2232
31003W        W44417   6.126   6.052   2.523  0.3113 -0.1485 -0.0942
31004W        W44418   7.400   9.649  15.181  0.2517 -0.2644 -0.1187
31005W        W44419   7.301  12.023  13.180  0.0656 -0.1928  0.1316
31006W        W44420  16.170  16.976   3.407 -0.2309  0.2561 -0.3567
31007W        W44421  17.657  12.973   1.371  0.1431  0.1258 -0.0494
31008W        W44422  11.265   8.403   2.996 -0.1254 -0.1153 -0.1697
31009W        W44423  12.024   3.369  11.491 -0.0742  0.2495  0.0163
31010W        W44424   5.457   8.542  14.665  0.1616  0.2614 -0.2263
31011W        W44425  16.022   2.272  12.523  0.1230  0.0010  0.1185
31012W        W44426   5.873   5.005  11.885  0.4802 -0.0102  0.0650
31013W        W44427   0.961   9.965   1.366  0.0612 -0.0049 -0.0681
31014W        W44428  14.678  17.053  14.832 -0.0843  0.1590 -0.1191
31015W        W44429   3.845   2.792   2.975  0.2037 -0.2229 -0.0845
31016W        W44430   7.179  12.858  14.700 -0.1036 -0.1675  0.2014
31017W        W44431  13.344   7.111   0.691  0.1205 -0.0549 -0.2164
31018W        W44432   4.064   3.254   0.720 -0.4261 -0.1394 -0.1391
31019W        W44433  11.356  12.566   5.913  0.0947 -0.3611 -0.0530
31020W        W44434  10.368   6.354  12.316  0.1130 -0.2189  0.1477
31021W        W44435  12.541  16.844   4.185 -0.1249  0.0643 -0.1303
31022W        W44436   4.394  13.129  14.560  0.0270 -0.0663  0.1077
31023W        W44437   2.771   2.827  12.181  0.0190 -0.0306 -0.0828
31024W        W44438   3.206  10.021  11.036 -0.1961 -0.1790  0.0748
31025W        W44439   4.978   8.570  15.161 -0.1269 -0.2898  0.0677
31026W        W44440  16.851  10.018  10.934 -0.2342 -0.0757 -0.1168
31027W        W44441  16.367   4.968   3.485 -0.0866  0.0063 -0.1478
31028W        W44442   5.656   5.021  12.313  0.1187  0.1472  0.1345
31029W        W44443   7.203  10.963   1.401  0.0153  0.2857  0.0586
31030W        W44444  13.811   4.368   0.170 -0.3809  0.2873 -0.1494
31031W        W44445   6.231  13.420  12.122 -0.4778  0.0844  0.0524
31032W        W44446  10.079  17.058   5.528  0.1951  0.1495 -0.1695
31033W        W44447   9.363  17.962   5.570 -0.2153  0.1209  0.0131
31034W        W44448   6.406  11.520   1.549 -0.0247  0.0387 -0.1048
31035W        W44449  14.312   5.381   1.168 -0.0161  0.0557 -0.1607
31036W        W44450   4.874   2.948  12.434 -0.1943 -0.0425 -0.0476
31037W        W44451   0.366   1.794  15.947  0.1955 -0.1230 -0.1969
31038W        W44452   7.388   6.172   1.812 -0.0197 -0.0163  0.1177
31039W        W44453   4.814   9.634   5.730  0.2832 -0.1798  0.0771
31040W        W44454  14.955  17.735  12.668  0.2521 -0.0329 -0.0346
31041W        W44455   2.418   5.597   0.421 -0.0509 -0.1683 -0.3608
31042W        W44456   1.155  12.725   4.485 -0.0359  0.0823 -0.0838
31043W        W44457   0.981   6.108   1.706 -0.0326 -0.2066  0.1132
31044W        W44458   7.822   7.372   3.460  0.0368  0.0258  0.0774
31045W        W44459  15.613   8.406  12.033 -0.0198  0.0606  0.0041
31046W        W44460   2.108  15.689  13.655  0.0951 -0.0541 -0.2095
31047W        W44461   9.495  11.600   0.748 -0.3347 -0.0818  0.3054
31048W        W44462   5.955  17.055   2.551 -0.5031  0.1297  0.3132
31049W        W44463   7.914   8.380   3.123  0.0837 -0.2783  0.1085
31050W        W44464  10.205   2.210  11.518  0.0714  0.0813  0.2062
31051W        W44465  14.024  12.333   3.753  0.3163  0.0510  0.1196
31052W        W44466  12.135   3.684  11.916 -0.0300  0.0377  0.1983
31053W        W44467   0.149  16.634  16.249 -0.2979  0.3002  0.0099
31054W        W44468   3.529   1.314  11.248 -0.2388  0.1632 -0.0043
31055W        W44469  11.523   7.257   2.582 -0.0833  0.3759  0.3679
31056W        W44470   0.627  12.611  14.729 -0.1262  0.0227  0.2263
31057W        W44471   6.810   7.830  11.012  0.1396 -0.3125  0.0134
31058W        W44472   9.368   6.354   2.825  0.3666 -0.1922  0.1179
31059W        W44473  17.014   4.054  14.722 -0.0674 -0.0090 -0.0455
31060W        W44474   3.824   3.834  14.570 -0.0667 -0.2986  0.3931
31061W        W44475  13.102   4.627   4.483  0.0585  0.0600  0.1688
31062W        W44476  14.152   4.634   1.376  0.0053  0.2104 -0.1734
31063W        W44477  14.586  13.126   0.019 -0.1698  0.1119  0.1347
31064W        W44478   7.875  14.467  13.972 -0.1371  0.1463 -0.5917
31065W        W44479   3.925   5.018  10.278 -0.0224 -0.2432  0.2579
31066W        W44480  14.009  10.634  11.755 -0.2760  0.0541 -0.1844
31067W        W44481  14.545   9.893   2.152  0.0155  0.1193 -0.3454
31068W        W44482   5.579   1.515   0.901 -0.2199 -0.3644  0.0025
31069W        W44483  11.387   5.714  12.984 -0.2052  0.1320  0.0366
31070W        W44484   0.152  17.660  13.332  0.1901  0.3609 -0.1123
31071W        W44485   8.982   5.690  14.045  0.1680  0.0934  0.0917
31072W        W44486   5.290  10.054  14.614 -0.0080  0.0978 -0.0787
31073W        W44487  13.174   9.045   2.850  0.0308  0.2408  0.1718
31074W        W44488   2.964   2.148  12.880  0.0042 -0.0085  0.0599
31075W        W44489  11.632   4.914   4.262  0.2709  0.2401  0.4087
31076W        W44490  16.766  17.225  15.509  0.1795 -0.1938 -0.2066
31077W        W44491  17.302  10.870  10.798  0.0410 -0.0623 -0.1871
31078W        W44492   7.427   6.140   0.155 -0.1960  0.1975  0.0210
31079W        W44493  11.285  11.583   2.541  0.2937 -0.3786  0.0711
31080W        W44494   6.822   0.767   2.414  0.0354 -0.0438 -0.0607
31081W        W44495  17.784  14.195   3.828 -0.1901 -0.1341 -0.2356
31082W        W44496  11.726   5.035   0.870  0.0014 -0.0515 -0.3698
31083W        W44497   5.310   7.429   5.365  0.1521 -0.0261 -0.1030
31084W        W44498  11.433   1.039   2.139  0.0166 -0.1159  0.0619
31085W        W44499   0.017   0.991   4.899  0.0468  0.2001 -0.1308
31086W        W44500  10.506  11.690   5.395 -0.1553  0.0399 -0.1632
31087W        W44501   8.670  12.335   0.050 -0.1945 -0.0865  0.1741
31088W        W44502  12.325  10.539  11.799 -0.1916  0.0727 -0.0536
31089W        W44503   9.064  10.692  11.823 -0.0325 -0.1326 -0.0445
31090W        W44504  12.391   9.625   4.071  0.0076  0.1952  0.2853
31091W        W44505  14.869  18.164  13.954 -0.1090  0.2257  0.0733
31092W        W44506   9.938  16.133  11.528 -0.3779  0.0946  0.0379
31093W        W44507   4.163   3.536   4.737  0.0527 -0.1993  0.2093
31094W        W44508  15.354   8.936  15.414 -0.0468  0.0902 -0.1553
31095W        W44509   0.810   5.350  13.375  0.4420  0.0167  0.0630
31096W        W44510   7.074   1.252  13.525  0.1875  0.0564 -0.2164
31097W        W44511  11.389   7.063   3.580  0.1463 -0.3453  0.0676
31098W        W44512  11.676  16.546   2.447 -0.2459 -0.2259 -0.2779
31099W        W44513  12.155   7.108  16.260  0.2607 -0.3948 -0.0275
31100W        W44514   4.873   2.452   0.452  0.1781  0.0699 -0.0655
31101W        W44515   1.479  15.311   0.009  0.0729 -0.0289 -0.2250
31102W        W44516   4.509   3.097   5.627  0.0059  0.0252  0.0153
31103W        W44517  11.183  14.069   4.312 -0.0164 -0.2794 -0.0931
31104W        W44518   3.334   9.841  14.069 -0.2094  0.0087 -0.0196
31105W        W44519   7.260   1.899  15.510  0.1675 -0.1585  0.1285
31106W        W44520   9.721   9.322   3.709 -0.0267 -0.0230 -0.0245
31107W        W44521   5.431   2.101   3.779 -0.0184 -0.3260  0.0821
31108W        W44522   7.060  15.660  10.379  0.2100 -0.1122 -0.1663
31109W        W44523   9.399  17.617  15.928 -0.1007 -0.2554 -0.0252
31110W        W44524   7.278   6.831  15.029 -0.1309 -0.1992  0.0342
31111W        W44525   4.701   5.376   2.360  0.0618 -0.0819 -0.3250
31112W        W44526  17.767  12.201   0.376 -0.0165  0.0911 -0.1290
31113W        W44527  15.779   9.578  10.196  0.3674  0.0777 -0.0351
31114W        W44528   9.548  16.495  11.493  0.2481 -0.0463  0.4218
31115W        W44529   8.373   1.949   4.696 -0.0326 -0.1119  0.2058
31116W        W44530   7.735  10.608   0.395 -0.2667  0.2012 -0.0799
31117W        W44531   2.480  15.748   2.402 -0.2147 -0.2298  0.1311
31118W        W44532  17.023   6.579  11.534  0.0574 -0.3782 -0.0304
31119W        W44533   5.006  14.801  15.651  0.0818  0.1885 -0.0768
31120W        W44534  17.487  15.324   1.011  0.3243  0.2451 -0.2174
31121W        W44535  17.583   7.422  16.406  0.3584  0.1901 -0.1369
31122W        W44536   9.414  16.806  10.176  0.0315  0.0782  0.2063
31123W        W44537  17.160   0.736  14.793 -0.1788  0.1932 -0.0699
31124W        W44538  16.828   8.524  14.522  0.1833  0.2375 -0.1351
31125W        W44539  11.180   6.320  11.744  0.2129  0.1911  0.3053
31126W        W44540   5.691   5.766  16.085 -0.0560 -0.0334  0.1507
31127W        W44541  10.965  11.115  11.041  0.0243 -0.0077 -0.3914
31128W        W44542   6.393   3.579  13.993  0.4297  0.4410 -0.2572
31129W        W44543   0.260  12.238  13.112  0.2210 -0.2037 -0.0356
31130W        W44544   2.098   3.291   0.732  0.1199 -0.1556 -0.4684
31131W        W44545   4.092  15.856   3.325 -0.0669  0.3141  0.0616
31132W        W44546   5.059   8.034   2.640  0.2821 -0.0487  0.1585
31133W        W44547  11.879  15.753  12.634 -0.0833  0.0031  0.0370
31134W        W44548   4.278   8.251   6.122  0.1822 -0.0898 -0.2249
31135W        W44549   3.543  16.272   0.886  0.1167 -0.1822  0.1347
31136W        W44550   7.667  10.368  15.463  0.0817  0.0364  0.0605
31137W        W44551   3.300  17.122  15.196  0.0535  0.1755 -0.2166
31138W        W44552  16.766  10.968  12.059 -0.1325 -0.0436 -0.0875
31139W        W44553   4.297  15.240  15.000 -0.0510 -0.1504  0.1100
31140W        W44554  12.896  17.347   4.996  0.0935  0.0369  0.0468
31141W        W44555   2.194  11.724   4.407  0.2045 -0.1030 -0.0478
31142W        W44556  10.728   1.468  13.419  0.2543 -0.1797 -0.1683
31143W        W44557   4.436  10.108  13.555 -0.0106  0.0601 -0.0025
31144W        W44558  11.442  16.513   0.469  0.1776 -0.1564 -0.0716
31145W        W44559   9.834   9.392   0.904 -0.0970  0.1830 -0.1015
31146W        W44560  15.351  11.677  16.209 -0.0167 -0.3659 -0.3002
31147W        W44561   4.175   4.102   0.111  0.0359  0.0305  0.0280
31148W        W44562  13.847   6.430   4.642  0.2079 -0.0524 -0.2123
31149W        W44563   3.067  10.495  16.319 -0.1386 -0.2519  0.0661
31150W        W44564   3.129  12.197  11.747 -0.1798  0.1225  0.1661
31151W        W44565   3.157   2.889   1.431 -0.3090 -0.0686  0.1874
31152W        W44566  13.991   0.396  14.070  0.4807  0.5055 -0.1890
31153W        W44567  10.986  17.740  14.471  0.0589 -0.2807  0.2064
31154W        W44568  16.974  12.853  11.602  0.2570 -0.2617  0.3568
31155W        W44569  11.625  11.875   0.363  0.1642  0.0928  0.0553
31156W        W44570   9.803   2.587   1.294  0.0090 -0.1185 -0.0012
31157W        W44571   7.418  12.227  14.443  0.0057  0.1725 -0.0922
31158W        W44572  17.715  12.823   0.084  0.0726 -0.0133 -0.2034
31159W        W44573  15.678   7.452  10.543  0.3063  0.0614 -0.0704
31160W        W44574  10.770   4.833   4.576 -0.3934  0.0398 -0.0296
31161W        W44575   2.152  17.271  10.488 -0.3453 -0.0550  0.1018
31162W        W44576  14.925  12.885  14.749 -0.2446  0.0231 -0.0121
31163W        W44577   6.310   5.438  15.650  0.1226  0.0976  0.1856
31164W        W44578   2.852   3.667   1.166  0.0402  0.3018 -0.3913
31165W        W44579  14.527   3.339  12.658  0.0607  0.5068  0.1332
31166W        W44580  14.787  14.094   4.577  0.2982 -0.0157 -0.1635
31167W        W44581  15.878   2.273  10.988  0.3134 -0.0333  0.0148
31168W        W44582  10.235  12.316   3.583  0.2910  0.1642  0.1633
31169W        W44583  15.720  15.075  11.566  0.0130  0.0269 -0.0171
31170W        W44584  18.184   8.261  16.447 -0.5544 -0.2271 -0.0431
31171W        W44585   3.213  16.324   2.898 -0.1568  0.1518  0.2903
31172W        W44586  16.721  12.843  12.706 -0.1201  0.1373 -0.1622
31173W        W44587   0.870   3.054   0.787  0.0448 -0.1855  0.1300
31174W        W44588  12.454  16.717  13.590 -0.1864 -0.2319  0.3060
31175W        W44589  14.707   1.499   0.084 -0.1639  0.1894 -0.3866
31176W        W44590  14.339  10.519  11.408 -0.1396 -0.1090 -0.1568
31177W        W44591  14.141  10.474   3.274 -0.1672 -0.0879 -0.0517
31178W        W44592  11.405  12.013  10.816  0.2717  0.3460 -0.0599
31179W        W44593   6.182   9.801   2.439 -0.4623 -0.0563 -0.5113
31180W        W44594  11.026   4.188   1.519 -0.1296  0.1557  0.1033
31181W        W44595  15.389   4.644   0.835 -0.0340 -0.3367 -0.0111
31182W        W44596   1.964   8.792  15.987  0.2896 -0.1018 -0.0858
31183W        W44597   7.526   7.045   3.026 -0.4837 -0.2568 -0.3954
31184W        W44598  13.482  12.312  14.469 -0.0213 -0.0967 -0.2764
31185W        W44599  14.475   7.489  14.726 -0.6228 -0.0918 -0.1427
31186W        W44600   0.496  16.344  13.278  0.2109  0.2548  0.1162
31187W        W44601   9.932   9.048   5.039  0.0675 -0.3981  0.0327
31188W        W44602   6.762   7.416   5.898 -0.3544 -0.1933  0.0558
31189W        W44603  14.134   9.201   1.455  0.3614  0.2517 -0.0261
31190W        W44604  16.663   1.438  15.427 -0.5940 -0.1025  0.0366
31191W        W44605   1.705   6.554   0.979 -0.1698 -0.0117  0.1944
31192W        W44606   7.007   7.126  10.953  0.1689  0.0345  0.0078
31193W        W44607  13.339  12.164  11.025  0.0046 -0.2193 -0.0081
31194W        W44608  16.105   0.251   0.001  0.0035 -0.1266 -0.0156
31195W        W44609  14.563  17.766   4.503  0.0927 -0.0811  0.0016
31196W        W44610   7.709  12.150   0.251 -0.0072  0.4403 -0.0844
31197W        W44611  17.672  12.353   0.826 -0.0844  0.0365  0.2847
31198W        W44612  10.584  14.167  12.723 -0.1001  0.1666  0.0798
31199W        W44613  14.522  14.249   1.481  0.0382  0.1555  0.0813
31200W        W44614  16.851   9.252   2.125  0.0863 -0.1393  0.0761
31201W        W44615   7.173   5.143  11.614  0.2289  0.2173 -0.2978
31202W        W44616   3.024   9.802   3.233 -0.0180  0.0183 -0.1582
31203W        W44617  12.479   4.317   4.163  0.1122  0.3212 -0.2885
31204W        W44618  15.667   5.872  13.331  0.0687 -0.0204  0.2364
31205W        W44619  17.869   7.990  11.052 -0.4911 -0.0392 -0.0463
31206W        W44620   5.113  17.997  11.491 -0.0838  0.4407  0.3372
31207W        W44621   9.802   3.502   4.147  0.2341 -0.1507  0.0941
31208W        W44622  10.019  14.183  11.020  0.2264  0.0868  0.1898
31209W        W44623  10.960  14.938  13.398  0.0629 -0.0129  0.0665
31210W        W44624   9.305  13.114   2.340 -0.0548  0.3151  0.1922
31211W        W44625   0.224  10.191   0.140  0.0762  0.1278 -0.2577
31212W        W44626   2.623   6.912   0.999  0.1102  0.1289  0.1316
31213W        W44627   4.700   2.716  10.286  0.0707 -0.2950  0.0724
31214W        W44628  13.455  14.923   1.807 -0.0035 -0.1942  0.0457
31215W        W44629  15.342  14.133  16.336  0.1676 -0.2544  0.0681
31216W        W44630  16.525  17.870  16.109  0.2633  0.0508  0.0867
31217W        W44631   4.718   8.013  14.248  0.1469 -0.0681  0.1180
31218W        W44632  11.569  16.091   6.173 -0.0748 -0.0118 -0.0444
31219W        W44633   3.722  11.316   1.428  0.0603 -0.1077  0.1634
31220W        W44634  13.812  11.659   1.816 -0.0429  0.3072 -0.0220
31221W        W44635   4.184   8.495  14.703 -0.1930 -0.1002  0.0228
31222W        W44636   7.593  11.362   1.722 -0.1757  0.1110 -0.0026
31223W        W44637   9.817  12.839   1.168 -0.0797  0.3819  0.0126
31224W        W44638   6.160  12.296   2.310  0.2200  0.2737  0.1438
31225W        W44639   6.986  13.492  12.169 -0.0586 -0.2195  0.1155
31226W        W44640  10.549  10.188   2.902  0.0108  0.1900 -0.0544
31227W        W44641  14.192  13.401   0.729  0.1349 -0.1418 -0.1413
31228W        W44642  15.128   0.614   0.248  0.3268 -0.3116 -0.0240
31229W        W44643  13.424  12.850  15.775 -0.0682  0.0331  0.5696
31230W        W44644  12.777   3.089  15.754  0.1513  0.1303 -0.0389
31231W        W44645  12.677   3.534   1.008  0.0712 -0.1181 -0.1824
31232W        W44646  11.655   3.655   3.631 -0.0260  0.1023 -0.0076
31233W        W44647   8.464   7.296   1.940 -0.1396  0.0672 -0.1254
31234W        W44648   7.551  10.324   2.523 -0.0115  0.0095  0.3761
31235W        W44649   7.040   0.103   4.110  0.0135 -0.0650 -0.0783
31236W        W44650   2.821  13.440  16.143  0.1838 -0.1042 -0.1292
31237W        W44651   6.090   7.159   5.326 -0.2680 -0.1113  0.0003
31238W        W44652   9.287   8.454   3.971  0.2054  0.0271 -0.0814
31239W        W44653   8.634   6.496   4.352 -0.1127 -0.1988  0.1010
31240W        W44654   3.260   2.611  12.098 -0.1417  0.1860  0.1899
31241W        W44655   1.427   9.893   6.675 -0.0011  0.0554 -0.0487
31242W        W44656  10.140  17.762   0.245 -0.0986 -0.0760 -0.0512
31243W        W44657   0.176  11.378  11.998 -0.3176  0.1913  0.1937
31244W        W44658  16.280   6.300   0.710 -0.1507 -0.0581 -0.2598
31245W        W44659  14.884  17.834  11.723  0.5255 -0.0014 -0.1756
31246W        W44660  17.286  14.705  11.593  0.2076 -0.1777  0.0911
31247W        W44661   0.576   8.971  11.012  0.0682  0.2995  0.1652
31248W        W44662  12.060   3.559   9.949  0.0905 -0.2250 -0.0714
31249W        W44663  17.716   4.178   5.773  0.0009  0.1675  0.0112
31250W        W44664  12.042   1.157   2.815 -0.0430  0.1503 -0.0545
31251W        W44665  14.116  11.338   1.489 -0.0060  0.1128 -0.2854
31252W        W44666  15.010  16.684   4.862  0.0862 -0.1064  0.3390
31253W        W44667  14.984  18.210   5.903  0.1460  0.2480  0.1457
31254W        W44668  11.927   3.140   3.533  0.0249 -0.0954  0.1626
31255W        W44669  12.189   3.052   0.709 -0.2130 -0.0342 -0.0999
31256W        W44670   3.742   7.788   5.693  0.1291  0.1143 -0.2321
31257W        W44671   7.320   6.064   4.977  0.4198  0.1695  0.4394
31258W        W44672  16.175  10.981   3.584  0.1934 -0.2199 -0.2318
31259W        W44673  14.771   3.070   2.265  0.0399 -0.0749 -0.0055
31260W        W44674  11.673  14.736   2.531 -0.1489 -0.0602 -0.0422
31261W        W44675   2.648  17.167  10.592 -0.1022  0.2994 -0.0403
31262W        W44676   8.660   8.746  15.854  0.0369  0.2395  0.0402
31263W        W44677  15.556   4.012   4.371  0.1714 -0.1220  0.0342
31264W        W44678  14.074  13.686   3.655 -0.4657 -0.3110  0.2460
31265W        W44679   8.198   9.949   0.851 -0.0195 -0.1149  0.0383
31266W        W44680  14.167   1.202   2.403  0.0024 -0.0245  0.1170
31267W        W44681  16.601   8.821   1.848  0.0257 -0.1511  0.1668
31268W        W44682   2.538   6.947  12.368  0.5025  0.0645  0.0423
31269W        W44683  13.259  14.919  13.817  0.0543  0.0488  0.2074
31270W        W44684  13.286   0.522   3.804  0.1016  0.1359 -0.3003
31271W        W44685  16.800  16.078  15.147  0.1099  0.0167  0.0219
31272W        W44686  11.278  15.972   5.636  0.2947  0.2933 -0.1389
31273W        W44687  11.729  16.309  14.830  0.1202 -0.0492  0.2092
31274W        W44688   1.155   7.837  13.991 -0.2881  0.1226  0.1617
31275W        W44689   5.522  10.524  12.271  0.0351  0.0600  0.0342
31276W        W44690  11.749  12.562  12.940 -0.0813 -0.1517 -0.1020
31277W        W44691   0.144   0.468   0.279  0.4346  0.1264 -0.1280
31278W        W44692  17.806   2.363   0.830 -0.3949 -0.1767 -0.0891
31279W        W44693   0.675  10.092  14.142  0.1740 -0.1201 -0.0738
31280W        W44694  16.239  13.413   4.362  0.4585 -0.1316 -0.2291
31281W        W44695  13.503   5.842  14.432 -0.2516 -0.1483  0.2060
31282W        W44696   7.717   0.011   5.037 -0.1666  0.2372 -0.0226
31283W        W44697  17.570  13.505   3.226 -0.1894 -0.2383 -0.0939
31284W        W44698  12.919   1.886   1.503  0.1654 -0.2845 -0.1032
31285W        W44699   6.689   5.155  11.547 -0.3207  0.1396 -0.1934
31286W        W44700   8.827  11.867   5.807  0.0718 -0.0055  0.0160
31287W        W44701  12.481   4.761  10.097 -0.1809 -0.0861  0.0314
31288W        W44702  14.552   3.815  12.984 -0.0557 -0.0497 -0.2063
31289W        W44703  12.732  15.427   2.984 -0.0855 -0.2717 -0.0071
31290W        W44704  16.444   0.622   5.086  0.3470  0.1759 -0.2674
31291W        W44705  12.282  16.885   6.276  0.1984 -0.1340  0.1395
31292W        W44706  12.608   8.004  13.011 -0.0537 -0.0870  0.0080
31293W        W44707   9.080  10.261   0.514  0.1180  0.2603  0.0445
31294W        W44708  12.838  11.701   2.268  0.0790  0.1583  0.0214
31295W        W44709  16.178   4.357  10.978  0.1977  0.1013  0.0165
31296W        W44710  16.696  15.674   5.871  0.3633 -0.1016 -0.1618
31297W        W44711  11.489   3.853  11.106 -0.1423 -0.1087  0.3404
31298W        W44712  10.599   6.710  13.989 -0.0583 -0.1950  0.4047
31299W        W44713  11.255   5.414  13.521 -0.2615  0.0363 -0.3366
31300W        W44714   8.109  15.159  10.612 -0.3479  0.0105 -0.0403
31301W        W44715  17.404  14.818   1.100 -0.1516  0.2915 -0.2892
31302W        W44716   3.615  15.020  14.184  0.0104 -0.2872  0.0392
31303W        W44717   4.100  13.046   3.296  0.0543 -0.1288  0.0837
31304W        W44718   2.364   0.907  16.454 -0.1455 -0.3365 -0.1703
31305W        W44719   7.461  16.909  12.004 -0.1253 -0.1065 -0.0372
31306W        W44720   0.361   4.035   0.179 -0.0220 -0.1066 -0.0544
31307W        W44721   3.525   2.159   6.017  0.2521  0.0903  0.1398
31308W        W44722  13.426   8.882   4.748 -0.0802  0.4686  0.1097
31309W        W44723   5.363   1.026   2.620  0.0808 -0.0145  0.2369
31310W        W44724   9.694   2.165   5.085 -0.2770  0.1021 -0.2554
31311W        W44725  12.412   0.073  12.170  0.0133 -0.0356  0.0676
31312W        W44726  16.488   2.510  11.604  0.1166  0.0267 -0.2039
31313W        W44727   9.689   0.718   1.160  0.0642  0.0027 -0.0074
31314W        W44728   9.411   2.142  14.128 -0.1089  0.0650  0.2424
31315W        W44729   5.369  12.986   5.227  0.2592 -0.1223 -0.1198
31316W        W44730  15.295  11.031   3.841  0.1418  0.1551 -0.1584
31317W        W44731  10.876   1.707   1.593  0.1142  0.1539  0.0934
31318W        W44732  10.415  11.268   2.473  0.0957  0.1257 -0.1306
31319W        W44733   1.921   7.299   5.600  0.3331  0.0384  0.4049
31320W        W44734  12.968  14.825   4.550 -0.1591 -0.2067  0.0587
31321W        W44735  11.719  15.675  12.169 -0.1261  0.2605  0.0453
31322W        W44736   9.689  12.201  13.440 -0.2148 -0.0462  0.2114
31323W        W44737   3.946   1.789  13.886 -0.1146 -0.0025  0.1631
31324W        W44738   1.495   8.123  13.769  0.3838  0.1892  0.0757
31325W        W44739  17.410   0.350   6.016  0.0108  0.0398  0.1493
31326W        W44740   7.051   9.981   2.751  0.1025 -0.4229  0.0751
31327W        W44741  16.801  17.272   0.989 -0.1603 -0.1041  0.2930
31328W        W44742   5.758   4.031   1.539 -0.1862 -0.3878  0.0213
31329W        W44743   9.180   3.541  14.029 -0.1341  0.3575  0.1742
31330W        W44744   9.090  12.596  10.363 -0.1316  0.0086 -0.1224
31331W        W44745   3.330   1.174  13.074 -0.0781 -0.0659 -0.1206
31332W        W44746   4.671   0.077   0.201 -0.1025  0.2588  0.3216
31333W        W44747   8.229   6.152   2.283  0.2769  0.1918  0.2477
31334W        W44748  13.875   2.501  12.883  0.3350 -0.2103  0.0441
31335W        W44749  13.120   0.489  16.303 -0.5279 -0.1621 -0.1372
31336W        W44750  18.132   6.628  12.454  0.0338 -0.0327 -0.0273
31337W        W44751   8.496  17.461   4.761  0.3730  0.2053  0.0895
31338W        W44752   3.950  10.359  12.186 -0.1310  0.2932  0.2296
31339W        W44753  11.874   3.602   5.305 -0.0976  0.2350 -0.2444
31340W        W44754  13.352   3.808  16.064  0.5192  0.1533  0.2231
31341W        W44755   9.395  11.978  12.204  0.1847  0.0817 -0.3224
31342W        W44756  13.213   0.676   0.950 -0.3824  0.3727  0.1298
31343W        W44757  10.632  18.234   5.678  0.0772  0.2396 -0.0383
31344W        W44758   8.696  10.581   0.380 -0.0692 -0.0703 -0.0043
31345W        W44759  17.947  13.880  15.792  0.2607  0.0442 -0.0271
31346W        W44760  16.817   4.044  16.115 -0.2247  0.0117 -0.2164
31347W        W44761  17.440   2.117  16.405 -0.0144 -0.1681 -0.0729
31348W        W44762   9.133  14.301  12.857 -0.0181 -0.2723 -0.0468
31349W        W44763   2.881  18.153  16.473 -0.0766 -0.0535  0.1420
31350W        W44764  12.445   0.609  11.448 -0.0961 -0.2644  0.2435
31351W        W44765  17.814   7.110   1.991  0.0051  0.1249  0.0388
31352W        W44766   8.747   9.209   3.709 -0.0372  0.1664  0.0558
31353W        W44767   7.274  13.670   3.388 -0.0045 -0.0689  0.1496
31354W        W44768   3.833  11.422  13.934  0.1649 -0.1706 -0.0984
31355W        W44769  18.182   8.516  10.358  0.0476  0.2718  0.0043
31356W        W44770  14.885   9.579  16.289 -0.0648 -0.0347 -0.2139
31357W        W44771   2.229  14.720   4.390 -0.0696 -0.4112 -0.1729
31358W        W44772   8.362   2.387   1.757 -0.2551  0.2795 -0.0115
31359W        W44773   4.951   0.733   1.078  0.0375  0.1863 -0.3074
31360W        W44774  18.016   6.023   6.023  0.1270  0.3977  0.0164
31361W        W44775   0.734  14.943   3.356  0.0418 -0.0316  0.0229
31362W        W44776   6.031  13.589  12.540  0.1163  0.1989 -0.3109
31363W        W44777  10.568   1.017   1.934  0.3673  0.0188 -0.0627
31364W        W44778   4.826   0.159  12.076  0.2718  0.0004  0.0031
31365W        W44779   0.733  15.574  12.234 -0.1424  0.0710 -0.0871
31366W        W44780   8.100  12.531   5.487 -0.1294  0.0298  0.0864
31367W        W44781   9.664  17.061   2.533  0.0080  0.2592  0.1505
31368W        W44782   2.053   6.675   1.922 -0.2854 -0.0150  0.3380
31369W        W44783  18.067  17.778   2.397 -0.2293  0.1159 -0.3968
31370W        W44784  15.953  14.909   3.397 -0.1542 -0.0765  0.0780
31371W        W44785  16.310   9.968   0.392 -0.3551 -0.0067  0.0953
31372W        W44786   9.576   6.657  14.268  0.0031 -0.1093  0.0444
31373W        W44787   6.559   9.706  12.856  0.1406  0.2725  0.1114
31374W        W44788   9.603   7.203  14.556  0.2022 -0.3192  0.0918
31375W        W44789   5.928  13.528   5.533  0.0518  0.2012  0.1402
31376W        W44790   1.186  11.495   0.757 -0.0676 -0.0384  0.1094
31377W        W44791   7.677   7.252   0.215 -0.1131 -0.1918 -0.2376
31378W        W44792   9.801   2.234   4.381  0.1717 -0.0933  0.0599
31379W        W44793   6.487   4.163   5.505 -0.0607  0.3813  0.2225
31380W        W44794  13.957   5.173   5.100 -0.1156  0.0970  0.0797
31381W        W44795   6.685   9.799  13.627 -0.3003  0.2127  0.2334
31382W        W44796   9.232   3.337   2.340  0.2492 -0.2594 -0.0197
31383W        W44797   1.721  10.684   2.859 -0.0077 -0.1380  0.1186
31384W        W44798   4.022  12.959  14.836  0.0038 -0.0365 -0.1116
31385W        W44799  16.382   6.709   4.899 -0.0576 -0.1623  0.1127
31386W        W44800   0.826  16.675   3.540  0.0264  0.0638  0.0827
31387W        W44801   7.379  15.515   4.280 -0.3293 -0.0741  0.2676
31388W        W44802   3.360  15.657  12.378 -0.1622 -0.0586  0.0398
31389W        W44803  10.666  17.861   0.132 -0.0120  0.1049 -0.2197
31390W        W44804  12.078   9.273  15.113 -0.0550  0.0164 -0.3768
31391W        W44805  15.276  10.439  11.269 -0.1310 -0.1720 -0.0921
31392W        W44806   8.377  15.505   3.315 -0.1379  0.1284 -0.1619
31393W        W44807   5.668   4.252   0.677 -0.0549  0.1126 -0.2011
31394W        W44808   6.777  17.278   3.240  0.0048  0.1689 -0.3338
31395W        W44809  12.653  13.778   1.306  0.1495  0.0506  0.1363
31396W        W44810  18.052   7.050  14.730 -0.1348 -0.0071  0.2142
31397W        W44811   6.470   0.221   3.778 -0.4301 -0.1026 -0.1398
31398W        W44812  13.330  14.478  13.020  0.1222  0.0716  0.3423
31399W        W44813   3.729   3.455  11.041 -0.1359  0.2594 -0.1926
31400W        W44814   5.076  10.650  16.352 -0.3491 -0.0924 -0.0355
31401W        W44815   2.331  17.129  12.649 -0.0940 -0.0285 -0.2520
31402W        W44816  10.489  17.002   3.915 -0.0285 -0.1060 -0.0533
31403W        W44817   7.768  16.541  16.481  0.0979  0.1937  0.1688
31404W        W44818   4.935   0.726  12.466  0.1024  0.1031  0.1949
31405W        W44819  16.043  12.291   5.510  0.0918 -0.3192  0.1200
31406W        W44820   0.123   6.428  11.384 -0.0686 -0.0374 -0.0333
31407W        W44821   8.862   9.137   6.003 -0.1159  0.1188  0.3650
31408W        W44822   1.357   2.278   0.924 -0.0378 -0.0544 -0.1804
31409W        W44823   5.196   5.827  13.850 -0.2754  0.2068 -0.0996
31410W        W44824  12.388   2.952   4.983 -0.1745  0.4115  0.3373
31411W        W44825   7.922   8.880   3.274 -0.0382  0.1104  0.1834
31412W        W44826   4.001   5.716  16.365 -0.0608 -0.3036  0.0924
31413W        W44827   2.263   9.889   3.911  0.2355 -0.3495 -0.0405
31414W        W44828   6.050   7.647  11.924 -0.0712  0.0627 -0.0176
31415W        W44829   3.953   4.889  13.877 -0.0051  0.1633  0.1604
31416W        W44830  17.913  16.330   3.946 -0.1565 -0.2688  0.3068
31417W        W44831  17.951   0.900   0.825 -0.0398  0.0937 -0.2776
31418W        W44832   8.585   9.068   1.258 -0.1441 -0.0638  0.1829
31419W        W44833  17.063  13.034   4.120  0.0079  0.1245 -0.2044
31420W        W44834  11.114   0.841   0.669 -0.1124 -0.0595 -0.0247
31421W        W44835  10.634  11.130  11.933  0.1936 -0.3067 -0.0226
31422W        W44836   1.122   5.932  11.508  0.2120  0.0946 -0.0845
31423W        W44837   3.358  14.997  13.725  0.3106 -0.1414  0.0906
31424W        W44838  12.352   3.796   2.727 -0.0476 -0.1114 -0.3209
31425W        W44839   5.628  11.094   2.695  0.3145 -0.1733 -0.0551
31426W        W44840   0.848   2.910  14.680  0.2239 -0.0962  0.3927
31427W        W44841  15.711  13.483  14.897  0.2548 -0.1415  0.0378
31428W        W44842  15.027   0.036  12.949  0.2395  0.1460 -0.0190
31429W        W44843  11.211  15.001   4.018  0.1541 -0.2749 -0.2091
31430W        W44844  13.927   4.201  14.807 -0.0019  0.1391  0.2829
31431W        W44845  17.308   3.789  10.345  0.1646 -0.2520  0.1454
31432W        W44846   4.232  17.134  12.848 -0.3834  0.0807 -0.2990
31433W        W44847  15.182  15.364   6.240 -0.1536  0.2138  0.1148
31434W        W44848   9.132  12.279   1.808 -0.1775 -0.0815  0.0814
31435W        W44849  12.967  13.126   1.921  0.0693  0.1262 -0.2507
31436W        W44850   3.965   3.891   5.637  0.2752 -0.0426  0.2819
31437W        W44851  10.107   9.359  16.460  0.3496 -0.1880 -0.1171
31438W        W44852   6.708  10.461  11.975 -0.2155 -0.1093  0.0491
31439W        W44853   5.205   1.708   3.928  0.3733  0.1513  0.3656
31440W        W44854   2.295   3.652   1.946 -0.0525  0.1215  0.2275
31441W        W44855   2.442   4.283   3.841  0.2353 -0.1241  0.1058
31442W        W44856  10.381   3.247  14.460 -0.1561 -0.0745  0.3763
31443W        W44857  10.457   1.066   5.609  0.0400 -0.0505  0.0467
31444W        W44858   4.402   0.877   0.916 -0.2006 -0.3410  0.1236
31445W        W44859  10.018   6.436  15.695 -0.2058  0.0878 -0.2761
31446W        W44860   6.893   1.108  12.976  0.2880  0.1913  0.1375
31447W        W44861  17.001   6.469  15.189 -0.1310 -0.2973  0.2705
31448W        W44862   9.887   4.377  10.165 -0.2056  0.1371  0.1388
31449W        W44863   6.432   0.675  14.480  0.0166 -0.1036  0.2245
31450W        W44864   0.652  15.047   0.021  0.2135 -0.1554  0.0511
31451W        W44865   3.914  11.790   2.912 -0.2313  0.0431 -0.1026
31452W        W44866   7.182   0.519  12.410  0.0165 -0.1840 -0.1493
31453W        W44867   0.906   8.378  11.597 -0.0577 -0.5629 -0.0562
31454W        W44868   3.416   6.352   4.311  0.1283  0.2530 -0.2176
31455W        W44869   6.557  16.941  16.159  0.1300 -0.0494 -0.1484
31456W        W44870   4.430   2.635   4.266  0.1328 -0.0429  0.3171
31457W        W44871   5.020  14.264   1.713  0.5702  0.2111  0.1277
31458W        W44872   2.841   1.336  12.131 -0.0743 -0.0409 -0.0154
31459W        W44873   9.986   8.915   2.836 -0.1332 -0.0243  0.0928
31460W        W44874   2.428  13.821   3.573  0.0725 -0.1505  0.1146
31461W        W44875  10.081   3.864  14.871  0.1875 -0.1140  0.2238
31462W        W44876  10.403   2.621  11.327 -0.1261 -0.1106  0.0478
31463W        W44877   0.703   6.743  15.566 -0.1481 -0.1268  0.1094
31464W        W44878   2.330   2.269  14.389  0.2602  0.0909 -0.0376
31465W        W44879   3.917  16.371   1.581  0.0888  0.1992  0.3169
31466W        W44880  15.680   5.181   4.266  0.1795  0.0144  0.0267
31467W        W44881  18.000  12.531   1.608 -0.1193 -0.0899  0.3152
31468W        W44882  12.618  14.344   5.594 -0.1353  0.0421 -0.1247
31469W        W44883  18.104   6.523  13.085  0.0403 -0.5169 -0.0439
31470W        W44884   8.466   6.753   6.001 -0.0376 -0.0840  0.3828
31471W        W44885  17.482  17.492  12.806 -0.1507 -0.1262  0.0326
31472W        W44886  12.566  16.686   1.999  0.0219 -0.2225  0.1935
31473W        W44887   4.371   9.256   1.170  0.0704 -0.1049  0.2755
31474W        W44888  17.687   0.375   5.144 -0.1630  0.2357 -0.0512
31475W        W44889   5.559  15.751   5.953  0.0913 -0.2253  0.0288
31476W        W44890   1.397  11.414   3.212 -0.3559  0.3936  0.0264
31477W        W44891  15.210  12.688  11.730  0.0280 -0.4052  0.2746
31478W        W44892   8.566  16.439  11.794 -0.0767  0.2109 -0.1050
31479W        W44893   3.890  11.082  14.299 -0.0430 -0.0201  0.1648
31480W        W44894  11.235   5.257  12.215 -0.2566  0.1798 -0.1073
31481W        W44895   1.562   4.445   1.971 -0.0853  0.1839 -0.2075
31482W        W44896   4.363   5.772  14.906  0.0617  0.0777  0.0356
31483W        W44897  11.864   0.362  15.892 -0.1124 -0.3515 -0.0627
31484W        W44898  10.806   5.684  16.476  0.1500 -0.2490 -0.0098
31485W        W44899   9.849   8.033  16.243  0.2993  0.2004  0.0972
31486W        W44900   2.068   2.954   5.446  0.3152  0.0594  0.0897
31487W        W44901   4.001  13.465   5.820  0.0627  0.0799 -0.2060
31488W        W44902   9.634  10.267  14.396  0.1195  0.0511 -0.1068
31489W        W44903  13.290  18.097  11.932  0.0433  0.1315 -0.2654
31490W        W44904   5.043   2.444   0.001 -0.0069  0.0905  0.2315
31491W        W44905  14.158   9.985   4.185  0.1430  0.2691  0.1351
31492W        W44906   1.982  17.569  14.941  0.0376  0.1917  0.3763
31493W        W44907  14.120  15.223  15.029  0.2208  0.1933  0.2738
31494W        W44908   2.007  14.260   4.638 -0.2598 -0.2163 -0.0515
31495W        W44909   5.124  17.626   1.675 -0.2106  0.0727  0.0019
31496W        W44910  12.126  16.278   0.989  0.0052 -0.0018 -0.0450
31497W        W44911   3.766  12.610  13.605 -0.2322 -0.0218  0.3562
31498W        W44912   2.329  17.965   0.238  0.3901  0.1100  0.0357
31499W        W44913   7.457   9.434   0.869  0.2825 -0.0493  0.0433
31500W        W44914   6.195   5.296   5.658  0.1852 -0.1141  0.0359
31501W        W44915  12.058   1.951  12.541  0.2314 -0.1345 -0.0225
31502W        W44916  14.915   3.680  11.246  0.1652  0.1728 -0.2981
31503W        W44917  17.625  17.796   2.683 -0.0872  0.0518  0.0373
31504W        W44918   6.927   1.121   1.539 -0.2053  0.2518  0.3187
31505W        W44919  11.312  18.083   1.307 -0.1604  0.0788  0.0233
31506W        W44920  17.256   0.330  13.851  0.4406  0.3357  0.1638
31507W        W44921  10.197   4.414  11.654  0.1105  0.0364 -0.0758
31508W        W44922  11.251  14.341   1.802 -0.3139 -0.2020  0.0402
31509W        W44923   9.703  17.883  15.549  0.0881  0.0815 -0.1238
31510W        W44924   4.623  13.428  15.569  0.2052 -0.0276 -0.1349
31511W        W44925  17.778   8.205   4.061 -0.1278 -0.0336 -0.0277
31512W        W44926  13.130   8.432  15.841 -0.3697  0.0108  0.1772
31513W        W44927   5.014   6.154  10.859 -0.1311  0.0453  0.1832
31514W        W44928   6.038   8.097   3.679  0.0577 -0.1711 -0.3422
31515W        W44929  16.556  16.840   4.702  0.3978 -0.1755  0.3863
31516W        W44930   9.244   6.863   1.641 -0.1244 -0.2084 -0.1054
31517W        W44931  17.194   2.465  12.201 -0.0293 -0.2069 -0.3778
31518W        W44932  10.887   1.725   0.204 -0.3457 -0.2314  0.0117
31519W        W44933  13.691  12.450   0.251 -0.0509 -0.1927 -0.0712
31520W        W44934   7.165  10.774   4.012  0.1804 -0.3481  0.2151
31521W        W44935  16.298   7.688   1.261  0.2687  0.2093 -0.1909
31522W        W44936  15.927   2.707   4.388  0.2810 -0.3440  0.0359
31523W        W44937   0.881  13.026  12.154 -0.0380 -0.1093  0.1593
31524W        W44938   8.816  18.003   0.023 -0.2799  0.2356  0.2669
31525W        W44939   8.226   7.381   0.886  0.0678  0.0489 -0.1106
31526W        W44940  15.883  10.904   2.399 -0.0938  0.0512 -0.1242
31527W        W44941  11.968   7.921   3.613  0.1888 -0.0116 -0.2996
31528W        W44942   7.782   7.788  11.304  0.1128  0.0936 -0.1578
31529W        W44943   7.568   1.609  15.793 -0.0962 -0.0063  0.2468
31530W        W44944   9.828  11.266   1.308 -0.2067  0.3797  0.1189
31531W        W44945  15.014  11.098  15.404 -0.4035  0.2681 -0.2721
31532W        W44946  13.509   1.832  16.086  0.0577  0.0726  0.0350
31533W        W44947  12.155   0.505   3.482  0.4161 -0.2152  0.0920
31534W        W44948  14.642   8.254   2.876 -0.1496  0.2562  0.3365
31535W        W44949  16.475  16.722   3.731 -0.3827  0.0242 -0.1733
31536W        W44950   9.645   8.466  14.023 -0.0275  0.0070  0.0507
31537W        W44951  17.617  10.392  10.823  0.0374  0.1372 -0.0975
31538W        W44952  11.635   1.345  10.336 -0.4904  0.1542 -0.0194
31539W        W44953   4.886   7.942  16.456 -0.0384 -0.3580  0.0527
31540W        W44954  12.169   8.742   0.865  0.4189  0.3327 -0.1004
31541W        W44955   7.477   9.426   2.774 -0.1485  0.0069 -0.1721
31542W        W44956  12.260  16.323   3.469 -0.0608  0.1700  0.1902
31543W        W44957   2.065   0.799   2.417  0.1008 -0.2499  0.1256
31544W        W44958   8.240  17.278   0.288 -0.1357  0.1339 -0.0348
31545W        W44959  13.724  17.081  13.856 -0.0616 -0.0507  0.1796
31546W        W44960   7.428   0.468   3.764  0.0227  0.1865  0.2760
31547W        W44961  14.579  11.029   3.205  0.1686 -0.1854  0.4258
31548W        W44962   6.843   2.261  12.478 -0.0374 -0.4153  0.1728
31549W        W44963   6.034   1.442  10.561  0.0396  0.1305 -0.3706
31550W        W44964  10.365   2.751  14.346 -0.0787 -0.0147 -0.0257
31551W        W44965  17.039  17.993  12.216 -0.2440  0.0574  0.2237
31552W        W44966   4.422   0.529  15.328  0.1484 -0.1000 -0.2401
31553W        W44967  13.518  18.166   2.332 -0.2896 -0.1152  0.1933
31554W        W44968   5.398  14.221  13.653  0.1433  0.1204  0.2425
31555W        W44969   7.777   2.549   4.311 -0.3242  0.0429  0.1706
31556W        W44970  12.912   6.372  11.266  0.0018  0.1770  0.0443
31557W        W44971   0.250  18.230  14.787  0.0827 -0.0532  0.3437
31558W        W44972  14.204  11.071   4.793 -0.0598  0.2589 -0.0212
31559W        W44973  16.834  16.401   4.837  0.0590 -0.0201 -0.0850
31560W        W44974   4.167   2.170   0.477 -0.2485 -0.0496  0.2177
31561W        W44975   0.998   3.521  11.971 -0.0552  0.1353 -0.0168
31562W        W44976   7.743   8.318  12.082  0.0692 -0.0853  0.2043
31563W        W44977   5.884   4.941   1.627 -0.1110  0.0202 -0.1709
31564W        W44978  14.566   6.740   3.654  0.2816  0.4946  0.1706
31565W        W44979   0.700   8.337  12.879  0.1504  0.2996 -0.2823
31566W        W44980   9.882  15.989  14.497 -0.0981 -0.0924  0.4757
31567W        W44981   3.007   4.068   1.976 -0.1663 -0.1474 -0.1139
31568W        W44982   8.365   1.044   4.221  0.2651 -0.2251 -0.1869
31569W        W44983   3.508  12.252   5.968  0.0448  0.1059 -0.4724
31570W        W44984  10.238   3.235   2.598  0.2994 -0.1898  0.2689
31571W        W44985  16.646  11.388  13.338  0.0032  0.2592 -0.1071
31572W        W44986   0.461  11.395   3.064 -0.2864 -0.2580 -0.0012
31573W        W44987   7.593  17.405  10.639 -0.0378 -0.2825  0.0556
31574W        W44988  17.071  15.011  16.366  0.1553 -0.0055  0.2184
31575W        W44989  12.360  15.156   6.234  0.0243 -0.1096  0.0552
31576W        W44990  15.842  11.510   1.288 -0.0861  0.0285  0.0851
31577W        W44991  13.080  13.296  16.034  0.1125  0.5695  0.0156
31578W        W44992   6.559  12.475   3.736  0.2441  0.1831 -0.2534
31579W        W44993  10.167  10.169  11.327 -0.2840  0.1172  0.0928
31580W        W44994   6.860  12.174   4.947 -0.2144  0.2965  0.2006
31581W        W44995   7.164  16.807  14.206 -0.2774 -0.2330  0.4219
31582W        W44996  17.674  13.941  15.127  0.0357  0.0035  0.0248
31583W        W44997  14.296   7.543   2.296  0.1586 -0.2270  0.0237
31584W        W44998  13.912   4.906  10.393  0.1020 -0.4742  0.0461
31585W        W44999   8.024   8.234   3.610  0.0582 -0.1071  0.0981
31586W        W45000   0.919   6.141  12.369 -0.2064 -0.0598  0.0517
31587W        W45001   0.786   1.604   0.418  0.0377 -0.1076  0.2734
31588W        W45002   4.945  12.199   5.738  0.0680  0.0597 -0.0648
31589W        W45003  11.482   3.510   2.799  0.0625 -0.2526 -0.3201
31590W        W45004   3.305  12.413   6.417 -0.0442 -0.1209  0.0988
31591W        W45005  17.863   2.719  11.428 -0.0931  0.1283  0.3518
31592W        W45006  14.345   8.603   3.181  0.1728 -0.2158  0.0041
31593W        W45007  16.061  15.249  16.071  0.4875 -0.0163  0.2337
31594W        W45008  16.736   9.157   3.157 -0.2390 -0.1966  0.0061
31595W        W45009   4.712   8.388   3.118 -0.3008 -0.2932 -0.1231
31596W        W45010  15.591   6.393  14.142  0.1460 -0.2156 -0.0938
31597W        W45011   9.461  10.458   4.643 -0.0921  0.2820  0.2052
31598W        W45012   6.111  11.975  11.070  0.0094 -0.0559 -0.0433
31599W        W45013  12.278  15.288  15.028  0.0641 -0.0054 -0.0959
31600W        W45014   7.985  16.128  13.985 -0.1276 -0.3475  0.0600
31601W        W45015   5.385  16.380  11.439 -0.0775 -0.2252  0.1311
31602W        W45016   5.006  16.019  11.590  0.0756 -0.2090  0.0318
31603W        W45017   7.855   4.001   2.638  0.0761 -0.0349  0.0487
31604W        W45018  16.822   1.379  11.389 -0.0617 -0.0696  0.0315
31605W        W45019  13.306   7.536   0.023 -0.0739 -0.5820  0.1081
31606W        W45020  16.487   5.259  10.857  0.1681  0.0878 -0.0775
31607W        W45021   9.696   4.617   2.841  0.0566 -0.1405  0.1192
31608W        W45022   3.738   8.215   1.635  0.1186 -0.1670 -0.0423
31609W        W45023   6.585   1.501   3.521  0.2721  0.2924  0.1210
31610W        W45024   1.069   0.605  14.609  0.1951 -0.0277 -0.1031
31611W        W45025   1.627   3.919  15.070 -0.0362  0.2469  0.1226
31612W        W45026  10.266   4.271  12.972  0.4172 -0.2495  0.0284
31613W        W45027  12.661   9.785  14.540  0.0771  0.1717 -0.1272
31614W        W45028  17.394   7.168   2.977  0.1311  0.1579  0.0374
31615W        W45029  15.994   2.184   2.968  0.1195  0.4242  0.1270
31616W        W45030  17.629  14.213  10.813 -0.3102 -0.1913 -0.0935
31617W        W45031   6.327  14.881  10.797  0.0881 -0.0525  0.1542
31618W        W45032   0.310   8.644   6.487 -0.1632 -0.1019  0.0727
31619W        W45033   3.315   3.810  14.665  0.0697  0.0284 -0.0535
31620W        W45034  11.364   4.602   1.534 -0.0838 -0.2634 -0.0190
31621W        W45035  16.803   4.162   5.437 -0.3195  0.0037  0.2994
31622W        W45036   6.646   8.669  12.742 -0.2372  0.4350 -0.0675
31623W        W45037   6.238  10.874   5.399  0.2103 -0.1227 -0.3773
31624W        W45038  10.203   5.477  12.104 -0.0558  0.3329 -0.2230
31625W        W45039   9.698   2.523   3.980  0.1548  0.1152 -0.3691
31626W        W45040  14.591  15.018  15.027 -0.0670  0.0717 -0.0890
31627W        W45041  11.861   8.180   3.205  0.1690  0.0341 -0.0491
31628W        W45042   3.283   8.790   0.129  0.0709 -0.0759 -0.0761
31629W        W45043  11.684  14.087  14.417 -0.0374 -0.4449 -0.0320
31630W        W45044  16.990  11.697  12.779 -0.0241  0.3192  0.0373
31631W        W45045   2.181   0.497   1.552  0.3076  0.1230  0.0291
31632W        W45046   0.364   1.978  13.427 -0.1983  0.1838  0.2442
31633W        W45047   0.822  15.661  15.066 -0.0354  0.1276  0.2058
31634W        W45048   2.569  15.777  12.519  0.4207  0.0785  0.1648
31635W        W45049  16.485   5.173   5.293  0.1527  0.1942 -0.1697
31636W        W45050   3.685   7.967   4.790  0.2480 -0.0814  0.2601
31637W        W45051  16.993   9.476   4.145  0.0076  0.2869  0.3688
31638W        W45052  18.102  13.611   2.457  0.0373  0.2901  0.0389
31639W        W45053   2.186   5.679   1.384  0.1134 -0.2014  0.1659
31640W        W45054   3.675   2.148  15.426  0.0828  0.1792 -0.2324
31641W        W45055   4.639   4.170   0.726  0.3074 -0.3533  0.0164
31642W        W45056  15.831   9.964  12.672 -0.6112 -0.3111  0.2840
31643W        W45057   4.212  13.247   2.116  0.0192  0.1525 -0.0115
31644W        W45058   4.025   2.699   2.297  0.4752 -0.1943 -0.0740
31645W        W45059  12.855   5.719   0.910  0.2085 -0.0323 -0.0142
31646W        W45060  11.985   5.682   3.064  0.0380  0.0665 -0.0246
31647W        W45061  10.102  11.770   1.237  0.3164 -0.0382  0.2236
31648W        W45062  12.631  17.324  12.070 -0.1505  0.0140 -0.0581
31649W        W45063   7.817  13.933   4.907  0.0786 -0.0029 -0.0566
31650W        W45064  18.111  13.533  13.154  0.2826  0.0340  0.0017
31651W        W45065  13.774   6.531  15.013 -0.0337 -0.2771  0.0310
31652W        W45066  11.164   4.640   0.408 -0.1659  0.0096  0.1866
31653W        W45067  16.009   4.846   3.858  0.2880 -0.0458 -0.0479
31654W        W45068   7.268   6.250   3.639  0.0041 -0.3131  0.0586
31655W        W45069  14.696   7.952   1.606  0.0276  0.0380  0.0058
31656W        W45070   1.958   6.655  13.833  0.1756 -0.0651  0.1613
31657W        W45071   4.206  13.706  15.706  0.0014 -0.1962  0.2623
31658W        W45072   8.416  15.026   3.161  0.1399 -0.2288 -0.3035
31659W        W45073   6.069   9.605   3.028  0.2201  0.1173 -0.2075
31660W        W45074   8.977   7.422  12.468  0.2073 -0.1707 -0.0727
31661W        W45075   9.543  12.107  14.357 -0.1536 -0.0665 -0.1007
31662W        W45076   7.554  14.176  10.571 -0.1816  0.2717  0.2166
31663W        W45077   0.173   4.471   0.436 -0.2290 -0.4473  0.0626
31664W        W45078  10.217  17.891  15.225  0.4839  0.0662 -0.0835
31665W        W45079   9.995   8.081  15.775  0.0619  0.1019  0.1385
31666W        W45080  17.580  15.461   6.098 -0.0847 -0.0896 -0.0151
31667W        W45081  14.725   7.767   2.609 -0.0002 -0.0942 -0.0567
31668W        W45082   9.315   1.884  14.847 -0.0501  0.2116  0.0732
31669W        W45083   4.050  17.968  13.749  0.0512 -0.3453  0.0042
31670W        W45084   4.395   9.376   2.079 -0.1704 -0.1226 -0.1438
31671W        W45085   4.629   7.358   3.148  0.1332 -0.1318 -0.0376
31672W        W45086   6.875   7.456  13.288 -0.3363  0.1453 -0.0508
31673W        W45087   9.220  11.342  11.063 -0.0796  0.1578 -0.0940
31674W        W45088   7.366  11.973  15.932 -0.0051 -0.0966 -0.1389
31675W        W45089   9.670   8.025  12.375 -0.1844 -0.3222 -0.1548
31676W        W45090   6.131  15.296   2.388  0.0289  0.1307  0.1205
31677W        W45091  16.873   7.132  12.287  0.2769 -0.0845 -0.1125
31678W        W45092  14.789   7.446  14.327  0.2405 -0.1893  0.3545
31679W        W45093   6.198   7.397   4.786  0.0915  0.0290 -0.0335
31680W        W45094  17.580   0.406  15.689  0.2842  0.0764 -0.2851
31681W        W45095  15.832  10.968   3.204 -0.2520 -0.3785  0.0426
31682W        W45096   3.613   9.084  14.273 -0.0609 -0.0496 -0.0397
31683W        W45097   7.358  17.701  12.339  0.1552 -0.2971  0.1092
31684W        W45098   9.571   8.539  12.253  0.1220  0.0133 -0.0321
31685W        W45099   5.681  10.998   3.199 -0.1975  0.2933  0.0265
31686W        W45100   8.209  11.209  14.061 -0.2477 -0.0583  0.0519
31687W        W45101   9.009   2.994   3.022 -0.1832 -0.0069  0.0842
31688W        W45102  10.217  16.575  10.692  0.1323  0.1422  0.1317
31689W        W45103  11.372   9.999   1.601  0.1656  0.1320 -0.1585
31690W        W45104   1.704   2.657  13.762  0.0232  0.1961 -0.0338
31691W        W45105  13.635   1.853  13.432 -0.1191  0.1037 -0.0821
31692W        W45106   7.188   1.673  16.047 -0.0162  0.1385 -0.2143
31693W        W45107   2.623  15.662  11.173  0.2583  0.2650  0.0195
31694W        W45108  11.265   8.728   0.704  0.1931 -0.0065 -0.1958
31695W        W45109  15.767   0.642   6.068 -0.2488  0.0891  0.0219
31696W        W45110  12.276   3.600  11.106 -0.1553  0.0165  0.1219
31697W        W45111   4.815   7.319   4.393  0.0972 -0.0893 -0.5889
31698W        W45112   7.311   2.395  16.452  0.0539  0.0935 -0.2199
31699W        W45113  11.851  14.376  11.456  0.6757  0.4043 -0.1217
31700W        W45114  16.180  13.036   2.025 -0.2094  0.0449 -0.0236
31701W        W45115   4.471  16.929  11.812  0.1067  0.2364 -0.3687
31702W        W45116  11.276   3.301  14.245 -0.2173 -0.0141  0.1327
31703W        W45117   6.524   7.986   6.049 -0.2746 -0.1017  0.2702
31704W        W45118  16.837   1.033  16.274  0.0117 -0.2800 -0.2534
31705W        W45119   0.326   9.475   5.554  0.1241  0.3480 -0.0424
31706W        W45120   9.918  11.446  13.954  0.2051 -0.1041 -0.1120
31707W        W45121   7.568   4.498  11.724 -0.1051 -0.1355 -0.2157
31708W        W45122   1.079  18.151   5.301 -0.1918 -0.0642  0.0434
31709W        W45123   9.320   1.098   0.485 -0.1015 -0.0440  0.0576
31710W        W45124  16.158   2.154  13.992  0.0919  0.2626 -0.3764
31711W        W45125   7.069   7.240   6.565  0.2511 -0.0967  0.3876
31712W        W45126  15.589   2.892  14.163 -0.0637 -0.2478 -0.0107
31713W        W45127   2.151  10.589   1.187  0.2202  0.1078 -0.1850
31714W        W45128  11.434   6.400  10.701  0.0501 -0.0596 -0.2541
31715W        W45129  13.549   7.933  11.260 -0.0181 -0.0887  0.1923
31716W        W45130   9.544   9.472   5.160  0.1944 -0.0956 -0.2153
31717W        W45131   0.570   1.413   5.923  0.2040 -0.0753  0.0883
31718W        W45132   0.934   5.909  12.796 -0.0460  0.0693 -0.2720
31719W        W45133  13.703  17.618  11.302  0.0757 -0.1433  0.1121
31720W        W45134   3.370  10.984  13.531  0.0283 -0.2553 -0.2256
31721W        W45135   5.998  16.094   5.392  0.1181 -0.2643  0.2499
31722W        W45136   2.087  18.134   5.070 -0.0894 -0.0850 -0.1179
31723W        W45137   6.330  14.524  15.345  0.0701 -0.2997  0.0009
31724W        W45138  12.876   2.283   3.835  0.1649  0.1300 -0.2391
31725W        W45139   5.619   4.383   2.751 -0.2004  0.0280  0.3076
31726W        W45140   1.508   2.306  14.078  0.0921  0.0298  0.1328
31727W        W45141  15.102  16.587  12.015  0.1090 -0.1649 -0.2969
31728W        W45142   7.932   4.749  14.225  0.1361  0.0140 -0.0337
31729W        W45143   2.637   6.670  12.877 -0.0129 -0.2519  0.0686
31730W        W45144   0.123   3.314   4.634 -0.0228  0.1239 -0.3933
31731W        W45145   6.530  16.330   2.413  0.2658 -0.0666 -0.2674
31732W        W45146   4.342   4.348  16.102  0.0948 -0.2554  0.3133
31733W        W45147  14.999  15.238  13.535  0.0820 -0.0490  0.0803
31734W        W45148  12.515   4.349   5.157  0.4708  0.0985 -0.0841
31735W        W45149  14.733   1.861  16.194 -0.1421  0.0970 -0.0550
31736W        W45150   7.302   2.158   0.391  0.0697  0.0280  0.0154
31737W        W45151   4.259   8.198   0.875  0.1321 -0.0013 -0.1026
31738W        W45152  14.856   9.659   2.614 -0.1096  0.1104 -0.2125
31739W        W45153  13.354   9.530  13.481  0.0494  0.0713 -0.0627
31740W        W45154  12.116  14.573   1.274 -0.2846  0.2856  0.0146
31741W        W45155   6.697   3.716  16.484 -0.1307  0.0468  0.3390
31742W        W45156   0.936  12.591   5.074 -0.0417  0.1558  0.0162
31743W        W45157  15.483   2.041  12.612  0.0610 -0.3321 -0.2816
31744W        W45158   0.248   7.399   3.812 -0.0962 -0.1284 -0.2942
31745W        W45159   0.990   2.036   5.523 -0.0670  0.1538  0.1563
31746W        W45160  10.056   4.248   2.713  0.2437 -0.0596  0.1241
31747W        W45161   7.009   0.192   3.638  0.1062 -0.4499  0.1189
31748W        W45162  10.614   8.547   4.066 -0.3603  0.3798 -0.1170
31749W        W45163   9.632  15.202  13.713 -0.1748  0.0184 -0.0500
31750W        W45164   8.598  13.228   3.436  0.0623 -0.3169 -0.1701
31751W        W45165   9.955  12.555   3.934 -0.1684 -0.1497  0.0503
31752W        W45166  10.636   0.144  13.282 -0.0856  0.0233 -0.1499
31753W        W45167   1.086  13.248   2.663  0.3185 -0.1435  0.1961
31754W        W45168  14.210   1.855   3.246 -0.3724 -0.1990 -0.0746
31755W        W45169   5.333   0.950   3.474 -0.0040 -0.1573  0.1465
31756W        W45170   4.994  11.864   6.096 -0.0763  0.2282  0.0933
31757W        W45171  18.182   1.618  14.228  0.0225 -0.0652 -0.0716
31758W        W45172   4.283  17.215   0.468 -0.0586 -0.1000  0.1246
31759W        W45173  12.662  16.177  12.597  0.5336  0.0290 -0.0088
31760W        W45174  13.324  13.233   4.205 -0.3154 -0.0124 -0.0747
31761W        W45175  11.645  17.609   2.661 -0.1005 -0.1633 -0.0615
31762W        W45176   9.147  14.860  14.805  0.0948  0.0021  0.1802
31763W        W45177   6.317  10.285   0.745 -0.1393  0.2182 -0.0352
31764W        W45178  14.957   8.370  10.861  0.5097 -0.2208 -0.0421
31765W        W45179   4.173   1.016  12.365  0.3180  0.0356  0.2815
31766W        W45180   5.079  11.472   5.109  0.0524 -0.0606  0.2559
31767W        W45181  12.378   6.750   4.886 -0.0272 -0.2595 -0.0612
31768W        W45182  13.863   5.878  10.295  0.0137  0.0862 -0.1977
31769W        W45183  16.187  12.222   2.104 -0.0364 -0.1177 -0.0024
31770W        W45184  11.958   1.093   3.575  0.0755  0.1241  0.0979
31771W        W45185  17.544  16.858  14.937  0.0439  0.0036  0.3046
31772W        W45186   7.917   6.931  16.121 -0.0539 -0.1483  0.4985
31773W        W45187   1.799  15.092   4.760  0.0318 -0.3846  0.0913
31774W        W45188  11.295   5.544   3.573 -0.1719 -0.0345 -0.1959
31775W        W45189  17.209  15.942  13.196  0.0482 -0.1472  0.1398
31776W        W45190   5.465  14.691   4.999 -0.2119 -0.4582 -0.3378
31777W        W45191  14.138   4.585  13.430  0.0841  0.2008 -0.2223
31778W        W45192  17.683  17.397  11.926 -0.1000 -0.1007 -0.2263
31779W        W45193  15.151   0.623  10.293 -0.0877 -0.2255 -0.0388
31780W        W45194  15.311   8.054  12.374 -0.0171 -0.0547 -0.2281
31781W        W45195   2.297  13.611   3.121 -0.1486 -0.3862  0.1386
31782W        W45196  10.178  17.251  12.252 -0.3461  0.0761  0.1154
31783W        W45197   6.381   4.523   4.783 -0.0953  0.0529  0.1168
31784W        W45198   1.871   3.424  14.332  0.0051  0.0492 -0.1610
31785W        W45199  16.059  10.483   3.180  0.1783 -0.0162  0.1163
31786W        W45200  16.257  12.768  14.847  0.1350  0.0274 -0.3247
31787W        W45201   9.589  15.393   4.943  0.1185 -0.0593 -0.3154
31788W        W45202   5.711   5.690   4.855  0.0700  0.0538 -0.3757
31789W        W45203   1.570   6.364  14.491 -0.0279 -0.1745 -0.0169
31790W        W45204   0.919   8.685  14.202 -0.2939  0.0521 -0.0023
31791W        W45205   3.581  11.480  14.419  0.1403  0.0497  0.2702
31792W        W45206  12.532   8.712   0.297 -0.3018  0.2712 -0.3053
31793W        W45207  12.133   0.200   2.449 -0.1508 -0.0039 -0.0015
31794W        W45208   0.175  17.276  11.111 -0.0027  0.2253  0.2999
31795W        W45209   9.296  16.255  14.680 -0.2255 -0.0325  0.1372
31796W        W45210   2.316   4.121   0.932 -0.1262 -0.1178 -0.1557
31797W        W45211  16.677  10.497   2.502 -0.1080  0.1425  0.1216
31798W        W45212   5.766   2.601   1.177  0.1688  0.4599  0.0487
31799W        W45213  14.260   5.292  16.362  0.0715 -0.3439 -0.0101
31800W        W45214  12.688  15.002   9.951  0.2287 -0.1020 -0.2587
31801W        W45215  11.517  15.892  14.106  0.1976  0.1850 -0.0523
31802W        W45216   5.136  11.357   3.702  0.0124  0.0555 -0.4122
31803W        W45217  15.116  16.276   2.698 -0.2128 -0.0159 -0.3465
31804W        W45218   6.641  11.684   1.151  0.2250 -0.2313  0.0772
31805W        W45219  16.784  11.736   0.483  0.1436  0.0123  0.0125
31806W        W45220   3.972   8.702  12.288  0.1009 -0.1257  0.0711
31807W        W45221   8.146   9.350  14.706  0.2543  0.2330 -0.0709
31808W        W45222   2.470  12.985   0.419 -0.1108 -0.1047 -0.1076
31809W        W45223   4.310   0.421  14.848 -0.0646  0.3522 -0.1414
31810W        W45224   2.464   1.971   4.412  0.3288 -0.2479  0.2861
31811W        W45225  14.785  12.276   4.062  0.0547 -0.1069 -0.2139
31812W        W45226  13.096   4.546  11.725  0.2820 -0.0957  0.1819
31813W        W45227  13.195  13.318   4.752  0.0408  0.0798 -0.1246
31814W        W45228   9.542   3.019   3.053  0.1218 -0.1047  0.1665
31815W        W45229   4.522   1.732  14.666  0.0025 -0.0228  0.0486
31816W        W45230   4.488   5.827   4.040  0.1636 -0.0225  0.2826
31817W        W45231   9.533   6.835   2.943  0.2056 -0.0409  0.4010
31818W        W45232   5.149   7.111  10.548 -0.1159  0.0330 -0.2105
31819W        W45233  16.779   2.315  15.763 -0.0083  0.1958 -0.1244
31820W        W45234  10.299  11.516   3.324 -0.0324  0.0797 -0.0416
31821W        W45235  12.444   1.192  13.582  0.2705  0.1684  0.0260
31822W        W45236  15.970   4.359  13.646  0.0325 -0.3263 -0.0107
31823W        W45237  11.624   1.527   1.241 -0.2803  0.1386 -0.0186
31824W        W45238   7.058  12.861  12.733 -0.2753  0.3294  0.1299
31825W        W45239   6.533  11.260   3.066  0.1052 -0.0744  0.1296
31826W        W45240   7.046  14.174  14.513  0.0435 -0.1758  0.0814
31827W        W45241   3.356   9.907   0.704 -0.1061 -0.1808 -0.0839
31828W        W45242  16.753   6.120   3.723  0.0698  0.1782  0.2191
31829W        W45243   7.355  14.125   3.190 -0.1477  0.2186  0.0392
31830W        W45244  13.047   2.221  14.477 -0.0353  0.2717 -0.0026
31831W        W45245   6.696   2.653  12.782  0.2912  0.1019  0.1437
31832W        W45246   4.749   5.477   1.389  0.3426  0.1461 -0.3340
31833W        W45247  15.898   1.741  12.613 -0.4156  0.0383 -0.0437
31834W        W45248  10.025   5.715   1.330 -0.0177 -0.0438  0.1934
31835W        W45249   3.259  12.373  15.403  0.1001 -0.0254 -0.1749
31836W        W45250  12.153   4.739  12.775 -0.0609 -0.0534  0.0002
31837W        W45251   6.651   5.605   0.987 -0.0648  0.0015  0.0917
31838W        W45252  12.081  17.036  13.683  0.1733  0.1149 -0.0468
31839W        W45253   2.989   1.579   2.699 -0.1314 -0.4717 -0.0146
31840W        W45254   6.938   1.415  12.494  0.1591  0.0165  0.5167
31841W        W45255   1.716  14.767  13.093 -0.3221 -0.1827  0.0734
31842W        W45256   4.476   1.017  11.385 -0.1169  0.1275 -0.0246
31843W        W45257   5.481   2.288  16.374 -0.4740 -0.0559  0.1738
31844W        W45258   6.400  12.909   4.080  0.0062  0.2909  0.1861
31845W        W45259   5.579   0.427   2.333  0.1265 -0.3402 -0.1421
31846W        W45260   1.493   0.043  16.430 -0.0513 -0.0654  0.0031
31847W        W45261  12.133   4.728   4.326  0.0979 -0.0523 -0.0155
31848W        W45262   3.975   7.355   5.418 -0.2067 -0.0321 -0.0013
31849W        W45263  11.231   1.890  12.449 -0.0858  0.1178  0.0639
31850W        W45264   8.992   0.687  14.455  0.2509 -0.0593  0.1022
31851W        W45265  16.615   0.991   4.390 -0.0366  0.2967  0.0279
31852W        W45266   2.050  10.924   3.111 -0.4383 -0.2427  0.1713
31853W        W45267   0.039   6.139   1.859 -0.1490  0.0356  0.0066
31854W        W45268  13.619   7.974  13.290  0.0002 -0.2330 -0.5196
31855W        W45269   7.729   7.835  15.960  0.1441  0.1296  0.0679
31856W        W45270  13.508   0.442   3.165  0.2127  0.1563  0.1114
31857W        W45271   1.536  14.419  14.752 -0.2267 -0.0725  0.3342
31858W        W45272  15.602   8.557   0.798  0.2019  0.0978  0.0722
31859W        W45273  11.579   3.735   6.033  0.1725  0.1618 -0.0090
31860W        W45274  12.438  11.326  12.256 -0.2569 -0.2079  0.1033
31861W        W45275  10.952   6.702   5.626 -0.1518 -0.0310  0.0243
31862W        W45276  15.534   1.478   3.400  0.0712 -0.1518  0.1420
31863W        W45277   4.987  13.991  13.963  0.2291  0.2987  0.1076
31864W        W45278  10.279   9.026  14.020  0.0985 -0.0507 -0.3210
31865W        W45279   7.530   2.993  10.930  0.1317  0.0282 -0.0640
31866W        W45280  16.263  18.053   2.220  0.1010 -0.1402  0.1065
31867W        W45281   4.301   4.114   1.159  0.0537  0.1797  0.0496
31868W        W45282   3.504   2.487   1.533  0.1292 -0.2651 -0.1940
31869W        W45283  17.999  17.604  10.935  0.2582  0.0335  0.2798
31870W        W45284   3.145   2.624  14.334  0.0477 -0.3919  0.0469
31871W        W45285  15.960   8.582   4.536 -0.0615 -0.0699 -0.3375
31872W        W45286   4.837  14.089   4.533 -0.1548 -0.0488  0.2414
31873W        W45287  16.039   8.428  11.743  0.1490  0.2211 -0.1767
31874W        W45288  11.681  14.805  13.905  0.3490 -0.1440 -0.1100
31875W        W45289  12.859  16.771   0.880  0.0284  0.0026 -0.0773
31876W        W45290   9.634  13.833  13.756 -0.0479  0.1799 -0.3634
31877W        W45291  11.045   9.293  11.061 -0.2437  0.2866 -0.2043
31878W        W45292  12.270   4.223   3.558 -0.2550  0.0171 -0.2455
31879W        W45293  13.427  13.630  14.148  0.1670 -0.0387  0.2760
31880W        W45294  14.951   1.806  11.905  0.2429  0.2015  0.0001
31881W        W45295  15.091  13.755  14.786  0.1790  0.0148 -0.0634
31882W        W45296   2.198   6.162   5.204 -0.2140 -0.1408 -0.5752
31883W        W45297  17.899  16.108   3.074  0.2009 -0.2277 -0.0555
31884W        W45298   7.970   5.454   5.018 -0.1503  0.0897 -0.2629
31885W        W45299   7.596  16.909  10.781  0.1972  0.1900 -0.1473
31886W        W45300   7.960  16.518   1.616 -0.0994 -0.0066 -0.1888
31887W        W45301   9.796  11.922  16.110 -0.1272  0.0516  0.2210
31888W        W45302   7.729   7.885  13.079 -0.1753  0.0251 -0.0877
31889W        W45303  12.453   6.752  15.425 -0.0290  0.0200  0.0239
31890W        W45304   2.781   2.582   5.557 -0.0008  0.0483  0.0656
31891W        W45305   5.053   8.857  12.996  0.1804 -0.1767  0.1176
31892W        W45306  10.332   5.770   3.555  0.0958  0.1133 -0.2405
31893W        W45307  12.727   9.360  14.850  0.3020 -0.1153 -0.1923
31894W        W45308   1.136   9.549  14.919  0.0111 -0.0119  0.2649
31895W        W45309  11.191   0.031   0.846 -0.2091  0.3908  0.2722
31896W        W45310  13.576  14.625  14.684  0.1009  0.2174  0.0025
31897W        W45311  12.096  10.589   1.444  0.4049 -0.1698  0.1223
31898W        W45312   8.463   5.362   4.927  0.0921 -0.0546  0.1540
31899W        W45313   1.888  11.950  12.001 -0.2802  0.1664 -0.2304
31900W        W45314   2.525   4.524  12.771 -0.1890  0.1504 -0.2456
31901W        W45315   0.072   9.147   4.670 -0.0785 -0.5266 -0.1148
31902W        W45316  14.265   8.312   4.912  0.1990  0.2798  0.1780
31903W        W45317  17.871  12.244  10.322  0.0841  0.0339 -0.3133
31904W        W45318  17.650  12.309  16.397  0.0198 -0.0983  0.0018
31905W        W45319   7.744   3.618  15.018  0.2061 -0.3260 -0.1343
31906W        W45320  15.918  17.267   1.705  0.0901 -0.2863 -0.2902
31907W        W45321  14.077   9.322  12.312  0.3303  0.0174  0.0710
31908W        W45322   9.292  15.925   0.759 -0.0895 -0.1503 -0.2938
31909W        W45323  11.310  12.837  11.289  0.2590  0.2816 -0.0098
31910W        W45324  12.892  11.403  16.137 -0.0382 -0.2727  0.2468
31911W        W45325  13.609  18.056  16.301 -0.2367  0.3257 -0.0652
31912W        W45326  12.861  13.607  11.370 -0.0026  0.5159 -0.1389
31913W        W45327   7.324   3.626   3.249 -0.0730 -0.2648 -0.0889
31914W        W45328   1.465   9.891   6.190  0.1753 -0.0067 -0.1987
31915W        W45329   7.613   8.553   6.272 -0.3931  0.2175 -0.1825
31916W        W45330   7.960   9.830   3.119  0.2096  0.2648 -0.0239
31917W        W45331   2.042   9.097  12.304 -0.0267 -0.0562  0.1025
31918W        W45332   0.294   9.892  12.422  0.1156  0.0811  0.1746
31919W        W45333   3.132  11.009  14.855 -0.1062 -0.2274 -0.2945
31920W        W45334   5.120   1.635   2.495  0.0613 -0.0686 -0.1756
31921W        W45335   0.937  16.836  12.745 -0.1113  0.2909  0.0026
31922W        W45336   9.893  17.017  16.019 -0.0586  0.1613 -0.3001
31923W        W45337   9.207   5.895   0.465  0.1332  0.1751  0.0806
31924W        W45338  17.000   2.584  10.884 -0.0793  0.1904 -0.0309
31925W        W45339   3.111  17.718  16.268  0.0387  0.1985 -0.0098
31926W        W45340  14.386  17.190  15.858 -0.5911  0.1141  0.0557
31927W        W45341   3.155  14.481   3.437  0.0213 -0.1270 -0.0023
31928W        W45342  12.489   5.008  13.085 -0.0359  0.0186  0.0047
31929W        W45343   9.315   6.080  14.509  0.0727  0.3362  0.2031
31930W        W45344   8.614  14.084   4.471  0.1905 -0.1164  0.2362
31931W        W45345  10.937  10.880   5.766  0.0125  0.1265 -0.0076
31932W        W45346  14.320   8.435   0.157  0.1597  0.0415 -0.1762
31933W        W45347  11.222  12.089   0.715  0.0313 -0.1102  0.0270
31934W        W45348   7.646   1.250  11.160  0.0246 -0.0816  0.0105
31935W        W45349   3.059  17.186  16.403 -0.0442 -0.1984  0.0969
31936W        W45350   1.510  11.880   1.213 -0.1641 -0.3693  0.2103
31937W        W45351  15.765   6.462   0.951  0.2870 -0.1766  0.2607
31938W        W45352   3.717   0.995  15.534 -0.0882 -0.2108 -0.1060
31939W        W45353   3.755   9.137  13.071 -0.1503 -0.0452  0.1783
31940W        W45354   8.149   9.164  15.711 -0.2968  0.2834  0.1623
31941W        W45355   2.014   9.645  15.445 -0.0451  0.2398  0.1476
31942W        W45356   4.033  16.454  12.841 -0.3263  0.0033 -0.1754
31943W        W45357   8.558   0.734   0.077  0.3594  0.4999 -0.3369
31944W        W45358  12.815   3.059  10.877 -0.2814 -0.3349  0.0061
31945W        W45359  17.727  13.702   4.035 -0.1831 -0.0700 -0.1562
31946W        W45360   7.388  16.625   0.303  0.0055  0.0898  0.3171
31947W        W45361  14.642  12.023  11.215  0.0051  0.1534 -0.0820
31948W        W45362   4.928  10.657  15.711  0.2100 -0.2123 -0.1295
31949W        W45363  10.277   6.804  15.435  0.0154  0.0367 -0.0135
31950W        W45364   4.309   4.971   0.320 -0.0812 -0.0818 -0.2626
31951W        W45365   6.431   4.664   1.841 -0.3683  0.0197  0.0911
31952W        W45366   8.841   6.962  13.188 -0.1047  0.1447 -0.0896
31953W        W45367   5.220   1.829   0.555 -0.0457 -0.0296 -0.3822
31954W        W45368   6.612  10.751   3.041  0.0088 -0.0243  0.0379
31955W        W45369  10.528  12.669   5.656  0.1565  0.1740  0.0569
31956W        W45370   4.509   2.273   0.004 -0.1983 -0.2570  0.0267
31957W        W45371   1.614  15.727  12.304  0.4672 -0.0132 -0.1635
31958W        W45372   9.681  12.342  15.722  0.0920 -0.0541 -0.2343
31959W        W45373   7.865   7.036   2.591  0.0371 -0.0206 -0.0757
31960W        W45374   0.542   9.782   4.311 -0.0415  0.0323 -0.0593
31961W        W45375  10.230  15.957   4.866 -0.2187  0.0332 -0.0647
31962W        W45376   2.320  13.835  11.935  0.1169  0.0077  0.1693
31963W        W45377  16.396  15.096   5.004 -0.0901  0.1298 -0.3194
31964W        W45378   8.958   8.616  13.797 -0.1889 -0.1719  0.1175
31965W        W45379   8.036  10.758  15.467 -0.0696  0.1691 -0.3268
31966W        W45380   0.906   3.756  11.194 -0.0049  0.0536 -0.1046
31967W        W45381  16.051  18.137   2.704 -0.0574 -0.0585  0.0669
31968W        W45382   2.954  12.884   0.566  0.0182 -0.1764 -0.4231
31969W        W45383   6.472   6.167  12.278 -0.0603 -0.1510  0.1352
31970W        W45384  10.645  13.962   2.943  0.0111 -0.3406 -0.2851
31971W        W45385   8.052   8.055  10.973 -0.1657  0.1514  0.2793
31972W        W45386   8.289   4.122   3.704  0.0643  0.2268  0.0549
31973W        W45387   8.890  15.043  11.029 -0.0968 -0.0554 -0.2304
31974W        W45388   4.689   4.895   1.544 -0.2424 -0.2506 -0.3767
31975W        W45389   8.689  17.162  15.881 -0.1711 -0.0737 -0.0209
31976W        W45390  10.407   4.649  14.669  0.0200  0.2307 -0.3067
31977W        W45391   8.561  15.653  15.054  0.1360  0.0265  0.1783
31978W        W45392   0.584  16.037   4.605 -0.0106  0.0666 -0.1083
31979W        W45393   0.898  16.939  15.388  0.2520  0.3083  0.0595
31980W        W45394  16.119   1.800   4.408 -0.0873  0.0725  0.1427
31981W        W45395  11.020  10.838   0.551 -0.0840 -0.0921 -0.1627
31982W        W45396   8.828  17.468   3.857  0.1719 -0.2114 -0.2244
31983W        W45397   8.718   8.726  14.242 -0.1771  0.4135  0.3604
31984W        W45398  14.376  16.581   0.194  0.1181 -0.1247  0.0100
31985W        W45399   6.784   2.957  15.856  0.3363 -0.0111 -0.1914
31986W        W45400  14.069  16.556   0.567 -0.0010 -0.0087  0.0395
31987W        W45401   0.303   3.484   3.722 -0.1241  0.0052  0.1205
31988W        W45402  17.257   8.436   1.524  0.1958 -0.2048 -0.1637
31989W        W45403  12.304   6.775   2.679 -0.1160 -0.0715 -0.3673
31990W        W45404  15.992   9.037  10.885 -0.2506  0.0438 -0.1822
31991W        W45405  14.602  17.943  12.368  0.1350 -0.0506 -0.3026
31992W        W45406  12.299  17.166  13.254 -0.1939  0.0755  0.0881
31993W        W45407   8.595   5.784  10.000  0.1365  0.0760  0.1526
31994W        W45408   5.654  10.934   0.495 -0.0817 -0.3405 -0.0098
31995W        W45409   1.925  14.182  14.486  0.1160 -0.2314  0.0417
31996W        W45410   3.631   6.681  15.098  0.1277 -0.0952  0.1981
31997W        W45411  10.567  10.108  14.780 -0.1621  0.2181 -0.0529
31998W        W45412   0.979   7.554  12.660  0.2073  0.1199 -0.2248
31999W        W45413   4.400   2.138   3.041  0.0052  0.2238  0.1046
32000W        W45414   6.900  17.770   3.191 -0.1734  0.2913  0.2759
32001W        W45415   7.757  13.924  13.959 -0.1215  0.2428  0.1774
32002W        W45416   6.204   5.645   2.094 -0.1010 -0.3616  0.0203
32003W        W45417   5.461   4.221  15.236  0.0222  0.0922  0.2057
32004W        W45418   0.167  13.661  11.677  0.3008  0.1311 -0.2963
32005W        W45419   1.676  13.271   3.578 -0.1894  0.1397  0.2960
32006W        W45420   6.988   5.493   2.306 -0.2211 -0.1281  0.1434
32007W        W45421   9.180   2.082   1.963  0.4385  0.0533 -0.2414
32008W        W45422   4.244   9.437   3.496  0.0892  0.1292 -0.0860
32009W        W45423   3.166   8.802  14.326  0.2304 -0.2680 -0.1539
32010W        W45424  11.062  11.826  12.951  0.3821 -0.0678 -0.0201
32011W        W45425  13.657  17.390  12.901 -0.0428  0.0264  0.0825
32012W        W45426   3.439  15.721  14.660 -0.0359  0.1809 -0.0826
32013W        W45427   3.364   4.691   0.442 -0.1684 -0.2811 -0.1425
32014W        W45428  10.904  10.181  13.783 -0.0365  0.1934 -0.1567
32015W        W45429   3.531   0.580   6.433 -0.3478 -0.2014 -0.1586
32016W        W45430   8.000  10.802   0.752  0.0867 -0.0154 -0.2659
32017W        W45431   4.491   6.716  13.722 -0.1668  0.2176  0.0888
32018W        W45432  12.487   2.473   0.072  0.0307  0.4810  0.1004
32019W        W45433   0.336  14.472   5.865 -0.2669  0.0048 -0.1499
32020W        W45434   7.268  15.682  12.911  0.0030  0.1457  0.1512
32021W        W45435   5.515   1.987  15.312  0.2190  0.3325  0.0602
32022W        W45436   6.750  14.905  14.370 -0.3703 -0.0393 -0.0213
32023W        W45437  14.102   6.421   5.510  0.1517  0.2994 -0.0406
32024W        W45438  15.547   2.104   5.039 -0.1804 -0.0699 -0.0042
32025W        W45439  11.955   0.614  11.784  0.2000  0.3609 -0.0192
32026W        W45440   7.115   5.384   0.331  0.3424  0.0048 -0.1351
32027W        W45441   5.391  14.269  11.013  0.1818  0.0365 -0.0351
32028W        W45442   0.788   9.817  15.193  0.0118  0.2922  0.0605
32029W        W45443   0.734   1.446  14.243  0.0604  0.1094 -0.1778
32030W        W45444   7.289  11.661  13.567  0.0727 -0.3056  0.1944
32031W        W45445  16.483  11.679   0.910  0.0459  0.1019 -0.0857
32032W        W45446   3.324   3.983  12.671  0.3674  0.2646  0.0240
32033W        W45447  12.339  16.991  11.831  0.1029 -0.3025  0.2331
32034W        W45448  12.036   1.215   0.717  0.3451 -0.0011  0.2482
32035W        W45449  16.058   4.941  13.821  0.2119 -0.0186  0.0058
32036W        W45450   3.890   4.365  10.932  0.1560 -0.0667 -0.1704
32037W        W45451  14.157   9.172   9.869  0.0068 -0.1178 -0.2737
32038W        W45452  14.093  10.287   1.625 -0.1210 -0.0173 -0.4297
32039W        W45453   1.070   0.295  15.059 -0.0755  0.0414 -0.0728
32040W        W45454  11.279   2.062  15.264  0.0670 -0.1307 -0.0091
32041W        W45455   2.584   9.947  15.519  0.1152 -0.1162 -0.2646
32042W        W45456   2.358  16.385   3.420 -0.3655  0.1040  0.1668
32043W        W45457  15.230   1.589   0.221 -0.1200 -0.2332 -0.0091
32044W        W45458  17.253  14.653  13.840 -0.2762 -0.1098  0.1265
32045W        W45459  17.064  13.053  15.803 -0.1445  0.0985  0.0417
32046W        W45460   8.465   3.384   0.242 -0.3069  0.0272 -0.3898
32047W        W45461  10.545  17.643   1.403  0.0764 -0.0745  0.1924
32048W        W45462   4.109   8.465   1.434 -0.0741 -0.2009 -0.0335
32049W        W45463   1.261   5.212   3.207  0.0352 -0.0062 -0.1103
32050W        W45464   8.365   1.935  14.530  0.0836  0.2862 -0.0720
32051W        W45465   4.734  14.177   4.985  0.0363 -0.1545  0.2437
32052W        W45466  15.826  15.628   1.737  0.4358  0.0273  0.0700
32053W        W45467  15.708   5.313   3.062  0.1432 -0.3719  0.0548
32054W        W45468   9.719   2.831  13.974  0.1807 -0.1703 -0.0923
32055W        W45469   6.164  11.668   6.879 -0.4586 -0.0502 -0.0767
32056W        W45470   5.330   0.348  14.897 -0.0309 -0.0186  0.2768
32057W        W45471   9.040   8.548   6.518  0.0731 -0.1069 -0.2509
32058W        W45472  16.291   2.212  16.039  0.0329  0.1384  0.0938
32059W        W45473  13.842  13.039   1.655  0.3348  0.2155 -0.1671
32060W        W45474   2.257  15.858  15.486 -0.2039  0.1422 -0.0900
32061W        W45475   3.019   8.493   2.523  0.0764 -0.0600  0.1342
32062W        W45476  12.163   9.639  14.683  0.0273 -0.1379 -0.3064
32063W        W45477  12.649  17.562   0.237  0.2026 -0.0758  0.1763
32064W        W45478   4.439  12.172   1.228 -0.0827  0.1594  0.2047
32065W        W45479   5.230  16.256  10.662  0.0216  0.2845 -0.1454
32066W        W45480   6.573  15.469   2.153 -0.1718  0.1693  0.1262
32067W        W45481  18.104   4.857  11.480 -0.2049  0.0269  0.0705
32068W        W45482  10.895  17.654  15.290 -0.3190 -0.2256  0.0372
32069W        W45483  12.617  15.232   4.506  0.1715 -0.0420  0.4209
32070W        W45484   8.068  14.633   2.312 -0.0592  0.1477  0.0700
32071W        W45485  11.389  13.318   2.716 -0.0324 -0.1364  0.1340
32072W        W45486  17.255   9.343  14.409 -0.1382 -0.1109 -0.1715
32073W        W45487   3.553   0.978  14.915 -0.0359  0.1077  0.0161
32074W        W45488  16.985   4.481  13.520 -0.0378 -0.1190  0.0835
32075W        W45489   4.159  10.588   2.441 -0.1595 -0.1618 -0.0377
32076W        W45490   0.074  17.771  11.314 -0.0829 -0.0638  0.0420
32077W        W45491  10.150  12.771  10.784 -0.2750 -0.0878  0.2387
32078W        W45492   8.191  15.517  15.942  0.2144  0.4519 -0.1509
32079W        W45493   3.656   9.928  11.308  0.1036  0.0336 -0.1320
32080W        W45494   5.304   8.819   4.702 -0.0693 -0.0199  0.1741
32081W        W45495   5.933   3.223  13.043  0.2700 -0.1976  0.2422
32082W        W45496  16.531   0.123   2.641  0.0600 -0.0262 -0.0308
32083W        W45497  11.652  15.597  16.009  0.3117  0.0485 -0.0538
32084W        W45498  15.517  16.766  11.068 -0.2903  0.0063  0.2092
32085W        W45499   5.547   4.562   0.336  0.2020  0.1971 -0.1797
32086W        W45500  16.836   7.796  11.469 -0.2222 -0.3265  0.3692
32087W        W45501  11.789  13.921  12.359 -0.1775 -0.0351  0.0068
32088W        W45502   8.827   0.357  11.820 -0.1897  0.0660  0.2090
32089W        W45503  10.541   0.111   3.390 -0.2085  0.0433  0.5767
32090W        W45504   1.157   9.361  12.516 -0.1963 -0.1570 -0.0228
32091W        W45505   2.785  17.487   5.492  0.1290  0.2307 -0.3614
32092W        W45506   1.093  17.912  14.579  0.0628  0.1240 -0.0976
32093W        W45507  15.587   7.839   4.593  0.2183  0.0221 -0.1726
32094W        W45508  14.560   0.827   4.127 -0.2943 -0.3875  0.1209
32095W        W45509   7.396  15.311  16.390 -0.2040  0.0367 -0.4863
32096W        W45510   8.140   4.760  12.440 -0.0373  0.1923 -0.1997
32097W        W45511   7.444   8.737  15.743  0.4117  0.1871 -0.1185
32098W        W45512  15.465   0.828  12.660  0.0724  0.2179 -0.0580
32099W        W45513   7.591  12.389   3.812 -0.0817  0.0354 -0.1741
32100W        W45514   6.256   1.118  11.672  0.2967 -0.1821 -0.0001
32101W        W45515  15.485   6.829  13.134 -0.3809 -0.1573  0.0819
32102W        W45516  14.610   4.304   4.750  0.1273  0.2099 -0.3359
32103W        W45517   6.842   3.424  13.132 -0.0472 -0.1348  0.1474
32104W        W45518  17.646  17.075   1.361  0.0830 -0.0672 -0.0998
32105W        W45519   1.945  10.080   5.791 -0.4410 -0.2281  0.3863
32106W        W45520   7.366   2.112  14.545  0.1219  0.2628 -0.3170
32107W        W45521   9.586   4.630  15.912 -0.2797 -0.0127 -0.0192
32108W        W45522   8.932   7.480   1.893  0.1147  0.1978  0.2073
32109W        W45523  10.508   7.355   2.356 -0.1809  0.0026 -0.0250
32110W        W45524   0.122   1.341   2.142 -0.0178  0.2884  0.2630
32111W        W45525   2.924  11.423  12.176 -0.1880  0.2482  0.0885
32112W        W45526   7.250  13.521  11.071  0.1893  0.1265  0.1562
32113W        W45527  16.929   8.672  16.072  0.2488 -0.3171  0.0349
32114W        W45528  12.647   7.241  13.312 -0.3483 -0.1148 -0.1436
32115W        W45529   0.736   8.519  11.151  0.1947 -0.1967 -0.1350
32116W        W45530   0.728   1.621  12.757 -0.0145 -0.1710  0.0644
32117W        W45531  10.322  16.844  11.117  0.0095 -0.1186 -0.0980
32118W        W45532   9.720  14.314  12.042  0.0731 -0.0501  0.0393
32119W        W45533  16.506   5.129  10.305  0.0254  0.1997 -0.0583
32120W        W45534  11.061   7.323   3.894  0.0021  0.2134 -0.1754
32121W        W45535  13.352  10.574  13.294 -0.0743  0.1786  0.1435
32122W        W45536   2.547   2.182  11.677  0.1962  0.0059  0.0165
32123W        W45537   3.749   4.065   3.482  0.1743  0.0358  0.1166
32124W        W45538  15.918   1.443  12.071  0.1981  0.2588 -0.0325
32125W        W45539   5.393   7.903   3.584  0.1036 -0.0754 -0.1530
32126W        W45540  15.215  13.244   4.914  0.2181 -0.0879 -0.0247
32127W        W45541  17.577   4.614   4.856 -0.0202  0.6033  0.2650
32128W        W45542  15.820   1.946   2.208 -0.0221  0.1346  0.2276
32129W        W45543   3.751   8.524  13.143 -0.2172 -0.0579 -0.0760
32130W        W45544  13.823   0.564  15.763  0.4290  0.0703  0.1229
32131W        W45545  15.071   3.334   0.306 -0.0966 -0.0724 -0.0114
32132W        W45546  17.925  13.096  12.905  0.1657 -0.0493 -0.1343
32133W        W45547   6.328  12.245   0.297 -0.1226  0.1545 -0.1030
32134W        W45548   1.344   2.638   2.362 -0.0245  0.5262  0.0098
32135W        W45549  13.006   9.440  11.945 -0.1649 -0.3496  0.0016
32136W        W45550   8.445  16.826   3.038 -0.0359 -0.0592  0.0739
32137W        W45551   8.679   0.302  13.736  0.3199  0.1102 -0.2202
32138W        W45552  17.113   5.537   4.553 -0.0873 -0.0970  0.0533
32139W        W45553  14.396   3.695  13.486  0.1333  0.1598  0.2022
32140W        W45554  12.207   8.311  12.692  0.1201  0.0681 -0.2243
32141W        W45555   7.522  16.120   5.989  0.3328 -0.0190 -0.2101
32142W        W45556   4.338   9.671  12.735  0.0259  0.3004  0.2318
32143W        W45557   5.272  13.749   3.676  0.0996 -0.2804 -0.0437
32144W        W45558  10.949  11.879  15.521  0.1421 -0.0151  0.2451
32145W        W45559   6.220   6.303  13.297  0.0318  0.1309 -0.0669
32146W        W45560  17.565   3.063   0.151 -0.0266  0.1458  0.3064
32147W        W45561  15.237  11.212  11.895 -0.0674 -0.0528  0.5112
32148W        W45562  10.840   9.389  15.007 -0.0611 -0.1021 -0.1888
32149W        W45563   0.843  17.374   4.787  0.0422  0.1927 -0.0572
32150W        W45564   9.797   2.727  13.477  0.0110 -0.0588 -0.1602
32151W        W45565  14.290  18.043  14.742 -0.2139  0.4092  0.0403
32152W        W45566  12.776  14.971  11.371  0.4129  0.0004  0.0882
32153W        W45567   4.785   2.860  13.709 -0.0769  0.3458  0.0019
32154W        W45568   9.036   2.258   0.840 -0.0244  0.1778 -0.3150
32155W        W45569   5.506   5.466  14.539  0.1360 -0.0162  0.1004
32156W        W45570   2.000   9.613  11.333  0.1158  0.3554 -0.1103
32157W        W45571  10.274   0.867   2.836 -0.2994  0.1589  0.2418
32158W        W45572   5.755  15.538  14.058 -0.3103  0.2095 -0.2372
32159W        W45573   1.454  17.590  11.399  0.0383 -0.1987 -0.2973
32160W        W45574  16.268   7.563   0.691  0.1187 -0.1537  0.1202
32161W        W45575   7.675   4.593   4.998  0.0192  0.0131  0.0067
32162W        W45576  14.185   8.475   1.537 -0.0680  0.0246  0.4161
32163W        W45577   2.542  14.495   1.100  0.0393 -0.1216 -0.3596
32164W        W45578  13.812  11.911   5.654 -0.1598 -0.2902 -0.2459
32165W        W45579  10.045   4.994  11.559 -0.2515 -0.1175  0.4863
32166W        W45580  16.758   4.103  13.745 -0.0441 -0.3166  0.2159
32167W        W45581   6.414  16.872  12.873  0.0933  0.0065 -0.2066
32168W        W45582   4.280   9.104  12.415 -0.0177  0.0133  0.0757
32169W        W45583   9.241  14.518  15.325 -0.0669 -0.1283  0.1401
32170W        W45584   1.065  18.249   1.042 -0.1535 -0.3770 -0.2039
32171W        W45585   7.363  10.613  11.470  0.3008 -0.1997 -0.2663
32172W        W45586  18.057  12.085  12.928  0.0971  0.0509 -0.0169
32173W        W45587  13.603  13.060  14.639 -0.1099  0.0824 -0.0295
32174W        W45588  14.748  11.414  14.958  0.2401 -0.1888 -0.1225
32175W        W45589   0.702   3.958   6.223 -0.1639  0.0325 -0.0368
32176W        W45590   4.685  12.659  10.953  0.1323 -0.1651  0.0017
32177W        W45591   2.148   5.915  15.730  0.1229  0.0692 -0.1885
32178W        W45592  15.844  14.653   0.540 -0.2773  0.0492 -0.2939
32179W        W45593  14.292   3.355   0.944  0.2128  0.0927  0.2280
32180W        W45594   4.785  10.162   3.509 -0.0272  0.1421  0.0250
32181W        W45595   6.685   4.633  10.771  0.0165 -0.3303  0.1207
32182W        W45596  12.499  17.702   4.247  0.3319  0.1475  0.0861
32183W        W45597  13.176  15.920  15.637  0.1907 -0.1718 -0.1215
32184W        W45598  14.156   0.071   3.981 -0.1676  0.0055  0.0089
32185W        W45599   5.794   5.487  15.675  0.2451 -0.0743 -0.0516
32186W        W45600   6.617  10.902   5.783 -0.1750 -0.1863 -0.0499
32187W        W45601   2.011  14.956  15.837  0.2321  0.1135  0.0683
32188W        W45602   3.831  12.920  10.744  0.1105  0.4334 -0.3930
32189W        W45603  16.850  10.322  15.200  0.1335  0.1341 -0.0039
32190W        W45604   9.530  10.032  12.465  0.1001  0.2777  0.1117
32191W        W45605  12.577   5.829   3.895 -0.1383 -0.0774  0.2162
32192W        W45606   6.492   5.903  13.162 -0.1611 -0.0643  0.1065
32193W        W45607  13.462   6.359  14.617 -0.0160 -0.0333 -0.0423
32194W        W45608   1.800   3.758   6.438 -0.2478  0.0469  0.1821
32195W        W45609  16.033  14.903   5.339  0.0497  0.3182 -0.1090
32196W        W45610   1.915   5.261   1.865  0.1752 -0.2651 -0.1861
32197W        W45611  11.749   7.207   1.069  0.0385 -0.3709  0.1624
32198W        W45612  15.537  10.944   4.786 -0.1375 -0.4847 -0.1246
32199W        W45613  12.570  14.945   0.200  0.0515 -0.0955  0.0468
32200W        W45614   3.230  12.666  12.635  0.1013  0.0291  0.1710
32201W        W45615   6.659   9.208  11.491  0.3555 -0.2188  0.0422
32202W        W45616   4.890  13.350   0.378 -0.1265 -0.4069  0.1749
32203W        W45617   4.339   3.448  11.267  0.0967  0.1810 -0.2240
32204W        W45618   2.469   2.139   0.397  0.0029  0.0173 -0.1052
32205W        W45619  12.421   6.131   1.579  0.2186  0.0024  0.1309
32206W        W45620   4.602   0.652  16.363  0.0593  0.0925  0.2541
32207W        W45621  15.765   8.613   5.264  0.0054 -0.2027 -0.2414
32208W        W45622   7.814  10.347   0.877  0.1359 -0.1439 -0.0273
32209W        W45623   3.500   2.126  13.672 -0.0105 -0.1260  0.2278
32210W        W45624  10.376  17.737  12.246  0.1255  0.1267  0.1290
32211W        W45625  15.248   6.606  10.623  0.0835  0.5155  0.2291
32212W        W45626   3.021  13.077  15.861  0.1416 -0.1506  0.2462
32213W        W45627  10.590   3.184  15.057 -0.1261  0.2948 -0.0588
32214W        W45628  14.795   4.899  10.683 -0.0642  0.1607  0.1346
32215W        W45629   4.143  10.769   6.486  0.1764 -0.0809  0.2584
32216W        W45630   1.458   7.628   0.416  0.2462 -0.0966 -0.1353
32217W        W45631  13.728   5.951   4.692 -0.0496  0.0965  0.0913
32218W        W45632  16.548   0.543  16.406  0.1089 -0.2050  0.0613
32219W        W45633  17.665   8.869  12.582 -0.0414 -0.1322  0.1135
32220W        W45634  15.795  16.430   4.763  0.1937  0.2142  0.0029
32221W        W45635  18.071   9.577  15.715  0.0590  0.1487 -0.2214
32222W        W45636   4.994   7.430   0.970 -0.1493  0.1587 -0.0447
32223W        W45637   0.292   3.989  13.790 -0.1536 -0.0857 -0.3383
32224W        W45638   6.029  11.206  12.018 -0.0186 -0.1045 -0.2187
32225W        W45639   3.424  16.952  11.573  0.1708 -0.1131  0.1723
32226W        W45640  18.244   5.726   2.156 -0.0133 -0.4736  0.1534
32227W        W45641  13.040  14.328   4.669 -0.0120 -0.1255 -0.0782
32228W        W45642   1.394  13.877   2.444 -0.3085 -0.2726 -0.2706
32229W        W45643  17.894  16.095  11.024  0.0041  0.0295  0.3196
32230W        W45644   3.741   4.120  12.285 -0.0431 -0.2959 -0.1533
32231W        W45645   6.096   5.841  13.475  0.1464  0.1467  0.3767
32232W        W45646   0.005  10.279   0.710 -0.1318 -0.2555  0.1341
32233W        W45647   4.108   0.671  15.669  0.0583 -0.0382  0.0617
32234W        W45648   6.973   2.242   1.248 -0.0918  0.1748 -0.0874
32235W        W45649   8.821   1.995  12.403  0.0462  0.0798 -0.0704
32236W        W45650   5.434   7.987   5.266  0.2136  0.1563  0.2949
32237W        W45651   9.381   2.445   5.500 -0.0545 -0.2282  0.0288
32238W        W45652  15.827  17.637   1.153 -0.2308 -0.0447 -0.0418
32239W        W45653   5.027   1.533  15.908  0.0468 -0.3947 -0.0883
32240W        W45654   4.599  14.556   3.541 -0.1425 -0.0213  0.0880
32241W        W45655   0.112  16.211  13.618 -0.1973  0.2078 -0.0168
32242W        W45656   6.671  15.361  14.100  0.0083  0.0411  0.1020
32243W        W45657  16.569  16.327   2.599 -0.0435 -0.1290 -0.3495
32244W        W45658  18.233   3.808  12.973  0.1137 -0.0364 -0.3454
32245W        W45659  11.404   2.811   3.009  0.2431  0.1161 -0.0074
32246W        W45660   3.184   8.916   1.429 -0.3072 -0.2500  0.1388
32247W        W45661  13.499   1.328   2.071  0.1329  0.0530  0.2691
32248W        W45662  14.426   9.709  16.465 -0.0270 -0.0989  0.0164
32249W        W45663  17.232   8.629   6.443 -0.1450 -0.1657  0.2001
32250W        W45664  10.644   5.032   3.164  0.0910 -0.0637 -0.1892
32251W        W45665   8.016  10.471   0.008 -0.0121  0.2524 -0.0012
32252W        W45666   4.349   2.705   3.737 -0.0972 -0.1116  0.1683
32253W        W45667  17.608   9.951   2.880  0.1025  0.2746  0.3778
32254W        W45668   4.881  18.125  10.961 -0.2384  0.2117 -0.0172
32255W        W45669  16.784  17.095   3.740 -0.0386 -0.1622 -0.2438
32256W        W45670   1.227  14.617   4.107 -0.0337 -0.2585 -0.2296
32257W        W45671  17.185  11.411   1.308 -0.1362  0.1563 -0.1721
32258W        W45672   4.371  13.890   3.377 -0.4223  0.0112 -0.2896
32259W        W45673   7.014   6.258   5.371 -0.2140 -0.1713  0.1984
32260W        W45674  12.541   6.818   0.909 -0.0707 -0.2182  0.2905
32261W        W45675   4.384   4.642   0.839  0.0200  0.0030  0.0492
32262W        W45676  12.632   1.784  11.102  0.0888  0.1799 -0.2481
32263W        W45677   0.294  18.222  12.584  0.0379 -0.0261 -0.0526
32264W        W45678  14.668   3.105   3.595  0.0321 -0.0742  0.0216
32265W        W45679  16.296   0.338   4.438 -0.0542  0.1481  0.0997
32266W        W45680  17.670   7.904  12.537 -0.0205 -0.3385  0.1113
32267W        W45681  16.704   9.425  11.971 -0.1641  0.1180  0.0424
32268W        W45682  13.145   7.648   4.685 -0.4526  0.0334 -0.3698
32269W        W45683  12.262   0.878   3.139  0.1597  0.1989  0.0160
32270W        W45684   9.179   2.570  10.947  0.1604  0.1476 -0.3928
32271W        W45685  15.541   4.506  13.808 -0.2448 -0.1243  0.1282
32272W        W45686   0.785  13.376   5.862 -0.0937 -0.0117  0.0047
32273W        W45687   8.297  16.798  10.150  0.2100  0.0135  0.1068
32274W        W45688   6.354   0.958  13.441 -0.1284  0.4316  0.1513
32275W        W45689  10.675  15.624  16.192 -0.1200  0.0576  0.3315
32276W        W45690  14.434   6.306  13.666 -0.1091 -0.0409 -0.3446
32277W        W45691  12.357   5.865   0.589  0.0349 -0.2818  0.1946
32278W        W45692  11.367  14.605   3.080  0.1466 -0.0642 -0.1097
32279W        W45693  17.487   4.347   2.769 -0.3169  0.1677  0.1807
32280W        W45694  12.621   9.954   3.763  0.2262  0.0129  0.0463
32281W        W45695   4.240   6.619   2.575  0.0415 -0.3107 -0.3524
32282W        W45696  13.305  13.053  13.432 -0.0308 -0.0557  0.1556
32283W        W45697   1.851   3.318  13.473 -0.0268  0.3361 -0.0018
32284W        W45698  10.856   4.324  14.722 -0.2755 -0.2146  0.1327
32285W        W45699   8.553   4.047   1.459 -0.0689 -0.0229 -0.2253
32286W        W45700   4.409  11.320   3.481 -0.1083 -0.0254 -0.0037
32287W        W45701   9.223  10.920   3.433 -0.1340  0.1148  0.0842
32288W        W45702  13.515   6.190   4.314  0.0878 -0.5215  0.1731
32289W        W45703  10.875  14.521  11.519 -0.0206  0.0199  0.0410
32290W        W45704   7.598   0.839   4.653  0.1600 -0.3035  0.0069
32291W        W45705   7.439   2.324  10.416 -0.1630 -0.3103 -0.0505
32292W        W45706  16.266   4.541  12.293 -0.0878  0.0684 -0.0129
32293W        W45707   3.700   8.382   4.527  0.0091 -0.1036 -0.1155
32294W        W45708   9.940  13.515   1.743  0.0738 -0.0247 -0.1189
32295W        W45709  17.593   0.240   2.568  0.1627 -0.1261 -0.0669
32296W        W45710  17.985   7.957   1.233  0.1832 -0.1737  0.0694
32297W        W45711   9.288  15.168   1.455  0.2980  0.1737 -0.0798
32298W        W45712   1.520   2.580  15.160  0.1081  0.2192  0.2248
32299W        W45713   1.791   4.431  14.932  0.1489 -0.1463 -0.2751
32300W        W45714   2.194   7.336  13.140 -0.1613 -0.0467 -0.0175
32301W        W45715  14.927  14.556  14.812 -0.3565  0.1147  0.1079
32302W        W45716   4.271   3.442  10.765  0.1417 -0.1881  0.0601
32303W        W45717   5.584   8.146   2.603  0.0293  0.1174 -0.0968
32304W        W45718   1.824   7.977   0.170  0.2092  0.2512  0.0395
32305W        W45719   9.867   5.687  13.490 -0.0875 -0.1711 -0.0628
32306W        W45720  18.234   2.050   0.813  0.0351  0.1664 -0.1868
32307W        W45721  15.633  14.255   0.266  0.4204  0.2209  0.0976
32308W        W45722   3.046  17.717   0.899  0.0022 -0.0971 -0.1032
32309W        W45723  14.819   3.691  14.338 -0.1826 -0.1086 -0.1741
32310W        W45724  15.871   2.361  15.771  0.0448 -0.1587  0.1536
32311W        W45725  17.220   1.528  16.380  0.0998  0.4923 -0.0229
32312W        W45726  10.407   3.017  10.241  0.1575  0.1174 -0.0657
32313W        W45727  16.645   8.771   6.256 -0.3099 -0.1120  0.2275
32314W        W45728   7.299   5.119  12.417  0.0609  0.0693 -0.2299
32315W        W45729  16.430   6.466  15.259  0.1015  0.0061  0.0774
32316W        W45730   5.238   5.924   4.839 -0.1440 -0.2629 -0.1095
32317W        W45731  17.113  17.106  14.669  0.0826  0.0369  0.1544
32318W        W45732   0.439   3.098  15.493 -0.1320 -0.3133 -0.1566
32319W        W45733  13.504   0.855  16.195  0.0760 -0.0002 -0.2130
32320W        W45734  11.540  14.890  15.820 -0.1514  0.4159  0.1301
32321W        W45735   0.603  17.118   3.756  0.0265  0.0942  0.2727
32322W        W45736  14.059   0.200   5.677 -0.1101  0.1825  0.0651
32323W        W45737  13.089  13.018   5.246  0.2872 -0.2552  0.0193
32324W        W45738  14.795   2.048   2.294 -0.2150 -0.1515 -0.0017
32325W        W45739   0.079   6.574   3.486 -0.2178  0.1635 -0.1180
32326W        W45740  16.558  17.586   4.393  0.3919  0.0589 -0.0585
32327W        W45741   7.750   0.140   0.205 -0.2782 -0.1301  0.0938
32328W        W45742   1.204  10.146  11.214  0.0536 -0.0826 -0.0659
32329W        W45743   0.691   1.834   0.973  0.0140 -0.0671 -0.0501
32330W        W45744   5.946   3.430  12.160 -0.0932  0.2243  0.1263
32331W        W45745   6.250   8.720   6.605  0.0590  0.1871  0.1350
32332W        W45746   0.389  11.875  12.029  0.1577 -0.4968 -0.1663
32333W        W45747  15.780   9.869   0.369 -0.1793 -0.0062  0.1421
32334W        W45748  10.488   8.996   2.648  0.2941  0.0684  0.1706
32335W        W45749  10.377   8.114  16.173  0.4876  0.0509  0.0639
32336W        W45750  10.498  17.177  11.456  0.2190  0.0358 -0.0546
32337W        W45751  17.880  11.665   5.885  0.1511  0.3055 -0.1757
32338W        W45752  10.032   6.836  16.012 -0.3075 -0.0230  0.0956
32339W        W45753   0.768   2.897  12.261 -0.2918  0.2458  0.2081
32340W        W45754  17.659  11.184  15.105 -0.1982  0.0513 -0.0201
32341W        W45755  10.170  12.433   5.919 -0.1108  0.1741 -0.3877
32342W        W45756   6.618   4.613  11.299 -0.0796 -0.0053  0.1460
32343W        W45757  10.569   8.948   4.934  0.0591 -0.0334  0.3237
32344W        W45758   1.851   3.430   5.804  0.0120 -0.1417 -0.0955
32345W        W45759  16.448  16.070   1.716 -0.0791  0.1498  0.1610
32346W        W45760   4.165   9.884   3.469  0.0483 -0.0323  0.3458
32347W        W45761   2.436  11.695  11.161  0.1738 -0.0831  0.1731
32348W        W45762  16.759   5.396   4.951  0.1992 -0.3333 -0.0042
32349W        W45763  15.711   9.908  16.001 -0.0858  0.0752 -0.0170
32350W        W45764  12.176   5.012  15.472 -0.2413 -0.0530 -0.2784
32351W        W45765  10.997   2.332  16.131 -0.1251 -0.0798 -0.0486
32352W        W45766   2.723   8.146  12.454 -0.0587 -0.1359  0.0191
32353W        W45767  14.284  11.549   0.161  0.1001  0.0627 -0.2402
32354W        W45768   7.451   1.343   5.248  0.2236 -0.2047 -0.1296
32355W        W45769  16.369  10.549  15.477  0.0328  0.1248 -0.0977
32356W        W45770  11.468   8.129  12.311 -0.2397  0.1974 -0.0819
32357W        W45771   4.574   8.852  10.952 -0.0186  0.0932 -0.0345
32358W        W45772  17.577  17.421   4.484 -0.2730 -0.0002 -0.0397
32359W        W45773   5.701   5.266   4.438  0.0078 -0.1823 -0.1680
32360W        W45774   6.243  13.936  12.124 -0.4417  0.1582 -0.0456
32361W        W45775  17.515  16.257   2.803 -0.1931  0.0137  0.2178
32362W        W45776   1.398   7.353  12.358 -0.2056  0.0854  0.0826
32363W        W45777  17.000   8.489   3.760  0.0775 -0.0865 -0.2876
32364W        W45778  15.827   0.695   2.863  0.1819  0.1113 -0.1137
32365W        W45779  17.586  15.997  11.449  0.2546 -0.2171 -0.1757
32366W        W45780  10.026  12.263  11.733  0.2313  0.3126 -0.0098
32367W        W45781   6.539  17.472  13.337 -0.3206 -0.1618  0.3757
32368W        W45782   6.986   9.286  10.093 -0.0621  0.2739 -0.3317
32369W        W45783   6.360   3.536  16.152  0.0774  0.2726 -0.2261
32370W        W45784  13.928   1.159  13.538  0.2112  0.0750  0.4172
32371W        W45785   7.507  15.868  10.993  0.1108 -0.0221 -0.1295
32372W        W45786   4.324  11.681   6.273 -0.3725  0.0793  0.2116
32373W        W45787  15.061   9.171   1.415 -0.0078 -0.0607  0.0212
32374W        W45788  13.029  13.466  13.674  0.0527  0.1059 -0.0026
32375W        W45789   5.146  13.431   2.777 -0.3791  0.0531  0.3552
32376W        W45790   2.078  10.645   5.143  0.1194  0.1521 -0.1264
32377W        W45791   3.884   3.123  11.563  0.1315  0.0436 -0.0753
32378W        W45792  17.000   2.121  13.195 -0.0173  0.1770  0.1710
32379W        W45793   3.472  11.676  13.589  0.0682 -0.0589 -0.1620
32380W        W45794  17.882   2.444  13.342 -0.0329 -0.3481 -0.3144
32381W        W45795  15.326  15.670  16.439 -0.2396  0.1462 -0.1502
32382W        W45796   6.256  15.821  14.821  0.3574  0.2608  0.3003
32383W        W45797  16.592  10.693   0.492 -0.0434 -0.3439  0.0206
32384W        W45798  14.511   0.880  16.268 -0.1647  0.3939 -0.3017
32385W        W45799  13.413   4.356   1.994 -0.3370  0.1102 -0.3158
32386W        W45800   4.429   8.737   1.139 -0.2364 -0.0368 -0.3285
32387W        W45801   4.726   4.336   4.335  0.3818 -0.1933  0.0479
32388W        W45802   5.696   0.798  15.591 -0.3423  0.1083 -0.2398
32389W        W45803   9.618   7.426  13.147 -0.0345 -0.1394 -0.0989
32390W        W45804   8.111   2.870   4.547  0.0656 -0.0476  0.0921
32391W        W45805  11.607   2.702  12.164 -0.1361 -0.1585  0.5002
32392W        W45806   8.035   5.525  11.948 -0.1796 -0.0817  0.1138
32393W        W45807  16.689  14.295  16.452  0.1665  0.1221 -0.0895
32394W        W45808   9.663  16.076  15.552 -0.1292  0.0281  0.1342
32395W        W45809  17.143  13.365   4.550 -0.0036  0.1345 -0.0820
32396W        W45810   9.056  13.026   3.503 -0.1091 -0.1136 -0.3996
32397W        W45811   7.153  14.384  16.416  0.1921 -0.0626 -0.1075
32398W        W45812  11.551   6.480   4.793 -0.3207 -0.0680 -0.2290
32399W        W45813  16.073  16.550   1.793  0.0211 -0.2260  0.1838
32400W        W45814   8.106   2.318  11.581  0.1915 -0.2579  0.0439
32401W        W45815   9.875  17.646  16.322 -0.1717 -0.0592 -0.2048
32402W        W45816   8.559   3.561  10.456  0.0592  0.0588 -0.1998
32403W        W45817  18.073  14.441   0.530 -0.0481 -0.0215  0.2582
32404W        W45818   7.245  15.323  15.367 -0.0157 -0.0005 -0.1335
32405W        W45819   4.930   5.132  10.478  0.3879  0.0169  0.0280
32406W        W45820   0.121  11.330   4.140 -0.1885  0.1263  0.0411
32407W        W45821  13.679  13.298   0.799  0.2804  0.2204  0.2873
32408W        W45822   0.264  12.250  15.303  0.1338 -0.5615 -0.3057
32409W        W45823   7.235   2.805   3.512  0.4083 -0.1831  0.1747
32410W        W45824   5.306   0.814   0.341  0.1822 -0.0161 -0.0152
32411W        W45825   1.021   3.977  15.390 -0.1162  0.2531  0.1958
32412W        W45826  12.797  10.657  15.628  0.0956  0.0641  0.3414
32413W        W45827   5.253   6.062  14.958 -0.0058  0.0038 -0.2904
32414W        W45828   5.660   5.007  10.543 -0.1189 -0.1297 -0.1002
32415W        W45829   4.041   2.476  16.439  0.1313 -0.1638 -0.4052
32416W        W45830  14.268   7.832  16.145 -0.1769  0.1350  0.1542
32417W        W45831   3.978   9.991   5.410 -0.1028 -0.0612  0.3320
32418W        W45832   3.855  14.848  13.651 -0.0914 -0.1175 -0.2951
32419W        W45833   7.317   6.735   6.134 -0.1293 -0.0268  0.0849
32420W        W45834   1.584   1.480   0.094  0.2121  0.0428 -0.0057
32421W        W45835  11.278   5.406  14.061  0.0452  0.3178 -0.0001
32422W        W45836   0.114  12.252   1.343 -0.1021 -0.0653  0.2517
32423W        W45837   1.975  12.778   2.283  0.0459  0.2635  0.0810
32424W        W45838   4.299  14.287   5.809 -0.0523  0.0286  0.1193
32425W        W45839   6.053  11.038  11.061  0.0994 -0.0730  0.0309
32426W        W45840   0.697   3.561  11.591  0.0921 -0.1087  0.0234
32427W        W45841  13.144   9.573   0.939  0.0669 -0.0964  0.0345
32428W        W45842   5.130  17.439  13.031 -0.0048  0.1725 -0.0501
32429W        W45843   5.415   3.668  15.904  0.1366  0.0456 -0.0550
32430W        W45844  15.304  16.527  12.566  0.0697 -0.1953 -0.1933
32431W        W45845  15.574   3.436   4.124  0.0823 -0.1528  0.3359
32432W        W45846  11.249  14.617  13.694  0.3952  0.3112  0.1050
32433W        W45847  11.050   5.380   3.157  0.2144  0.3206 -0.0793
32434W        W45848   9.279   0.438   3.558 -0.1104 -0.0186 -0.1865
32435W        W45849  15.680   4.040  14.645  0.1825 -0.0152 -0.2889
32436W        W45850   5.003  11.661  12.509  0.2370  0.1432  0.2478
32437W        W45851   5.923   2.983   4.633 -0.2599 -0.0149  0.3042
32438W        W45852  12.597   3.732   2.297  0.0030 -0.1029 -0.0893
32439W        W45853  17.272  13.934   1.743 -0.0775  0.0039 -0.2637
32440W        W45854   2.468   5.722   3.039 -0.2257  0.1531 -0.0075
32441W        W45855   2.912   1.858  16.078  0.1429  0.0418  0.3425
32442W        W45856   8.465  12.666   2.654 -0.2116 -0.2888  0.4049
32443W        W45857  15.201   8.478  11.725  0.1199  0.0940  0.5202
32444W        W45858  14.916  13.096   4.120 -0.0579  0.0862  0.1085
32445W        W45859  14.548  11.117  12.281 -0.1193  0.0578  0.0127
32446W        W45860  12.859   8.810  15.072  0.1351  0.2821  0.1924
32447W        W45861   4.599  15.942  11.918 -0.2065 -0.0003  0.0010
32448W        W45862  10.929  13.162   2.641  0.0783 -0.0582  0.0650
32449W        W45863  10.792   5.093  13.402 -0.1071 -0.1665 -0.0686
32450W        W45864  14.287  11.786   0.732  0.3912  0.0085 -0.1368
32451W        W45865  15.402  10.279   1.835  0.0185 -0.3208  0.3694
32452W        W45866  15.896  11.995   1.292 -0.0272 -0.0679 -0.2348
32453W        W45867   0.349   7.998  12.960 -0.1536  0.2191 -0.1782
32454W        W45868  16.505   3.684   5.850 -0.2236 -0.1585 -0.1141
32455W        W45869  15.502  17.512   0.810  0.1830 -0.1096 -0.0271
32456W        W45870  10.852  11.614   4.587  0.1319 -0.0648 -0.0204
32457W        W45871  16.181   7.456  12.214 -0.1474 -0.0537  0.1283
32458W        W45872  15.916  15.759  14.317  0.3056  0.1815 -0.1419
32459W        W45873   5.303  13.544   4.524  0.0017  0.1512  0.0545
32460W        W45874  13.873  11.067   3.702  0.3876  0.2484 -0.0755
32461W        W45875   7.704   5.964  14.593 -0.1214 -0.2481 -0.0736
32462W        W45876   7.043   4.012  16.215  0.0312 -0.3343  0.0148
32463W        W45877  10.422  14.193   2.262 -0.3593 -0.0169 -0.1541
32464W        W45878   5.179   6.080  11.330  0.1189  0.1439  0.0517
32465W        W45879   0.891  12.367   5.998  0.1360  0.0099  0.0585
32466W        W45880  15.404  10.213   2.324  0.0349 -0.3460  0.1189
32467W        W45881  14.471   9.889   2.749  0.1377  0.1660  0.2852
32468W        W45882  15.088   5.902  13.331 -0.3351  0.0094 -0.7299
32469W        W45883  16.854  12.353   0.435  0.2258  0.1149 -0.0454
32470W        W45884  10.933   1.826   5.314  0.0818 -0.1089 -0.1367
32471W        W45885   6.980   9.891   5.039 -0.0671  0.3724  0.1508
32472W        W45886  13.957   2.443  12.325  0.1752  0.0915  0.1237
32473W        W45887   4.196  14.587  10.193 -0.2275 -0.0043 -0.2090
32474W        W45888   0.023  17.608   3.728  0.1087 -0.2126  0.1594
32475W        W45889   4.341   7.565  14.011 -0.0573  0.0977  0.1533
32476W        W45890   7.764   0.362  15.464 -0.2539 -0.1474 -0.1392
32477W        W45891   1.657   6.105  10.324 -0.1145  0.0613  0.1881
32478W        W45892   5.564  12.894   3.815  0.0824  0.1024  0.2864
32479W        W45893   5.522  16.937  14.296 -0.1588  0.0831 -0.2230
32480W        W45894   2.029  11.018  14.717 -0.2139  0.3726  0.2718
32481W        W45895   9.113  11.547  12.216 -0.3187  0.0458  0.0379
32482W        W45896  12.727  16.592  11.727 -0.0699 -0.2857  0.0689
32483W        W45897   3.259   4.889  11.047  0.0353 -0.2253 -0.1176
32484W        W45898  14.104   4.987   2.352 -0.2048 -0.0907  0.3006
32485W        W45899  14.408  15.995   0.175 -0.1132 -0.5528 -0.4947
32486W        W45900   8.520  10.801  14.182  0.0260  0.0481  0.1259
32487W        W45901  17.234   6.762  14.289 -0.2307  0.1558  0.2290
32488W        W45902   3.723   4.382  16.228 -0.0470 -0.5875 -0.2092
32489W        W45903   9.535   4.861  13.098  0.0073  0.2632 -0.1094
32490W        W45904   4.578   3.398   4.576 -0.1932 -0.0978 -0.0897
32491W        W45905   5.712   4.827  11.055  0.1743  0.1525  0.1668
32492W        W45906  11.001   6.891  15.310  0.0525  0.0048  0.0174
32493W        W45907   8.845   2.400   3.463 -0.0971 -0.0952 -0.2697
32494W        W45908   0.817   5.366  12.863  0.1600  0.0218  0.2761
32495W        W45909   7.167   9.250   1.824  0.0707  0.3388 -0.2740
32496W        W45910  18.190  11.782   1.066 -0.0391 -0.2174  0.0741
32497W        W45911   1.134   1.403   5.042  0.3027  0.2327 -0.0346
32498W        W45912   5.252  16.429   0.504 -0.1676  0.1064  0.0378
32499W        W45913   3.349  17.525  11.674 -0.0330 -0.2437  0.0223
32500W        W45914   2.609   7.696   0.720  0.2981 -0.0590  0.0497
32501W        W45915   3.709   6.156  12.067  0.2156  0.2109  0.0920
32502W        W45916   1.759   9.986  14.239 -0.0274 -0.0537  0.0432
32503W        W45917   0.460  10.071   3.900  0.0393  0.0099 -0.0075
32504W        W45918  11.466   1.926  14.632  0.0797  0.2974 -0.3017
32505W        W45919   4.843  13.536   4.336  0.1054  0.0707  0.4235
32506W        W45920  16.751  16.024  16.275  0.0807 -0.1695 -0.0205
32507W        W45921   4.743  17.301   1.451 -0.0072  0.1413  0.4825
32508W        W45922  16.217  11.209   1.137 -0.2968 -0.1468  0.3775
32509W        W45923   0.597   4.362   5.470  0.1805  0.2450 -0.1596
32510W        W45924   5.834   9.146   3.910 -0.0359  0.0691  0.0047
32511W        W45925   6.117   5.216   3.726  0.1497  0.0075  0.1218
32512W        W45926   8.167   6.472   4.594  0.0787  0.2006  0.1472
32513W        W45927   0.489   0.034  14.301  0.2146  0.0559 -0.0789
32514W        W45928   9.355  11.887  11.297  0.1369 -0.0473  0.1132
32515W        W45929   2.962   6.272  13.967  0.2153 -0.0854  0.0762
32516W        W45930  15.678  14.613  14.521  0.0079 -0.0807 -0.0449
32517W        W45931   2.196   9.167  16.190  0.0580  0.2574 -0.0207
32518W        W45932   5.665   7.588   6.076  0.0237  0.0298  0.1161
32519W        W45933  13.356  13.715  11.394 -0.3955 -0.0119  0.1711
32520W        W45934   9.699  10.704  13.631 -0.0694 -0.1241 -0.1928
32521W        W45935  11.408   9.113   4.023  0.0472  0.0883  0.0448
32522W        W45936   6.196   1.673  12.649 -0.3110 -0.0309 -0.2250
32523W        W45937  15.916  11.798   3.629  0.1144  0.0884  0.1420
32524W        W45938  13.135   4.129   3.466 -0.1333 -0.0131  0.1196
32525W        W45939   4.613   1.826  10.361 -0.1087 -0.1488 -0.1220
32526W        W45940  16.623   0.763   0.357 -0.1160 -0.1891  0.1130
32527W        W45941   5.422  17.141   4.055  0.0487  0.4548  0.3326
32528W        W45942  11.105   4.903   3.373  0.2605  0.1093  0.0413
32529W        W45943  10.880   2.653   3.063 -0.0093  0.2410  0.3444
32530W        W45944   0.486  10.342  12.115 -0.0796 -0.1843 -0.0841
32531W        W45945   9.362   6.482  11.474 -0.2017 -0.0834 -0.1563
32532W        W45946  10.440   1.061   4.977  0.2644  0.1716 -0.0573
32533W        W45947  17.963  15.934  13.613  0.3441  0.1118  0.0806
32534W        W45948  16.747   7.894   2.091  0.4126  0.0792  0.0474
32535W        W45949  16.504   7.533   2.368  0.1234 -0.1880  0.1723
32536W        W45950   0.127  17.703  14.799  0.0551 -0.0293  0.1601
32537W        W45951  11.119  16.476   3.300  0.1570 -0.0025 -0.0379
32538W        W45952  10.870  13.776  12.510  0.1766  0.2636 -0.2279
32539W        W45953  13.660  13.805  11.817 -0.1373  0.2443 -0.2442
32540W        W45954   3.600   5.226   4.588  0.2599  0.4674 -0.0621
32541W        W45955   0.560   5.789   6.621 -0.2723 -0.0204 -0.0081
32542W        W45956  10.904   9.193   2.054 -0.0346  0.3882  0.2289
32543W        W45957  14.204   4.205  15.888  0.2259 -0.0919 -0.1365
32544W        W45958   6.615  12.986   5.763  0.1277 -0.0238  0.0735
32545W        W45959  12.735  16.802   3.088 -0.1856  0.1656 -0.3089
32546W        W45960   1.784   0.782   3.858 -0.2517  0.3658  0.2937
32547W        W45961   9.134  15.762  12.714  0.3420  0.2396 -0.1323
32548W        W45962  13.777   2.700   3.363  0.3275 -0.0623  0.2587
32549W        W45963   7.188   5.413   5.998  0.2403  0.0803  0.0755
32550W        W45964  13.980   7.691  14.722  0.2124  0.1237 -0.0925
32551W        W45965   0.282  15.710  12.428 -0.4200 -0.0433  0.1399
32552W        W45966   6.742   9.689   1.804  0.1249  0.1980 -0.1813
32553W        W45967  11.140  15.831  13.736  0.3489 -0.3277  0.1264
32554W        W45968  11.811   2.199   3.537 -0.0113 -0.0858 -0.1500
32555W        W45969  10.533   1.734  16.362 -0.0208  0.1016 -0.0358
32556W        W45970  11.771   7.001  10.649  0.2137  0.0366  0.1140
32557W        W45971  12.395  15.099  11.737 -0.2551 -0.2315  0.0167
32558W        W45972   6.475  16.466  13.218 -0.1337  0.0096 -0.0634
32559W        W45973   0.556   6.858   4.990 -0.0151 -0.0918  0.2810
32560W        W45974  12.962   4.777  16.198  0.0563  0.1181 -0.1193
32561W        W45975   2.466  10.141  12.934 -0.0137  0.0423 -0.2407
32562W        W45976  16.084  16.148  10.735  0.2254 -0.0101 -0.0108
32563W        W45977  12.410  12.720  15.825  0.2672 -0.1528  0.1583
32564W        W45978   7.359   8.139   5.534  0.3966  0.0665  0.0064
32565W        W45979   2.284  14.293   3.553 -0.1610 -0.1395 -0.0504
32566W        W45980   0.520  13.008  10.756  0.0592 -0.2710 -0.2448
32567W        W45981  14.528   7.360   3.778  0.0361 -0.0485  0.2346
32568W        W45982  16.644  16.838   5.189  0.0643 -0.0367 -0.2829
32569W        W45983   8.468  16.124  15.664  0.5021 -0.0102  0.3287
32570W        W45984   3.259   0.623  11.780  0.1622  0.0002 -0.5907
32571W        W45985   2.573   2.673  11.745  0.0861  0.0075 -0.0648
32572W        W45986  12.015  16.961  14.307 -0.2246  0.1824 -0.1928
32573W        W45987  14.471  10.915   5.258 -0.0067 -0.3600  0.1450
32574W        W45988  12.054   4.755  13.639  0.0918  0.0639 -0.0099
32575W        W45989  14.653  13.076  11.207 -0.1323  0.2420  0.0296
32576W        W45990  16.811   8.255  12.333 -0.0888 -0.1185 -0.0591
32577W        W45991   5.402   2.934  12.393 -0.1404  0.3900 -0.0701
32578W        W45992  16.183  12.551   3.738 -0.2683 -0.1059  0.2092
32579W        W45993   9.524   2.979  11.183  0.1367 -0.2491 -0.2827
32580W        W45994  17.163   2.348   0.478 -0.0051  0.3300  0.0391
32581W        W45995   9.204   5.530   0.797 -0.0348  0.2061 -0.0262
32582W        W45996  14.196  12.625  13.989 -0.0679  0.0260 -0.2657
32583W        W45997  12.625   3.926   1.294  0.2416 -0.0676  0.4116
32584W        W45998   6.946  15.314   1.347 -0.1235  0.0949 -0.0308
32585W        W45999  15.981   8.213  12.938 -0.0221  0.1997 -0.0213
32586W        W46000   0.878   4.055   3.775  0.2757 -0.1785 -0.2851
32587W        W46001  14.885   8.918  14.502 -0.1942 -0.0053  0.0274
32588W        W46002   3.544   2.093   1.235  0.0734  0.0238 -0.1763
32589W        W46003  17.270  13.068  12.650 -0.4693  0.1848 -0.0469
32590W        W46004  17.813   7.240  13.864  0.0652 -0.0413  0.0094
32591W        W46005   4.774  17.809   0.872 -0.4110 -0.2486  0.2860
32592W        W46006  12.699  14.419  13.487  0.0443  0.1123  0.0890
32593W        W46007   0.998   8.353  10.706  0.1127  0.2353 -0.2265
32594W        W46008  11.182   9.311  10.499  0.0909  0.0153  0.2080
32595W        W46009  14.587  10.533   1.554 -0.0548 -0.0337 -0.1069
32596W        W46010   1.607  16.612   0.063 -0.2531 -0.2554 -0.0896
32597W        W46011   2.208   7.159  14.736 -0.0625 -0.1258 -0.1461
32598W        W46012   5.813   3.695  10.769 -0.0447  0.2548  0.3058
32599W        W46013  17.231   8.863   0.395  0.2574 -0.1272 -0.0697
32600W        W46014   7.744   3.439   1.974  0.0291 -0.2037  0.0183
32601W        W46015  16.325  14.658  13.776  0.0895  0.0259  0.4733
32602W        W46016  13.015   5.645  12.605 -0.0729  0.0404  0.0763
32603W        W46017   2.495  10.241  14.980  0.3373 -0.0632 -0.1244
32604W        W46018  10.443  16.198   2.501 -0.0695  0.0316  0.1443
32605W        W46019  17.956  18.222   2.703  0.0829 -0.0923 -0.2890
32606W        W46020  10.508  10.011  15.372 -0.0131 -0.0489  0.2888
32607W        W46021  10.130   1.781  15.968 -0.2901  0.0978 -0.0651
32608W        W46022   0.562   2.280  11.419 -0.0563 -0.0397 -0.1531
32609W        W46023  12.702   0.163  11.468  0.2981  0.1959  0.1402
32610W        W46024  12.090  15.749  13.346  0.0364 -0.1482  0.1015
32611W        W46025  17.550   0.834   5.971 -0.0653  0.0251  0.1486
32612W        W46026  15.931  17.009  11.372  0.2098  0.0221 -0.2291
32613W        W46027   1.547   5.857   0.008  0.0007  0.2660  0.1844
32614W        W46028   2.244   5.654  14.208  0.0445 -0.0084 -0.0408
32615W        W46029   9.164  15.276   0.818 -0.3098  0.2776 -0.1163
32616W        W46030   9.200  13.079   4.010  0.0251 -0.1765 -0.1042
32617W        W46031   2.206   1.373  14.564  0.2314 -0.0705 -0.1075
32618W        W46032   9.723  16.041  14.032 -0.2212 -0.1499 -0.0830
32619W        W46033  15.862   7.196   0.427 -0.1039 -0.0633 -0.0804
32620W        W46034   8.336  13.037   2.946 -0.0371 -0.0100  0.1727
32621W        W46035  10.243   6.134   2.634  0.2051 -0.1287 -0.2451
32622W        W46036   0.020  15.474   0.352  0.1599  0.0590 -0.0870
32623W        W46037  12.232   2.887   0.025  0.1553 -0.1334 -0.0762
32624W        W46038   0.379  17.931   3.552  0.0874 -0.2285 -0.0653
32625W        W46039  15.707  14.446  11.815  0.1278 -0.2689  0.0876
32626W        W46040   6.503  15.226   1.069  0.0020 -0.0310  0.1592
32627W        W46041  14.643   4.270  15.569 -0.1036  0.2224  0.1409
32628W        W46042   9.310  13.175  11.560 -0.0175 -0.1708 -0.0217
32629W        W46043   1.785   0.419   1.221 -0.1717 -0.2282 -0.0500
32630W        W46044  17.040  10.362   6.338  0.1714 -0.0604  0.2355
32631W        W46045  17.316  14.537   4.613  0.1247  0.1377 -0.0733
32632W        W46046   2.013   7.546  16.490 -0.0632  0.0554 -0.2689
32633W        W46047   2.525   1.325   6.032  0.2313 -0.2598 -0.0195
32634W        W46048   6.898  16.330  14.064 -0.0844  0.3824  0.0517
32635W        W46049   2.349   4.047   2.299  0.0240 -0.0584 -0.2386
32636W        W46050   0.946  15.489  13.653  0.4385  0.2971  0.2134
32637W        W46051   7.755  17.782   4.835 -0.1379 -0.2822  0.0202
32638W        W46052  15.439  18.002   4.384 -0.4082  0.0362 -0.0379
32639W        W46053  16.793  17.499   0.006  0.0913  0.2518  0.1158
32640W        W46054  12.683   6.658   1.802  0.1014  0.0431  0.2556
32641W        W46055  16.807  16.955  13.114  0.3072  0.0258  0.2933
32642W        W46056   2.537  12.873   3.696  0.0111 -0.0502 -0.3309
32643W        W46057   9.431  18.038   2.775 -0.0335 -0.0534 -0.0908
32644W        W46058   9.079  10.200   4.962  0.2796 -0.2978  0.3383
32645W        W46059   7.169  17.280   4.454  0.0639  0.1905 -0.2170
32646W        W46060   2.623   6.001  10.692  0.3906  0.3258 -0.3523
32647W        W46061  14.399  16.233  16.212 -0.2567  0.1611  0.1268
32648W        W46062  13.883  15.773  16.487  0.1522 -0.0742  0.0045
32649W        W46063  17.279   5.612  10.694  0.1209 -0.2095 -0.1574
32650W        W46064   4.325  11.966  12.995 -0.5240  0.0774  0.0503
32651W        W46065   6.245   8.387  14.102 -0.0698 -0.1040  0.1305
32652W        W46066  12.960  11.164   4.872  0.3523 -0.1654  0.0487
32653W        W46067  17.068   7.079  11.698  0.0424  0.1414 -0.0431
32654W        W46068   9.338  10.732   1.483 -0.2237 -0.1393 -0.0789
32655W        W46069  12.088   3.072  14.007 -0.0179  0.1335  0.1969
32656W        W46070  14.719   5.236   1.735 -0.0395 -0.3227  0.0667
32657W        W46071   0.383  17.392  12.065 -0.0694  0.3195  0.2407
32658W        W46072   8.815   4.393  11.163 -0.1142  0.1137 -0.1630
32659W        W46073  13.058  13.807   4.674 -0.1140  0.0625  0.0507
32660W        W46074  10.063  13.219   3.141  0.1844 -0.0271 -0.0452
32661W        W46075   3.967  11.576  12.639 -0.2734 -0.2011 -0.2784
32662W        W46076  13.013  15.851   4.916  0.0680  0.0419 -0.2884
32663W        W46077   5.208   7.576   2.310 -0.0087  0.3558  0.1155
32664W        W46078   0.531   7.817  11.843 -0.2209 -0.0905  0.1754
32665W        W46079  11.067   2.478   5.343  0.1740  0.2072 -0.0899
32666W        W46080  10.384   8.442   0.934  0.2116 -0.0264  0.0685
32667W        W46081  14.038   2.532  16.429  0.0250  0.0166  0.1028
32668W        W46082  14.103   1.416   4.594  0.2791 -0.0013  0.1936
32669W        W46083   1.251   0.907  10.907 -0.1461 -0.2036  0.1868
32670W        W46084   9.330  15.491  11.182  0.2411  0.0496  0.1568
32671W        W46085  16.036  10.497   3.683  0.0545  0.0366  0.0676
32672W        W46086  10.003  12.786  15.056  0.2675  0.1391 -0.0899
32673W        W46087  10.035   5.457  12.642 -0.4149 -0.1978  0.2609
32674W        W46088  17.024   6.857   2.247 -0.0699  0.2211  0.0023
32675W        W46089   3.888   1.896  10.141 -0.1496  0.2428  0.0413
32676W        W46090   5.418   5.087  13.227  0.0795 -0.2721  0.1028
32677W        W46091   1.684  17.472  15.358  0.2387  0.1003 -0.1864
32678W        W46092  13.585   9.759   0.833  0.1528  0.2050  0.0805
32679W        W46093  14.080  11.534   5.750  0.0684 -0.2618 -0.1576
32680W        W46094   6.603   2.973  13.902  0.1428 -0.2513  0.3988
32681W        W46095   9.620  12.047   4.819  0.1040  0.4138  0.0762
32682W        W46096  12.262   9.227  13.582 -0.2945  0.2619  0.0657
32683W        W46097  11.856   0.264  13.053  0.0782  0.3766  0.1021
32684W        W46098   7.409   3.223   1.658 -0.3345  0.0557  0.0200
32685W        W46099  14.373   1.787   1.752  0.2418  0.0160 -0.3362
32686W        W46100   9.715   0.163  15.662  0.4203  0.2126  0.1150
32687W        W46101  12.088   7.118   3.923 -0.1000 -0.1655 -0.0715
32688W        W46102  16.189   8.321  15.499  0.1846 -0.0549  0.1785
32689W        W46103  16.420  11.082  12.379 -0.0483  0.1951 -0.0145
32690W        W46104  15.736   5.778   1.285  0.1520 -0.0420 -0.1465
32691W        W46105   0.479   6.008   0.770 -0.0352  0.0601 -0.1711
32692W        W46106   6.899   9.947  15.004  0.0473 -0.0605 -0.1029
32693W        W46107  13.767  15.095   3.967 -0.1733  0.1077 -0.0397
32694W        W46108   8.895  17.485  10.208 -0.1808 -0.3757  0.2417
32695W        W46109  14.563  17.803   1.287  0.0766  0.0329 -0.5201
32696W        W46110  10.536   3.822  14.598 -0.2798 -0.4965  0.1441
32697W        W46111  13.691   1.240  12.667 -0.1208 -0.1143 -0.1223
32698W        W46112   2.916   3.659  14.463 -0.1281  0.0204 -0.0607
32699W        W46113  13.070  17.159   3.117  0.2982  0.0850 -0.1197
32700W        W46114  13.675   7.850   5.391 -0.2660  0.1180  0.0123
32701W        W46115  15.773  12.458  14.737 -0.1251 -0.1465 -0.1695
32702W        W46116   7.617  16.744  14.785 -0.2622  0.0236 -0.0357
32703W        W46117  13.819  11.585  16.457 -0.0403  0.2693 -0.2142
32704W        W46118   5.564  14.446  11.787  0.4664  0.0126 -0.0098
32705W        W46119   1.273   3.135   2.212  0.1432  0.0640  0.0544
32706W        W46120   7.642  12.182   4.364 -0.0098  0.1028  0.0661
32707W        W46121   8.858   0.523  10.764 -0.1062  0.1890  0.0336
32708W        W46122   5.837  13.515   2.980 -0.2333  0.0788  0.0338
32709W        W46123  12.379   6.266   0.927 -0.1703  0.2602 -0.1048
32710W        W46124   7.543  10.938   3.572  0.3221  0.1560  0.1732
32711W        W46125   5.745  15.450  10.913  0.3684 -0.2679  0.2200
32712W        W46126   2.428  13.934   6.087  0.1252 -0.1684 -0.1309
32713W        W46127   9.622  12.536   2.018 -0.0598 -0.2181  0.0054
32714W        W46128  10.696  13.156   1.417  0.0132 -0.2556  0.0684
32715W        W46129   1.560   8.908  11.707 -0.1039  0.2902  0.2111
32716W        W46130   6.363   0.482  14.943 -0.1088 -0.1062 -0.2879
32717W        W46131   4.525  14.100  13.830  0.1425  0.1942 -0.1743
32718W        W46132   2.165  15.131  14.575 -0.0716  0.0098 -0.2298
32719W        W46133  13.646   6.681   2.084 -0.0803  0.2145 -0.0520
32720W        W46134   1.796  10.553  13.311 -0.1094  0.0242  0.2320
32721W        W46135   8.110   5.540  10.302  0.0175 -0.1097 -0.2822
32722W        W46136   9.460   6.373   2.314  0.1597  0.1492 -0.0467
32723W        W46137  13.947  11.963   0.264  0.0626 -0.0446 -0.0678
32724W        W46138   1.968   5.931   4.487  0.1829 -0.0118  0.0062
32725W        W46139   3.589  13.803   1.561  0.1112 -0.2228 -0.5087
32726W        W46140  11.205  11.246   3.565 -0.0661  0.2625  0.0132
32727W        W46141   0.679   9.842   1.791 -0.2519 -0.1320  0.0238
32728W        W46142  16.568  10.017   2.183 -0.2449  0.2668 -0.1027
32729W        W46143  14.218   7.020   2.394 -0.3502  0.1451  0.0667
32730W        W46144   2.386   3.863   1.385  0.1907  0.1227 -0.1492
32731W        W46145   0.136   5.722  15.849  0.2244  0.0069 -0.1218
32732W        W46146  15.158   3.408  16.238 -0.1057 -0.2649  0.0519
32733W        W46147   4.391   2.053  13.823  0.2336 -0.0766 -0.1150
32734W        W46148  17.090   4.313   4.249  0.1459 -0.2698 -0.3399
32735W        W46149  10.335   7.141   1.452  0.0149  0.0286  0.1899
32736W        W46150   0.121   2.488   3.774 -0.1294  0.0405  0.0498
32737W        W46151   3.250  13.867   0.403 -0.1073  0.3004  0.0857
32738W        W46152   7.724  12.180   1.880  0.0638 -0.2131 -0.2739
32739W        W46153  16.177   0.302  12.229  0.0654  0.2258 -0.1547
32740W        W46154  10.356  15.366   4.757 -0.2588  0.0386  0.0670
32741W        W46155  14.442  12.885   1.179  0.3108 -0.2277  0.0135
32742W        W46156   6.893   0.755  10.998  0.1230 -0.0697  0.0580
32743W        W46157   5.903   3.504  15.918  0.0992  0.0057 -0.1849
32744W        W46158   6.816  17.852  10.883  0.3973 -0.2127 -0.0280
32745W        W46159   6.621   6.854   4.052  0.1362 -0.3763  0.2783
32746W        W46160   9.939   2.572  15.551  0.2929  0.0507  0.4185
32747W        W46161   8.699   9.676  15.799  0.3463 -0.1643 -0.2542
32748W        W46162  15.146   4.145  12.538 -0.1169  0.0592  0.0140
32749W        W46163  12.056   9.496  12.011  0.1269 -0.1483  0.0238
32750W        W46164  14.340  16.866   4.094 -0.1547  0.1357 -0.0381
32751W        W46165   5.383   8.798   3.731 -0.0343 -0.0806  0.0512
32752W        W46166   6.224  16.701  15.798 -0.0541 -0.2212  0.4235
32753W        W46167   2.433   9.209   5.631 -0.1295  0.0667 -0.5552
32754W        W46168  11.576  10.334   5.172  0.1776  0.0264  0.0510
32755W        W46169   7.208  12.578   5.588  0.0312  0.2437 -0.2427
32756W        W46170   9.885  15.077   4.634  0.0639 -0.4652  0.0883
32757W        W46171   8.828   3.280   2.549  0.2915  0.1121 -0.1045
32758W        W46172   2.414  13.657  15.859  0.2381  0.0089  0.2245
32759W        W46173   8.669   4.921   1.966 -0.3194 -0.1665  0.1817
32760W        W46174   1.766   5.900   6.356 -0.0143 -0.0276 -0.3120
32761W        W46175  11.993  12.983  12.565 -0.0789  0.0012 -0.1961
32762W        W46176   9.011  13.202  12.877 -0.1977  0.1496 -0.1330
32763W        W46177   8.880   1.312   3.614 -0.0742  0.2655  0.1521
32764W        W46178  18.110   3.221   3.738  0.1249 -0.1109  0.1101
32765W        W46179   3.021   2.335   3.725 -0.3186 -0.3053 -0.0898
32766W        W46180   4.078  10.545   4.634  0.1474 -0.0719 -0.0401
32767W        W46181  16.730  16.212  15.681  0.0547 -0.1268 -0.1124
32768W        W46182   3.883   5.615   4.585  0.1453 -0.1666 -0.0851
32769W        W46183   7.434   7.326   2.651  0.3862 -0.1097  0.1318
32770W        W46184  12.826   3.173   3.070  0.1028 -0.1299 -0.0039
32771W        W46185  15.296  14.633  12.626  0.1973  0.3392 -0.2335
32772W        W46186   8.355  12.370  10.900  0.0003  0.2989  0.1208
32773W        W46187  17.427   7.776   3.337  0.1404  0.3217 -0.2830
32774W        W46188   6.723   2.432   4.238  0.1124 -0.3047 -0.0080
32775W        W46189   8.668   6.598  12.535  0.0305  0.1909 -0.0232
32776W        W46190  10.531   6.378  15.719  0.0796 -0.0400  0.1874
32777W        W46191  14.419   8.671   4.037 -0.2216  0.1980  0.4395
32778W        W46192  10.254  10.617   2.136  0.2853 -0.0260  0.2015
32779W        W46193  10.889   0.221   4.628  0.1224  0.1923 -0.0854
32780W        W46194   2.846   8.007   0.337 -0.0921 -0.2054  0.2124
32781W        W46195   0.527   5.291  13.792  0.1756 -0.1075 -0.2473
32782W        W46196  13.929   3.662  11.052  0.0730  0.0968  0.0834
32783W        W46197  16.604  16.393  14.140 -0.0748 -0.1357 -0.4288
32784W        W46198  11.859   1.110  14.719  0.1155  0.1323 -0.0546
32785W        W46199   9.633  11.471  11.944  0.1273  0.0125 -0.0083
32786W        W46200  12.058   9.846   0.992  0.0729  0.1305 -0.2065
32787W        W46201   3.642  17.589  15.125  0.0167  0.3542  0.0432
32788W        W46202   2.237  14.344  14.074  0.3765 -0.1677 -0.0706
32789W        W46203  12.111   9.185  14.105  0.0603 -0.3995 -0.1244
32790W        W46204   6.309   8.889  10.276 -0.1260 -0.0204  0.0968
32791W        W46205   7.139   1.155  15.722 -0.0519 -0.2187  0.1978
32792W        W46206   7.395  17.352   2.547 -0.1615 -0.0609  0.1282
32793W        W46207   2.576   4.488  10.557  0.0296  0.1019 -0.1019
32794W        W46208  13.708  14.753   0.304 -0.0026  0.1016 -0.1992
32795W        W46209   9.659   3.805   1.944 -0.3318 -0.2267  0.0720
32796W        W46210  13.843   2.494  15.565  0.2197 -0.0174  0.0500
32797W        W46211  16.799   1.481  12.983  0.2301  0.2608 -0.4677
32798W        W46212   6.845  16.782  12.154  0.0794 -0.1815  0.1842
32799W        W46213  10.159  17.690  14.722 -0.3524  0.1634 -0.0766
32800W        W46214  18.229   1.744   0.157 -0.0325  0.0579 -0.1147
32801W        W46215  14.270   4.128  13.768 -0.0069  0.2712 -0.2467
32802W        W46216   8.081  13.682  13.570  0.1920 -0.0497  0.5040
32803W        W46217  15.281   3.348  11.144 -0.2649 -0.0530  0.0416
32804W        W46218  17.354   0.640  12.315  0.2103 -0.0849  0.0995
32805W        W46219   2.344   0.427  11.588  0.1656 -0.2482  0.3276
32806W        W46220  14.804  13.500  11.817 -0.0227  0.0141  0.1368
32807W        W46221  12.605  17.943  11.495 -0.0614 -0.3354 -0.1480
32808W        W46222  12.601  12.670  15.341 -0.1424  0.0927 -0.0822
32809W        W46223  10.935  15.474  10.101 -0.0048  0.1067  0.0386
32810W        W46224   9.879   9.584  14.763  0.1636 -0.3035 -0.3129
32811W        W46225   4.033  14.593   4.176 -0.1757  0.2702  0.0681
32812W        W46226   3.822  16.772   5.997 -0.1748  0.0095 -0.0714
32813W        W46227  12.678  16.233  13.875  0.0930 -0.0544 -0.1505
32814W        W46228   4.490  17.365   0.890  0.2170  0.1874  0.1797
32815W        W46229   8.651  15.348  12.751 -0.0375  0.0088 -0.2770
32816W        W46230   0.725   1.066   4.830 -0.2655 -0.0184 -0.0444
32817W        W46231   7.170  18.170  10.685 -0.1252 -0.1169 -0.2272
32818W        W46232  14.217  14.740   4.612  0.1505  0.4002  0.1839
32819W        W46233  17.105  12.939   5.231 -0.0259  0.0212 -0.1138
32820W        W46234   7.673  10.389  14.200 -0.0976  0.1941 -0.0303
32821W        W46235   6.069   0.716   2.150 -0.4217  0.0392 -0.2213
32822W        W46236  10.509   8.446   0.011  0.1806  0.1820 -0.1579
32823W        W46237   0.284  18.067   6.206 -0.1373  0.1322  0.0237
32824W        W46238  11.819  11.232  16.462  0.0046  0.1898 -0.2241
32825W        W46239   6.627  12.362  14.860  0.1971  0.0837  0.0663
32826W        W46240   7.007  12.459  13.089 -0.2467  0.0859  0.2619
32827W        W46241   0.012   3.320  13.250 -0.2243  0.1872 -0.0857
32828W        W46242  12.463   6.981   2.220  0.0645  0.1335 -0.1134
32829W        W46243   6.187  16.199  15.718 -0.1075 -0.0272  0.2246
32830W        W46244   0.514  14.717   0.408 -0.0185  0.1032 -0.1563
32831W        W46245   3.353   0.242  16.281 -0.0062 -0.4660  0.0700
32832W        W46246  16.084  11.263   5.276  0.2891  0.1129 -0.1077
32833W        W46247  14.753   9.093   3.942  0.0464  0.1550 -0.1609
32834W        W46248   4.413  11.340  15.473  0.1092  0.1370  0.0436
32835W        W46249  14.415   2.064  13.996 -0.1130  0.1979  0.1302
32836W        W46250   3.051  13.895   1.724  0.0667 -0.2706 -0.1830
32837W        W46251   4.250  16.590   2.703  0.0556 -0.0893 -0.2095
32838W        W46252   3.110   7.497   3.372 -0.1924  0.0095  0.0167
32839W        W46253   2.168  10.978   0.328  0.2074  0.0544 -0.1142
32840W        W46254   4.319  11.716   4.673  0.1593 -0.0433  0.2599
32841W        W46255  16.483  11.271  11.048  0.1919  0.1766  0.1346
32842W        W46256   6.306   2.166  12.658  0.1276  0.3398  0.1537
32843W        W46257   6.978   4.396  12.129  0.0177 -0.1276 -0.0116
32844W        W46258   8.494  15.381   0.436 -0.0727 -0.1320  0.2136
32845W        W46259   8.058   4.176   3.175 -0.0158 -0.0571  0.2926
32846W        W46260   8.262   9.341   3.435 -0.3162  0.0665 -0.3033
32847W        W46261  15.195  14.323  10.634 -0.1188 -0.1883  0.0052
32848W        W46262   0.612   8.533   3.679  0.2839  0.0481 -0.0043
32849W        W46263  14.116  15.699   3.237  0.0820 -0.1554 -0.1903
32850W        W46264  16.292  12.774   0.597 -0.0963 -0.3063  0.2813
32851W        W46265   9.343   2.461   4.910 -0.0714  0.0139 -0.0665
32852W        W46266  17.024  12.656   1.783 -0.0855  0.1049  0.3176
32853W        W46267  14.799   8.943   0.978 -0.1471 -0.0992  0.0316
32854W        W46268   1.987   9.654   4.917 -0.2652 -0.2206  0.1437
32855W        W46269   9.546  16.916   5.451  0.2523 -0.1308  0.2538
32856W        W46270  15.865  12.639  10.927 -0.0744  0.1581 -0.3262
32857W        W46271   0.030  10.493  13.163  0.3017  0.0912  0.2198
32858W        W46272  11.236   1.561  15.458  0.2374  0.0195 -0.3446
32859W        W46273   3.587   8.562  14.076  0.1803  0.0259  0.0950
32860W        W46274  15.970   2.190   5.975 -0.0021 -0.2165  0.3660
32861W        W46275   2.973   8.878  13.272 -0.0549 -0.2850  0.2993
32862W        W46276  16.221  17.594  14.687  0.2708 -0.0103  0.0157
32863W        W46277  11.365  11.833  11.300  0.0682 -0.2185 -0.1896
32864W        W46278   7.719   5.120   4.245 -0.2568  0.0612 -0.0242
32865W        W46279  11.286   9.355   2.809  0.1821 -0.0122 -0.0705
32866W        W46280   9.016  10.922   1.152 -0.0350 -0.0178 -0.3160
32867W        W46281   0.374  14.234   1.756 -0.1809 -0.1404 -0.2648
32868W        W46282   8.927   2.841  14.397 -0.2156 -0.2233 -0.4140
32869W        W46283   0.653  14.985   3.959 -0.0656 -0.0244 -0.1751
32870W        W46284  15.692  11.711   4.079 -0.2790  0.0758 -0.0817
32871W        W46285  17.512  12.872   3.994  0.1918 -0.2889 -0.4258
32872W        W46286  17.942   8.342   2.182 -0.0545 -0.2495  0.3299
32873W        W46287  13.757  10.116  10.938  0.1756  0.0571  0.2811
32874W        W46288   8.110  12.199   0.501 -0.2498 -0.3443 -0.0336
32875W        W46289  13.985  16.901  15.743  0.0818 -0.0725  0.1074
32876W        W46290   1.103   6.391  12.820 -0.2065 -0.0941  0.0570
32877W        W46291   6.531   8.383  11.774  0.0420  0.1388 -0.1492
32878W        W46292  15.362   5.082   9.918  0.2924 -0.4680 -0.1196
32879W        W46293   7.881   9.314   3.063 -0.0402 -0.1363 -0.2486
32880W        W46294   4.015  10.448   2.907 -0.1096  0.0573 -0.0796
32881W        W46295  13.870   0.120   4.472  0.1452 -0.1423  0.0827
32882W        W46296  10.907   5.523   6.145 -0.0898  0.0307 -0.2750
32883W        W46297   5.810   7.601   1.760 -0.1970 -0.1552 -0.3834
32884W        W46298   8.020   0.289  16.302 -0.0989  0.0187 -0.0889
32885W        W46299  13.054  12.113  12.397 -0.2041 -0.0599 -0.0547
32886W        W46300  10.533   0.314  16.008 -0.1870  0.1690 -0.1174
32887W        W46301  12.668   6.312   4.043 -0.1644 -0.0927 -0.1220
32888W        W46302  12.089  10.257  15.516 -0.0840 -0.0806  0.0459
32889W        W46303  15.392  14.706  15.037  0.0936  0.3681 -0.1998
32890W        W46304  14.959   0.687  15.750  0.2351 -0.2209  0.0534
32891W        W46305   1.057  14.022  15.743  0.0752 -0.1429 -0.1209
32892W        W46306   5.551   5.968  12.688  0.1546 -0.1583 -0.1743
32893W        W46307   4.519   8.727  16.222 -0.0095 -0.3473  0.1809
32894W        W46308   2.097  18.163  11.695 -0.1428 -0.0063 -0.0856
32895W        W46309   3.755   9.662   5.034 -0.1415 -0.1788  0.2028
32896W        W46310   9.994  13.407  12.503  0.0337 -0.0291  0.1962
32897W        W46311   9.613  11.404  16.232 -0.0178 -0.3408  0.1320
32898W        W46312  11.572   1.266   9.804 -0.1341  0.0126  0.2313
32899W        W46313   2.180  16.340  15.532 -0.0991 -0.2206 -0.3001
32900W        W46314   3.146   2.376   1.171  0.0079 -0.0224  0.0198
32901W        W46315  12.171  10.346   0.936  0.0179  0.1431 -0.2534
32902W        W46316   3.327  17.931  15.294  0.0631 -0.0833  0.0226
32903W        W46317   9.795   0.434  13.237  0.0570 -0.5219 -0.3511
32904W        W46318   4.447  16.404  11.762  0.1196  0.1914 -0.0202
32905W        W46319   0.562  10.864   1.957 -0.3390  0.1000  0.0129
32906W        W46320   4.058   7.795   6.069 -0.0708  0.1260  0.0302
32907W        W46321  17.406   7.362   4.268 -0.0790  0.2881  0.3298
32908W        W46322   5.582  16.669   3.260  0.0626 -0.1031 -0.3674
32909W        W46323   9.620   6.799   4.342  0.2294  0.1106 -0.1980
32910W        W46324  10.430   9.264  14.716  0.4325  0.1869  0.0765
32911W        W46325  16.008  11.871  12.824  0.3203  0.0197 -0.1048
32912W        W46326   5.016   4.851   2.552 -0.0157 -0.1063  0.2903
32913W        W46327   9.446  15.213   5.857  0.0405 -0.0504 -0.0773
32914W        W46328  17.290   8.366   4.317  0.2894 -0.0297  0.2162
32915W        W46329  12.486  15.952   6.313  0.1346 -0.0003 -0.0829
32916W        W46330  11.265   4.413  10.880 -0.0370  0.0159 -0.0085
32917W        W46331  13.850  17.282  13.380  0.1757  0.0012  0.4177
32918W        W46332  12.549  17.289   3.885 -0.0836 -0.1117 -0.3063
32919W        W46333   1.175   6.958  14.496  0.0810  0.0365 -0.2923
32920W        W46334  11.498  15.574   5.029 -0.0110  0.2012 -0.2545
32921W        W46335   2.777  13.505   6.600 -0.0080 -0.0122 -0.0168
32922W        W46336   0.498   3.319  13.533 -0.0122  0.1688 -0.0287
32923W        W46337  10.182   1.705  13.110  0.1317  0.0363 -0.0458
32924W        W46338   1.134  15.550   0.663 -0.1930 -0.1002  0.2224
32925W        W46339  12.799   9.348  12.389 -0.1459  0.0003 -0.2654
32926W        W46340   3.668   4.209  14.341  0.0247 -0.0110 -0.1302
32927W        W46341   0.185  10.909   1.439  0.0849  0.0679  0.0728
32928W        W46342  16.919   4.460   0.983  0.0958  0.1282  0.3394
32929W        W46343  11.715   2.993  16.245 -0.0381 -0.0085 -0.2154
32930W        W46344  14.266   9.437  13.051 -0.4446 -0.0345 -0.1323
32931W        W46345  16.640  10.521   5.623  0.0627  0.2483  0.4390
32932W        W46346  12.371   9.225   4.903  0.1470 -0.1592 -0.1227
32933W        W46347  17.993  16.374  13.874 -0.0706  0.4350 -0.0139
32934W        W46348  10.650   6.472   0.720  0.1735 -0.0752 -0.1135
32935W        W46349  14.540  12.334  14.377  0.0785 -0.3137  0.0343
32936W        W46350  12.149   2.929  16.057  0.0273 -0.1103 -0.2725
32937W        W46351  16.367  11.412   4.888  0.2805  0.0825  0.0439
32938W        W46352   6.211  15.389  13.898 -0.1831 -0.1442 -0.1977
32939W        W46353   2.639  11.446   5.439  0.0001  0.3682  0.4556
32940W        W46354  13.040  12.502   5.090 -0.0933 -0.0749  0.1418
32941W        W46355  17.607   4.441  15.535  0.1322 -0.1225  0.1627
32942W        W46356   4.017   5.731   4.020  0.0806 -0.0477 -0.2130
32943W        W46357   9.030  10.937  15.561  0.1226  0.0112  0.0316
32944W        W46358  13.695   8.844  15.631  0.1486 -0.0810  0.0543
32945W        W46359   1.363  13.733  15.225 -0.3446  0.2282 -0.1187
32946W        W46360  16.001  17.131  10.850  0.1394  0.0338 -0.1309
32947W        W46361   1.885  13.043  10.754 -0.2529 -0.0639 -0.2365
32948W        W46362  16.506  11.780   4.576 -0.0498  0.2440 -0.1939
32949W        W46363  13.120  13.005  14.957 -0.1144 -0.0213 -0.1035
32950W        W46364  13.570  17.579   5.505 -0.1213  0.1343 -0.1481
32951W        W46365  11.457  11.101   0.772 -0.0961 -0.0846  0.0020
32952W        W46366   6.903   0.827   2.951 -0.1304  0.1364  0.0183
32953W        W46367   5.204  14.728   1.698  0.0560  0.1621 -0.2017
32954W        W46368  17.645   1.722  12.539 -0.0091 -0.0611  0.2258
32955W        W46369   5.189   0.673   3.895  0.0387 -0.3331 -0.1341
32956W        W46370  17.581   4.395  11.391 -0.3738  0.0170  0.0339
32957W        W46371   3.294  15.069   4.285  0.0321  0.0369 -0.1802
32958W        W46372  10.075  13.465  15.659 -0.1973 -0.1042 -0.1697
32959W        W46373  14.288   6.891  12.707 -0.1758 -0.0054 -0.1827
32960W        W46374   3.843   6.066   4.327 -0.1873  0.1656 -0.0476
32961W        W46375   8.975  16.603  10.443 -0.3833 -0.0143  0.2624
32962W        W46376   8.048  16.752   0.861 -0.2713 -0.2573 -0.1312
32963W        W46377   4.331   7.143   5.745 -0.0794 -0.3124  0.1369
32964W        W46378   0.671   5.269  11.501 -0.2133  0.2231 -0.0301
32965W        W46379   0.159  12.238   5.403 -0.1193 -0.0585  0.3657
32966W        W46380  16.550   4.800   2.845  0.0605  0.1270  0.0607
32967W        W46381   3.500   3.356   0.228 -0.1280 -0.4717 -0.0161
32968W        W46382  10.777   4.126   5.719 -0.1689 -0.3872  0.1881
32969W        W46383   7.943   0.912   1.311  0.3020 -0.1103 -0.1310
32970W        W46384  15.390   7.517  11.453 -0.0089 -0.1941  0.1184
32971W        W46385   6.929   6.758   2.341 -0.3268 -0.1473 -0.3106
32972W        W46386   0.449   3.109   5.047 -0.1091  0.0835  0.2345
32973W        W46387   3.763  10.144   3.249 -0.3268 -0.0672 -0.1476
32974W        W46388   8.032  11.271   1.954  0.1114  0.0616  0.0377
32975W        W46389   4.942  16.655   5.192 -0.2000 -0.0783  0.2926
32976W        W46390   1.887  17.879   5.500  0.0614  0.0327  0.0817
32977W        W46391   0.457   6.319   1.635 -0.1417  0.0601 -0.1401
32978W        W46392   2.535   5.091   6.065  0.2725 -0.0873 -0.3631
32979W        W46393  13.025  13.777  14.469  0.3198  0.1277 -0.1972
32980W        W46394   5.619  16.708  16.318 -0.0739 -0.1500 -0.1781
32981W        W46395  12.125   9.778  15.297 -0.1245  0.0248  0.1706
32982W        W46396  11.889   5.350   1.256  0.1901  0.0683 -0.1077
32983W        W46397  16.493  17.252  12.741 -0.2054 -0.1118  0.0721
32984W        W46398  16.851  14.036  14.838 -0.0229  0.1113 -0.2284
32985W        W46399   7.502  12.743  14.313 -0.2195 -0.0168 -0.2723
32986W        W46400  12.160   1.698   1.893  0.0037  0.0998  0.1953
32987W        W46401  15.353   1.798  11.565  0.3273  0.2994  0.0419
32988W        W46402   0.767   0.572   3.011 -0.0947 -0.0355  0.3270
32989W        W46403   2.053  16.809  10.136  0.2532  0.1301  0.0998
32990W        W46404  17.781   8.977   1.999  0.1633 -0.0123 -0.1361
32991W        W46405  12.221  17.180   1.396 -0.0668 -0.3580 -0.1772
32992W        W46406   6.003   2.118   3.674 -0.0321  0.1521 -0.0707
32993W        W46407   0.310  13.437   4.799  0.0712 -0.3675 -0.0706
32994W        W46408  15.356   2.004  11.099  0.0874 -0.0685  0.2990
32995W        W46409  10.162   5.847  11.026  0.2325 -0.2745 -0.0827
32996W        W46410  11.652   6.045   5.620 -0.0024  0.2361 -0.2397
32997W        W46411  16.274   2.777  12.423 -0.0188 -0.1820 -0.0056
32998W        W46412   1.597   5.254  16.459 -0.1590 -0.1251 -0.2391
32999W        W46413  17.580   8.045   2.042 -0.1021  0.2447 -0.4378
33000W        W46414  17.032   3.188   1.418  0.1733 -0.1751 -0.1270
33001W        W46415   6.707   2.718   1.177 -0.0476 -0.0494 -0.0308
33002W        W46416  12.334  17.217   2.829 -0.0275 -0.4963 -0.0978
33003W        W46417   0.292  16.696   6.177 -0.3285  0.0878 -0.1366
33004W        W46418  16.326   6.530  15.743 -0.0754 -0.1938 -0.3017
33005W        W46419   6.084   4.017   4.295  0.1246  0.1201  0.3294
33006W        W46420  11.487  16.517   4.811  0.0411 -0.1651 -0.0656
33007W        W46421   0.662   4.478  16.383  0.1581 -0.6054 -0.1717
33008W        W46422   9.454   4.884  13.703 -0.1232  0.0329 -0.0389
33009W        W46423  16.795   6.548   2.821  0.4163 -0.0470 -0.2082
33010W        W46424  12.663  14.958  14.865  0.2700 -0.0007  0.1939
33011W        W46425   0.598  14.258  14.567 -0.0464 -0.2980 -0.0127
33012W        W46426  15.594  16.768  14.957  0.0597 -0.1813 -0.0654
33013W        W46427   9.038  16.683   4.613 -0.0346 -0.0276  0.2359
33014W        W46428  11.487  14.743  12.789 -0.2609 -0.1107 -0.0998
33015W        W46429   6.854   0.703  12.041  0.1081 -0.1509  0.1878
33016W        W46430   9.961  14.679  10.215  0.0790 -0.0326  0.1957
33017W        W46431   1.783  11.530  12.214 -0.1669 -0.1159 -0.2792
33018W        W46432  16.964   9.818   6.214  0.0015 -0.0359 -0.1379
33019W        W46433   4.223   1.964  10.586  0.1124 -0.1439 -0.2315
33020W        W46434   8.623  17.101  14.007  0.2326  0.0642  0.0585
33021W        W46435  10.731   2.203  12.753 -0.2390  0.2258  0.0012
33022W        W46436   3.097   5.880  10.805  0.0999 -0.3226 -0.3103
33023W        W46437   8.584  17.680   5.240  0.1010 -0.3006  0.3112
33024W        W46438  14.045  13.915   2.783  0.0379  0.0632  0.1661
33025W        W46439  16.171   8.021   0.910 -0.0487 -0.1231  0.3443
33026W        W46440  14.055  13.855  13.606  0.0990  0.2307  0.2757
33027W        W46441  11.747   4.402  14.409  0.0703 -0.1766 -0.0716
33028W        W46442   4.970  10.391   6.235 -0.0990 -0.2731 -0.1237
33029W        W46443  12.845  15.140  14.391 -0.2019  0.1166  0.0654
33030W        W46444  17.363   3.576  12.660  0.0963 -0.0304 -0.1987
33031W        W46445   8.333   1.740   2.352  0.3484  0.1456  0.1401
33032W        W46446   3.512   9.582   4.035 -0.0145 -0.2463  0.2097
33033W        W46447   0.243   8.003  13.532  0.1697  0.0882 -0.1905
33034W        W46448  13.786   4.638  15.027 -0.1644  0.1588 -0.4289
33035W        W46449  14.896  13.807   1.326 -0.0489 -0.0819  0.1387
33036W        W46450  17.416  14.565   5.128 -0.0257 -0.1231  0.1860
33037W        W46451  13.382   2.986   3.535  0.0264 -0.0422 -0.2233
33038W        W46452   1.562   2.150   2.449  0.0037 -0.0802  0.0961
33039W        W46453   4.347  12.667   1.259  0.3158  0.1766 -0.3718
33040W        W46454  12.741   1.281   5.050  0.0150  0.2802 -0.3558
33041W        W46455   3.847   4.130   1.594 -0.1170 -0.1106  0.1343
33042W        W46456   8.069  12.682  10.013 -0.2775 -0.0673  0.0610
33043W        W46457  17.949   5.823  12.751 -0.4675  0.1672  0.0071
33044W        W46458   5.753  13.401  16.213 -0.2429 -0.0391  0.1930
33045W        W46459   2.710  13.880   2.473  0.0668  0.0155 -0.2644
33046W        W46460  12.453  17.558  16.234 -0.0481  0.1307  0.1538
33047W        W46461  10.306  17.406  15.658 -0.1729 -0.0340 -0.0986
33048W        W46462  16.736  15.914   5.054  0.2197 -0.0059 -0.1795
33049W        W46463  11.522   6.316   2.405  0.2251  0.0174  0.2369
33050W        W46464   3.917  17.842   4.001  0.1964 -0.0148  0.4845
33051W        W46465  18.015  14.066   4.260 -0.1177  0.0604  0.0277
33052W        W46466   1.871  12.113   5.280 -0.3608 -0.0459 -0.0781
33053W        W46467   2.549   3.292   3.482  0.1940 -0.3200  0.0785
33054W        W46468  15.581  15.928  10.594 -0.1045  0.1310  0.0458
33055W        W46469  16.888  13.688   0.173 -0.1592 -0.1391  0.0538
33056W        W46470   1.663  14.083   2.068  0.2942 -0.1481  0.1875
33057W        W46471  11.474  18.051   5.065  0.0825 -0.5001  0.3659
33058W        W46472   7.215  14.881  16.280 -0.2047  0.1351  0.2836
33059W        W46473  13.943  11.458  11.533  0.0934  0.0521  0.2470
33060W        W46474  15.665  14.950  12.460 -0.2239 -0.0684  0.0250
33061W        W46475  10.684  12.910   6.555  0.1413  0.0646 -0.3324
33062W        W46476   6.941  10.888  12.179 -0.1403 -0.3755 -0.2819
33063W        W46477   5.824  16.835   4.254 -0.4254  0.0850 -0.0092
33064W        W46478  17.054  16.907   1.754 -0.0830  0.1623  0.0564
33065W        W46479  13.695  15.017  14.141 -0.0049 -0.2451 -0.2734
33066W        W46480   7.943   9.560  13.638 -0.0401 -0.0881 -0.1127
33067W        W46481   8.975  13.336   4.851  0.1310  0.2684  0.0382
33068W        W46482  10.914   7.930   3.336  0.0890  0.0195  0.1619
33069W        W46483  15.185  16.696  16.348  0.1494 -0.0427  0.1183
33070W        W46484   3.186  17.910  14.497  0.1712  0.2251  0.0302
33071W        W46485   6.606   5.464   0.516  0.1991  0.3418  0.0978
33072W        W46486  13.470  16.290  14.483  0.1773 -0.2565  0.1207
33073W        W46487  16.255   5.599  12.058  0.5627  0.2700 -0.1550
33074W        W46488  17.531  14.364   2.742  0.0105 -0.1068  0.0374
33075W        W46489   0.134   4.473   4.717 -0.0776  0.1639  0.0892
33076W        W46490  14.177   7.029  15.842  0.0085 -0.0571 -0.1882
33077W        W46491  17.020   1.808   0.322 -0.2116 -0.3608 -0.2162
33078W        W46492   4.757   6.785  10.185 -0.1823 -0.1326  0.1299
33079W        W46493   9.302   1.606   3.692  0.1966 -0.0006 -0.0613
33080W        W46494  11.908  14.211   1.695 -0.1708  0.0837 -0.2891
33081W        W46495  13.414   2.046  14.857  0.1652 -0.0066 -0.0186
33082W        W46496   5.296   2.101  12.839  0.0241  0.0687 -0.0043
33083W        W46497   2.109   4.893   2.543  0.2596  0.1814  0.4794
33084W        W46498  10.771  10.909  15.009  0.2514  0.0580 -0.2279
33085W        W46499   2.899  15.325   4.904  0.1824 -0.0162 -0.0737
33086W        W46500   1.152  16.568  15.272  0.1435 -0.0770  0.1282
33087W        W46501  13.218   8.644   2.029 -0.2603 -0.1633 -0.4813
33088W        W46502   9.670  17.213  10.396 -0.1847  0.4091 -0.3168
33089W        W46503   3.035  14.780   2.496 -0.1558 -0.3034  0.2906
33090W        W46504   2.582  13.994   2.911 -0.1969 -0.2340  0.1790
33091W        W46505   3.409   5.835   2.689 -0.1717 -0.0393 -0.1541
33092W        W46506   6.433  14.265   4.314  0.1606  0.3450  0.1446
33093W        W46507  11.599  15.971  13.568 -0.1962  0.3991 -0.2075
33094W        W46508   5.918   0.263   0.461  0.1808 -0.2054  0.1121
33095W        W46509  10.675   0.592   1.695  0.0159 -0.2915 -0.1700
33096W        W46510   1.391   7.883  13.327  0.1927  0.1032 -0.1939
33097W        W46511  10.723  16.961  16.496 -0.0284  0.4366  0.1467
33098W        W46512   3.315   8.400   1.311  0.0156 -0.1120  0.1614
33099W        W46513  15.007   8.808   6.296 -0.0400 -0.1436  0.0541
33100W        W46514   1.754   8.248  11.149 -0.1041 -0.1391  0.0636
33101W        W46515   8.447   2.019  12.728 -0.0303 -0.0742 -0.1636
33102W        W46516   2.822   3.090  13.117  0.0103 -0.0647 -0.5241
33103W        W46517  11.734   4.408   2.913 -0.0778  0.0080 -0.0521
33104W        W46518   2.104  17.716  11.424  0.2145  0.0099  0.2492
33105W        W46519   0.538  17.847   3.036 -0.1851  0.0069  0.3091
33106W        W46520   7.850  13.138  15.090  0.2940  0.2039  0.1626
33107W        W46521  13.471   5.516   2.699 -0.0700  0.1805  0.0177
33108W        W46522   2.938   1.843  11.846  0.1341  0.1408  0.3861
33109W        W46523   8.022   2.091  15.460 -0.0111  0.0339 -0.1271
33110W        W46524  11.454  17.917  10.889 -0.1791 -0.3024 -0.1356
33111W        W46525   0.425  12.477  16.409  0.1597  0.3724 -0.3395
33112W        W46526   1.480  17.632   4.072 -0.1704 -0.2223  0.4910
33113W        W46527   8.641  17.720   2.669  0.1211  0.1936  0.0902
33114W        W46528  12.234   1.515   2.357 -0.1331  0.0882  0.2759
33115W        W46529  11.445   6.659  12.807 -0.1137 -0.1175  0.3463
33116W        W46530   7.914   1.629   4.050 -0.1552 -0.2501 -0.1173
33117W        W46531  16.398  10.392   1.544  0.2548 -0.2919 -0.2112
33118W        W46532   1.755   1.510  14.411 -0.2942  0.0367  0.0895
33119W        W46533   4.002   8.991  14.813 -0.3477  0.1404 -0.0463
33120W        W46534   9.276   4.629   4.616  0.1597 -0.2941  0.0445
33121W        W46535   0.021  16.410   3.260 -0.0019 -0.1482 -0.2193
33122W        W46536   3.703   8.940  11.929 -0.2166  0.0107  0.2091
33123W        W46537   8.677   0.630   1.038  0.0499 -0.0954 -0.2196
33124W        W46538   8.772   8.635  11.811  0.0374 -0.1329  0.2321
33125W        W46539   9.251  14.371   2.357 -0.2504 -0.0847  0.0755
33126W        W46540  10.047   1.785  12.473 -0.1131 -0.1554 -0.1265
33127W        W46541   4.337   3.114  14.664 -0.0348 -0.3912  0.2444
33128W        W46542  15.761   4.083   5.352  0.1671  0.1573 -0.0093
33129W        W46543  17.183   8.538  11.924  0.3356  0.0996  0.1735
33130W        W46544  14.269  17.821  10.477  0.0556 -0.4063 -0.1561
33131W        W46545   8.753   9.814  11.050  0.2675  0.2072 -0.2248
33132W        W46546   4.450   8.654  15.129 -0.0184  0.3111  0.1407
33133W        W46547  17.890   8.888  10.579 -0.0100  0.0369  0.0658
33134W        W46548  16.410  16.394  16.083  0.1979 -0.1066 -0.0194
33135W        W46549   7.849   8.135  16.333 -0.0036 -0.1838 -0.0221
33136W        W46550   4.056  11.508   0.011  0.2457  0.1007 -0.0025
33137W        W46551  17.788   3.472  14.230 -0.0656  0.2463 -0.0509
33138W        W46552  15.255  14.597  11.627 -0.0486 -0.2906 -0.1707
33139W        W46553   4.066  14.704   5.991  0.2066 -0.0096 -0.1810
33140W        W46554   6.201  11.959   4.299  0.3440 -0.0476 -0.2590
33141W        W46555   7.904  13.788  16.470 -0.1544  0.0623 -0.0441
33142W        W46556   2.201   6.698   3.216 -0.3930  0.0272 -0.0591
33143W        W46557   2.186   0.634   1.020 -0.1967 -0.1405 -0.1488
33144W        W46558   3.940   3.598   3.637  0.0991 -0.0277  0.0118
33145W        W46559  15.853   0.055   0.391 -0.0578  0.0837  0.1276
33146W        W46560   4.402   1.087   5.092  0.1148 -0.2783 -0.1933
33147W        W46561  12.710   5.199  12.038  0.3518 -0.0114 -0.1116
33148W        W46562  16.412   1.331  14.238 -0.1316  0.0585 -0.1034
33149W        W46563   8.212  12.559   3.067 -0.1608  0.2237  0.1820
33150W        W46564  11.420   9.252  14.724 -0.0102 -0.1277  0.0326
33151W        W46565  14.685   7.285   2.423  0.1091 -0.0404  0.2405
33152W        W46566  16.196  15.996   4.905 -0.0031 -0.0941  0.1244
33153W        W46567  11.758  11.083  12.972  0.0390  0.0263  0.3738
33154W        W46568   9.131  17.694   1.022  0.0713 -0.0571  0.1208
33155W        W46569   1.491  10.263   5.884 -0.2171  0.0691  0.0364
33156W        W46570  17.284   7.017   1.779  0.1031 -0.3268  0.0177
33157W        W46571  10.890  11.197  13.623 -0.1412  0.1597 -0.0454
33158W        W46572  14.803  18.126  13.390  0.3117 -0.0223 -0.1614
33159W        W46573  10.335   3.478  10.499  0.1528 -0.1028 -0.1958
33160W        W46574   2.838   2.201  14.397  0.0627 -0.2502 -0.0882
33161W        W46575   3.241   0.588  10.429 -0.1535 -0.0339  0.1048
33162W        W46576   1.839  17.801  13.478 -0.2492  0.1134 -0.1377
33163W        W46577  17.380  12.526   3.660  0.1384  0.1319  0.5170
33164W        W46578   0.519  13.994  16.432  0.0720  0.0458  0.0011
33165W        W46579  14.783   2.595   2.381 -0.1193  0.1557 -0.0846
33166W        W46580  12.051   7.603  15.160  0.1696 -0.0299  0.0305
33167W        W46581  14.544   8.637  15.785 -0.0199  0.1980 -0.0919
33168W        W46582  14.178  10.246   9.771 -0.2454 -0.0598  0.3007
33169W        W46583   7.175   8.303  15.951  0.0419 -0.0749  0.1668
33170W        W46584  15.433  18.096   3.828  0.1737  0.2381 -0.2874
33171W        W46585  14.754   8.260   3.955  0.0171  0.0669 -0.0814
33172W        W46586  14.633   2.017   5.342 -0.2252 -0.3370  0.1423
33173W        W46587   9.662   4.548  12.323  0.0227 -0.1129 -0.1123
33174W        W46588  16.870  13.671  10.624 -0.1574 -0.1794 -0.1299
33175W        W46589   5.810  16.016  12.719  0.0647 -0.0680  0.0292
33176W        W46590  15.512   6.959  14.049 -0.0881  0.2905 -0.0820
33177W        W46591   8.377   3.221  12.461  0.5981  0.1135  0.2522
33178W        W46592  14.215   5.030   1.737  0.0363  0.1736  0.1138
33179W        W46593   7.363  16.044  11.450 -0.1198  0.0499  0.2553
33180W        W46594   6.854   7.833   3.668 -0.0201  0.5078 -0.0607
33181W        W46595  13.629   3.369  11.929  0.1842 -0.3054  0.1563
33182W        W46596  11.864   8.738   5.497 -0.1335 -0.1452  0.0752
33183W        W46597   6.677   8.727   0.073  0.2593 -0.1610  0.0273
33184W        W46598   7.311  15.624   6.204  0.2662 -0.1722 -0.2741
33185W        W46599   2.760   8.975   6.475 -0.1967 -0.1180  0.1559
33186W        W46600  16.010   5.812   3.767 -0.1988  0.1905  0.1136
33187W        W46601  12.793   7.851  16.377  0.1078 -0.0396  0.3523
33188W        W46602  16.041  10.672  13.338  0.0228 -0.2014  0.1877
33189W        W46603   1.846  13.635   2.254 -0.1549  0.2777  0.0924
33190W        W46604   1.523  10.397   0.537  0.0033  0.0045  0.0133
33191W        W46605   3.114   7.773   4.987  0.0674  0.0924  0.2293
33192W        W46606   3.297   5.935  14.168  0.0662  0.2020  0.3153
33193W        W46607   4.701  11.656  12.987 -0.3341  0.0236  0.1039
33194W        W46608  14.069  17.983   0.763 -0.0972 -0.2350  0.2805
33195W        W46609   4.131   1.086   1.548  0.1665  0.0461  0.1946
33196W        W46610  13.026   0.601  12.195 -0.0533 -0.0488  0.0086
33197W        W46611  11.091  14.200  12.519  0.0390 -0.1169  0.1462
33198W        W46612  13.272   7.006   0.202  0.3201  0.1502 -0.3376
33199W        W46613   9.270  17.837  11.656  0.1636  0.4217  0.2331
33200W        W46614  14.471  13.142   4.382 -0.2596 -0.0739 -0.2155
33201W        W46615   9.141   2.744  12.791  0.0255  0.0067  0.1081
33202W        W46616   2.796   5.057   3.499  0.1408  0.0095  0.2325
33203W        W46617   9.850  15.326   1.393 -0.1481 -0.1431 -0.1759
33204W        W46618   3.117   6.502  12.961  0.0244 -0.1431 -0.0593
33205W        W46619  13.545   6.546   1.116 -0.0230 -0.1226 -0.2233
33206W        W46620   6.334   7.651   1.485  0.3674  0.1891  0.0629
33207W        W46621  15.974  15.643   2.450  0.2469 -0.2163 -0.2939
33208W        W46622  16.926   3.815  11.078 -0.1037  0.0748 -0.5198
33209W        W46623  10.907  16.366  13.807  0.0027 -0.4229 -0.1417
33210W        W46624   6.000   2.242   0.100  0.1450 -0.0028  0.3769
33211W        W46625  14.356   2.919   5.409  0.0084  0.0751 -0.1199
33212W        W46626   8.278   4.421  14.201 -0.1907  0.3680  0.0044
33213W        W46627   3.842  16.667   0.988  0.0676 -0.0772 -0.1552
33214W        W46628  11.410   2.393   5.752  0.2928  0.2617 -0.0228
33215W        W46629   4.770   3.552   5.793 -0.0024 -0.1372 -0.3327
33216W        W46630   7.699   3.231   4.548 -0.0982  0.4996 -0.1125
33217W        W46631  11.609  18.192  13.406 -0.2547 -0.1658  0.2334
33218W        W46632  17.975  15.548  13.025 -0.0726  0.0115 -0.0352
33219W        W46633   9.950  16.025  12.008 -0.1816  0.3029  0.2589
33220W        W46634   0.617  14.793  14.774 -0.0078 -0.2971 -0.1415
33221W        W46635  15.465   1.951   3.646  0.4213  0.2029  0.0809
33222W        W46636   1.391   8.371   2.119 -0.3849 -0.0750 -0.0245
33223W        W46637  17.756  13.786   4.639 -0.0237 -0.1128 -0.1370
33224W        W46638  16.838   0.364   5.181  0.1357 -0.1695  0.2373
33225W        W46639   1.246   9.742   3.850  0.4100  0.3431 -0.0033
33226W        W46640   7.604   4.040   1.890  0.2451  0.0327  0.1987
33227W        W46641   4.494   8.886  15.721 -0.0309 -0.0438 -0.2665
33228W        W46642  17.697   5.830   3.678 -0.1256 -0.2558  0.2174
33229W        W46643   2.003  11.973   0.023  0.1388  0.0274  0.3188
33230W        W46644  18.060  16.078  11.551  0.1252 -0.1694  0.1132
33231W        W46645   5.849   0.800   4.403  0.0482 -0.4037 -0.0434
33232W        W46646   6.772  17.705  12.975  0.1686 -0.0391  0.0991
33233W        W46647  13.311   3.001  13.299  0.1730 -0.0283  0.1168
33234W        W46648  18.078   7.321  13.070  0.2761  0.1010 -0.1082
33235W        W46649   3.677   2.930  11.053  0.1538 -0.1610  0.0991
33236W        W46650   2.432   3.388   4.059 -0.0585 -0.0529 -0.2169
33237W        W46651   1.394   1.221   2.386 -0.0149  0.2062 -0.1928
33238W        W46652  13.030  13.191   0.055 -0.1682  0.0163 -0.0326
33239W        W46653  11.015   6.232   5.636  0.1935  0.0577 -0.1942
33240W        W46654   3.747  17.474   5.255  0.3214  0.0596 -0.2371
33241W        W46655   2.570   5.393  11.685 -0.0020 -0.0209 -0.1063
33242W        W46656   4.101   6.392  11.739  0.0249  0.1623 -0.0860
33243W        W46657   9.455  11.128   0.898  0.0666 -0.0155 -0.3023
33244W        W46658   6.958  16.146   1.481 -0.1355  0.3804  0.0615
33245W        W46659  15.131   5.892  14.019 -0.1580  0.0220  0.0547
33246W        W46660   3.327  12.224  13.924  0.3482  0.0882 -0.1720
33247W        W46661  18.119  18.030   3.445  0.1601 -0.1681 -0.1057
33248W        W46662   2.860   6.711  16.494 -0.1392 -0.0345  0.1609
33249W        W46663  11.753   2.052   1.974  0.1343  0.0263 -0.0252
33250W        W46664   6.210   3.387   5.480  0.2841  0.2929  0.0977
33251W        W46665  16.891  16.477  12.275  0.3342 -0.1385  0.0803
33252W        W46666   7.510  13.915   0.668  0.0331 -0.2031 -0.1488
33253W        W46667  15.080   0.995  12.145 -0.1361  0.0375  0.2066
33254W        W46668   3.028   7.070  13.288  0.2919 -0.2275  0.4549
33255W        W46669  12.581   8.168   5.843  0.1145  0.0094 -0.2214
33256W        W46670  13.794   5.745  11.599  0.1374  0.0961  0.1516
33257W        W46671   1.697   6.393   5.331 -0.1263  0.0763 -0.0170
33258W        W46672   2.918  14.706  15.686 -0.3677  0.2817  0.0175
33259W        W46673  12.380  18.000  12.599 -0.0744 -0.1804 -0.0899
33260W        W46674   8.747   4.706  10.699 -0.0227 -0.0348  0.0333
33261W        W46675   0.622  17.762  14.772  0.2219  0.0295  0.1680
33262W        W46676  18.097  17.273  14.384 -0.0901  0.0207  0.1773
33263W        W46677   8.268   5.158  14.965 -0.0013 -0.3682 -0.3449
33264W        W46678   9.572   8.600  11.307  0.0036  0.2040  0.1881
33265W        W46679   0.808   3.390  14.443 -0.0506  0.0274 -0.0477
33266W        W46680   0.610   6.546   3.887 -0.0742  0.3035 -0.0716
33267W        W46681  16.008  17.142  14.136 -0.1702 -0.1824 -0.1794
33268W        W46682   5.816   3.906  12.025 -0.0018  0.0418 -0.2087
33269W        W46683  13.699   9.040  12.264 -0.2340  0.1810 -0.0959
33270W        W46684   3.024   9.735  12.950 -0.3547  0.0868  0.2814
33271W        W46685   7.853  13.552   4.078  0.2682  0.0098  0.1814
33272W        W46686  10.746  10.116  14.222 -0.2074 -0.0072  0.1426
33273W        W46687   5.007  12.491  14.182 -0.1096 -0.0409 -0.0693
33274W        W46688  17.153   7.557   3.851  0.2634 -0.0365 -0.0757
33275W        W46689  13.589   9.388   3.089  0.0678 -0.1294 -0.0553
33276W        W46690  14.017   1.929   0.637 -0.1396 -0.2437  0.4204
33277W        W46691  11.436  17.718   0.921 -0.3302  0.0286  0.0515
33278W        W46692  13.469   7.422   5.188 -0.0173 -0.0767 -0.2390
33279W        W46693   7.915  13.173   0.006  0.2314  0.0043 -0.3596
33280W        W46694  13.428  13.862   5.574  0.1347 -0.1681 -0.0137
33281W        W46695   6.955  10.468  13.046 -0.0439 -0.0163 -0.1249
33282W        W46696  10.532   2.823   6.019 -0.0515 -0.0110  0.3391
33283W        W46697  16.968   8.901   5.912 -0.0246 -0.1507  0.0729
33284W        W46698  15.301   5.317   3.339 -0.0904  0.2200  0.1780
33285W        W46699   5.446   3.060   2.222 -0.1679 -0.0449  0.2124
33286W        W46700  14.531   1.553  14.869 -0.2355  0.0300 -0.1129
33287W        W46701  14.924   6.468   4.346  0.2477 -0.2615  0.1307
33288W        W46702  13.000   7.423   3.838  0.0131 -0.2095  0.2278
33289W        W46703   5.111  12.237   0.001  0.1551  0.0031 -0.2429
33290W        W46704  12.210  15.829   5.558 -0.2093  0.1274 -0.1146
33291W        W46705  13.903   5.551  14.366 -0.5016  0.2541  0.3152
33292W        W46706  13.573   0.421  10.573  0.0561  0.0899 -0.0841
33293W        W46707  14.509   1.149  14.592  0.4881 -0.1278 -0.1110
33294W        W46708   9.479   2.207  11.130  0.0340 -0.2564  0.1158
33295W        W46709   9.121   3.719   3.956  0.2273  0.1025  0.1134
33296W        W46710  12.580   5.405   0.677  0.0526 -0.0029  0.2791
33297W        W46711  12.128   9.323  10.508  0.3169  0.4212 -0.2939
33298W        W46712   5.406  12.697   3.385  0.2667 -0.0675 -0.0942
33299W        W46713   8.440  14.258  10.725  0.0178 -0.2430 -0.0341
33300W        W46714   5.221  15.147   6.524 -0.1016  0.5095  0.2388
33301W        W46715  14.554  10.585   4.885 -0.1342  0.3864 -0.2247
33302W        W46716  18.132   9.954  15.360  0.0469  0.0671 -0.2996
33303W        W46717  15.257  16.959   3.503 -0.0641 -0.3168 -0.0404
33304W        W46718   0.654   5.528   1.146  0.1282 -0.1425  0.1918
33305W        W46719  15.500  10.690   3.027  0.0785  0.1460  0.1888
33306W        W46720  16.495   1.761  13.881  0.0739 -0.2560 -0.1136
33307W        W46721  15.020   4.117  11.615 -0.0362  0.0481 -0.0726
33308W        W46722  10.465  18.205   2.632  0.2789  0.0402  0.1727
33309W        W46723   4.937   7.616   3.480 -0.0407 -0.0082 -0.1113
33310W        W46724  17.138   3.377   3.869 -0.2905  0.1060 -0.0226
33311W        W46725  15.121  13.460  11.057 -0.1223  0.0162  0.1146
33312W        W46726   1.180   0.425   2.638  0.3190  0.0596 -0.3327
33313W        W46727  15.364  11.660  12.056 -0.0541 -0.2641 -0.2688
33314W        W46728   9.743  11.659   3.881 -0.4009  0.0247  0.0349
33315W        W46729   3.185   3.192  12.119 -0.2107  0.1806 -0.0464
33316W        W46730  12.464   6.380  14.578 -0.1288  0.0350 -0.0015
33317W        W46731  11.584   7.590  12.606  0.0306 -0.4773  0.3105
33318W        W46732  10.932   1.042  14.649  0.1556 -0.3071 -0.0767
33319W        W46733   6.147   7.134  11.946 -0.0545  0.1115 -0.1569
33320W        W46734   2.853  17.531  14.550 -0.1530 -0.2051  0.0305
33321W        W46735  11.245   2.242   0.245  0.2324  0.3106 -0.1341
33322W        W46736  16.947  11.431  15.653  0.0903  0.1525  0.2851
33323W        W46737   8.115  11.182  16.476 -0.1342 -0.1052 -0.1616
33324W        W46738   1.914  17.706   0.520 -0.1601  0.1160 -0.1161
33325W        W46739  14.366   4.258   4.239 -0.3126  0.0064 -0.0999
33326W        W46740   5.777   1.939   0.455 -0.1491  0.0605  0.0755
33327W        W46741   6.986   2.447  10.638  0.0043 -0.1497  0.2616
33328W        W46742  14.540  14.706   0.310  0.2600  0.0814  0.1544
33329W        W46743   5.894   3.557  13.406  0.1581 -0.0782 -0.0836
33330W        W46744  16.734  14.241   0.905  0.1166  0.0483 -0.0524
33331W        W46745   0.322  14.615   4.067  0.2352  0.0624  0.1769
33332W        W46746   1.270   8.577  13.837  0.0494  0.0513 -0.2728
33333W        W46747   3.507   5.758  15.519 -0.2855 -0.2412 -0.0074
33334W        W46748   0.001   8.887  14.498 -0.0847 -0.1729  0.1187
33335W        W46749   2.567   3.661  15.811  0.2488  0.1138 -0.1422
33336W        W46750  16.631  14.416  15.313  0.2397 -0.1680 -0.2787
33337W        W46751   8.428  12.818  11.572 -0.0485 -0.2575 -0.2769
33338W        W46752   1.404   7.688   1.273 -0.0627 -0.1497 -0.1192
33339W        W46753   9.707  11.361  11.288  0.1846  0.1308 -0.0989
33340W        W46754  14.681  11.152   0.178  0.1019  0.0610 -0.1385
33341W        W46755  11.573  10.990   1.595 -0.0488  0.1989  0.0536
33342W        W46756   6.582  17.199  12.300  0.0518 -0.0844  0.3065
33343W        W46757  15.794  17.414  11.587 -0.2119  0.1846 -0.0401
33344W        W46758   9.607   8.106  10.950  0.0715  0.2460 -0.0948
33345W        W46759  11.145  15.464   5.936 -0.1112 -0.3579  0.0300
33346W        W46760   7.475  12.450  13.416 -0.1336  0.1452 -0.0709
33347W        W46761   3.725  10.126   0.521  0.1083 -0.2059 -0.1497
33348W        W46762  12.270   0.416   2.967  0.3205  0.1086  0.0166
33349W        W46763   8.770   8.514   1.974  0.1727 -0.1697  0.0131
33350W        W46764   3.634  13.130  12.847 -0.0825  0.2437  0.0058
33351W        W46765   1.571  15.749   1.486 -0.0336  0.1447  0.0312
33352W        W46766  15.055   3.670  13.060  0.0171 -0.0714  0.1190
33353W        W46767   0.646   8.047   0.157 -0.3174 -0.2443 -0.0794
33354W        W46768   0.748   7.283   0.919 -0.1560 -0.2906  0.0771
33355W        W46769  10.360  16.759   4.382  0.1697 -0.2236  0.2135
33356W        W46770   1.110   2.832   4.800 -0.1080 -0.0364 -0.2353
33357W        W46771   3.070   5.590   3.969  0.0100 -0.0094 -0.0353
33358W        W46772   3.318   4.978  12.532  0.2648  0.0053 -0.0482
33359W        W46773   3.986   1.404  13.235  0.1281 -0.0042  0.1068
33360W        W46774  15.350  13.579   2.255 -0.2115  0.1511  0.0713
33361W        W46775   5.226   4.294   5.501 -0.0191  0.0345  0.0910
33362W        W46776   1.700  16.008  11.092  0.1202 -0.5405  0.0887
33363W        W46777   4.946   8.542  11.112  0.1070 -0.0727  0.0286
33364W        W46778   2.048   6.492   2.790 -0.0809  0.3543 -0.2111
33365W        W46779   7.516   3.604  11.275  0.0744 -0.1698 -0.0892
33366W        W46780  16.811  16.564  10.357  0.2835  0.0251  0.2500
33367W        W46781  16.454   7.020  13.583  0.1856  0.0506  0.1365
33368W        W46782   0.970  14.916  10.851 -0.1102  0.0369  0.2450
33369W        W46783  10.631  18.193  15.202 -0.0667  0.1948 -0.0224
33370W        W46784  13.158   3.959  10.286  0.0342 -0.1453  0.3022
33371W        W46785   5.923  11.003   1.361  0.0166  0.2818 -0.3351
33372W        W46786  14.021   7.203   5.783  0.0657  0.1900  0.1183
33373W        W46787  12.911   9.483  13.700 -0.1986  0.1896 -0.1198
33374W        W46788  15.285   2.846  13.076 -0.1392  0.1987 -0.2209
33375W        W46789   0.296   2.737   1.962  0.2171 -0.2227 -0.1515
33376W        W46790  15.895   1.689   4.820  0.3108 -0.0699  0.4876
33377W        W46791   2.866   1.590   1.595  0.0936 -0.0328  0.0930
33378W        W46792  12.754   3.961  12.570  0.1674 -0.4102 -0.0761
33379W        W46793   2.929  13.543   2.173 -0.0091  0.0120  0.0308
33380W        W46794  13.598  16.567   1.856 -0.1803 -0.0533 -0.1146
33381W        W46795  14.997   7.437  13.507  0.0038 -0.2491  0.1935
33382W        W46796   1.728   5.625   1.118 -0.0345 -0.0853 -0.1052
33383W        W46797  17.881  15.042   0.977  0.0386 -0.1705  0.1828
33384W        W46798   8.613   4.543   3.621  0.3589 -0.1025  0.0225
33385W        W46799   6.562  17.137   0.385 -0.0557 -0.1751  0.0228
33386W        W46800   9.304  14.365   3.901 -0.2376 -0.2510 -0.1036
33387W        W46801  15.582   2.477   0.699  0.0854  0.1363 -0.0469
33388W        W46802   6.582   0.703  11.610  0.1191  0.2774 -0.0625
33389W        W46803   8.477   0.885  13.035  0.2733  0.1349  0.2391
33390W        W46804   0.998  16.402   1.854 -0.2787 -0.2373  0.3405
33391W        W46805  12.279   0.637   2.182 -0.1140 -0.4266  0.1106
33392W        W46806  15.177  13.833  11.935  0.1799  0.0024  0.0953
33393W        W46807   9.237   1.285   3.255  0.0191 -0.0661  0.2201
33394W        W46808   6.362  15.835   2.402  0.1589 -0.3386  0.2232
33395W        W46809  15.647   2.454  12.208 -0.1108  0.1084  0.0124
33396W        W46810  12.351  10.326   2.390 -0.1147 -0.3282  0.0012
33397W        W46811  11.639  12.032   4.910  0.0717 -0.1403  0.1390
33398W        W46812   9.039  17.347   3.312 -0.2586 -0.0720  0.1177
33399W        W46813  16.627   4.405  14.590  0.2421 -0.2546  0.0638
33400W        W46814  12.858  17.561  11.707  0.2210 -0.2551  0.0682
33401W        W46815  11.703  13.957  11.679 -0.0132 -0.1349  0.0328
33402W        W46816   6.638  12.426   2.490 -0.0732  0.1545  0.2184
33403W        W46817  11.807   0.242   1.612 -0.0085 -0.5992  0.3110
33404W        W46818   3.389   2.361   4.100 -0.2728  0.3141 -0.0031
33405W        W46819  13.510  15.620  10.310 -0.0734  0.0573  0.2651
33406W        W46820  11.944   1.605   0.422  0.0498 -0.0515 -0.0014
33407W        W46821   1.965   8.736  10.875  0.1058  0.1421 -0.0316
33408W        W46822  17.702  13.852  11.990  0.0914  0.0140 -0.0821
33409W        W46823   7.614   6.237  11.700 -0.0324  0.0543  0.3197
33410W        W46824   3.631   8.085  13.873 -0.2593 -0.4229  0.0064
33411W        W46825  10.194   9.261  15.229 -0.1192  0.0076  0.3007
33412W        W46826   4.304  11.184   4.821 -0.1755 -0.1216 -0.2683
33413W        W46827   9.995  10.536   2.578 -0.0020  0.1424  0.1134
33414W        W46828   1.833   9.618  10.843 -0.1275 -0.0559  0.0636
33415W        W46829  14.138   5.664  11.280 -0.0798 -0.0862 -0.0765
33416W        W46830   1.022  12.723   6.447  0.0616  0.1739 -0.0750
33417W        W46831   5.998   5.681   3.093 -0.1410  0.2124 -0.2364
33418W        W46832  15.722  12.050   2.206 -0.2400 -0.1752  0.0701
33419W        W46833   0.341  11.324   1.797  0.0314  0.1935  0.0396
33420W        W46834  13.956  10.611  11.023 -0.4113  0.0763 -0.1180
33421W        W46835  17.585   6.344   2.111  0.0404 -0.0184  0.0972
33422W        W46836   6.711  10.494   6.238 -0.0856  0.1097  0.1949
33423W        W46837   5.045   8.758   4.250 -0.0656  0.4818 -0.2740
33424W        W46838  10.167  16.131  14.956  0.1462  0.1559  0.1972
33425W        W46839   5.113   4.350  12.725  0.1909 -0.1038 -0.0176
33426W        W46840  15.093   9.169  13.624 -0.1095  0.1475  0.1114
33427W        W46841  11.993  11.682   2.584 -0.0405  0.0466  0.1526
33428W        W46842   1.985  13.750   0.295  0.0301 -0.1560 -0.2513
33429W        W46843   3.270  16.221  12.289 -0.0660 -0.3358 -0.2142
33430W        W46844   1.630   0.512  15.769  0.0698 -0.1561 -0.2276
33431W        W46845   9.579  12.064   4.251 -0.1236  0.1711  0.0632
33432W        W46846   1.407  16.171   0.106  0.0455  0.1597 -0.3475
33433W        W46847   6.985  13.423  13.423  0.0670 -0.1165 -0.1176
33434W        W46848  12.796   0.640  10.144 -0.0502  0.1470 -0.0770
33435W        W46849  17.133  10.880   4.887  0.2454  0.0150  0.1121
33436W        W46850   7.910   7.563   1.175  0.3423 -0.2999 -0.1168
33437W        W46851  17.818  16.746   1.879 -0.0813 -0.1174  0.0133
33438W        W46852   8.707   8.105   1.050 -0.3719 -0.1183  0.0983
33439W        W46853   4.164   2.422   6.517 -0.0486 -0.0148 -0.1901
33440W        W46854  10.039   3.232   4.544  0.1428  0.0189 -0.2427
33441W        W46855  10.244  13.322  12.917 -0.0195 -0.0521 -0.1402
33442W        W46856   9.389  16.789  16.065 -0.0425  0.0130  0.1016
33443W        W46857   6.509  17.756  14.567  0.0791  0.0330 -0.0184
33444W        W46858   3.025  10.129   2.400 -0.1062  0.3546 -0.0422
33445W        W46859  13.175   9.361   1.753 -0.4274 -0.0857 -0.3622
33446W        W46860   6.218  17.748  16.063  0.2809 -0.2646 -0.0588
33447W        W46861  11.038  13.885   0.040 -0.4169  0.1744 -0.1664
33448W        W46862   4.975   3.881  13.506  0.0154  0.1492 -0.0287
33449W        W46863   9.252  11.646   4.210 -0.2069 -0.0858  0.2238
33450W        W46864   2.446   6.931  11.864  0.0605 -0.1601 -0.2167
33451W        W46865  17.395  15.584   4.273  0.0468  0.0393  0.1961
33452W        W46866  18.218  14.831   5.726 -0.1278 -0.0843 -0.1008
33453W        W46867   9.774   9.962  11.077  0.1971  0.0312  0.1631
33454W        W46868   6.481   2.980   2.650 -0.0996  0.2999  0.1689
33455W        W46869   8.107   7.015   0.080  0.0740 -0.0465 -0.1189
33456W        W46870   7.004  14.748   4.035  0.1318  0.0848 -0.2766
33457W        W46871   6.955  16.585  15.036 -0.3418  0.0204 -0.2799
33458W        W46872  17.273   0.520  13.297  0.1826  0.3064 -0.1036
33459W        W46873   4.543  16.651  12.849 -0.1258 -0.2217  0.1018
33460W        W46874  15.856   5.891  15.597 -0.0053  0.0957 -0.1721
33461W        W46875  11.936   5.006   5.207  0.0608 -0.0148 -0.1722
33462W        W46876   3.319   9.401   5.845  0.0755 -0.1096 -0.1518
33463W        W46877  15.943   0.573  11.775  0.2321  0.0706  0.1542
33464W        W46878  11.060   0.259  11.168  0.0146 -0.2149  0.1490
33465W        W46879  11.295   7.722   2.931 -0.0168 -0.0971  0.1971
33466W        W46880  17.055   1.214   0.241  0.0871 -0.0810 -0.2072
33467W        W46881  14.045   3.662   2.356  0.0116 -0.3062  0.0214
33468W        W46882   7.207   3.556   5.158  0.4428  0.2884 -0.0901
33469W        W46883  16.443  16.580  12.090 -0.0713  0.2111 -0.0869
33470W        W46884   7.305   6.375  12.625 -0.1211  0.2592 -0.1625
33471W        W46885  13.333   1.800  13.842  0.0308  0.1128 -0.2129
33472W        W46886   4.925   1.210  13.098  0.2119 -0.4062  0.4042
33473W        W46887   9.180  10.911   3.931  0.0016  0.3910  0.1601
33474W        W46888   3.844  15.946  14.534 -0.0029 -0.2365 -0.0214
33475W        W46889   8.633   0.153   1.214  0.3987 -0.3681 -0.1213
33476W        W46890   9.702   2.699  15.975 -0.0542  0.0178 -0.1956
33477W        W46891  17.554   2.566   2.129  0.2016  0.2278  0.0210
33478W        W46892   4.082  15.442   1.549  0.2050  0.0316  0.3961
33479W        W46893   3.256   0.970   2.715 -0.2283  0.1152  0.1494
33480W        W46894  16.821   0.115  14.731  0.0280  0.1516 -0.2069
33481W        W46895  12.645  16.477  13.154  0.0583  0.0785 -0.0835
33482W        W46896  15.998  11.836   0.832 -0.3573 -0.2097 -0.1511
33483W        W46897   6.460  11.758   0.402  0.1675  0.0777 -0.1070
33484W        W46898   9.052   6.461  14.376  0.0809 -0.0629  0.0997
33485W        W46899   0.413   0.010  15.668  0.2479 -0.3599 -0.1268
33486W        W46900  17.584   4.411  12.173  0.0481 -0.1843  0.1698
33487W        W46901  11.508  11.762   2.942 -0.0799 -0.2446 -0.2109
33488W        W46902   1.277   1.276  15.118  0.1723  0.1219  0.0626
33489W        W46903  14.451   0.564   1.534  0.1845 -0.0750  0.2703
33490W        W46904  12.265   8.392  15.598  0.1305 -0.0488  0.2245
33491W        W46905   5.369   5.384  10.532 -0.1886 -0.0286 -0.1078
33492W        W46906  10.940  10.828   3.629 -0.1239 -0.0211  0.2363
33493W        W46907  15.717  15.777   2.956  0.0905  0.0697 -0.0008
33494W        W46908  15.575  12.283   0.957  0.0139 -0.1922  0.0945
33495W        W46909   0.255   8.184   6.750  0.3284  0.0065 -0.0131
33496W        W46910   0.717   3.548   1.948 -0.1671  0.0883 -0.2516
33497W        W46911  16.887   7.701  14.896 -0.1181 -0.1807  0.1841
33498W        W46912  17.682   6.017  15.263 -0.0920 -0.0602  0.1206
33499W        W46913   9.316   0.314   4.505  0.1721  0.0087  0.4540
33500W        W46914  15.387   1.429  14.867 -0.1628  0.1538  0.0657
33501W        W46915  15.629   5.045  13.537 -0.2533  0.0072 -0.2053
33502W        W46916   6.361  16.818  14.807 -0.0169 -0.0193  0.1035
33503W        W46917   9.236   8.725   0.761  0.1833 -0.3820 -0.0701
33504W        W46918   4.108  11.220   5.330 -0.1065  0.1819 -0.0130
33505W        W46919   8.360  18.158   2.545 -0.1345 -0.2046  0.1237
33506W        W46920  13.102   1.819   2.872  0.1708  0.2217  0.1571
33507W        W46921  15.898   4.649   2.135  0.0757 -0.1180 -0.0344
33508W        W46922   6.691  17.432   4.714  0.1256 -0.1041  0.1182
33509W        W46923   4.612   7.136  14.234  0.2366  0.2351  0.3133
33510W        W46924   4.605   3.095  10.941  0.0861 -0.4696 -0.0015
33511W        W46925   0.666  12.125  11.220  0.0749  0.1411  0.1032
33512W        W46926   5.429   5.001  11.418  0.1991  0.0677  0.2487
33513W        W46927   3.890  10.591   5.190 -0.1181  0.1853 -0.1297
33514W        W46928  15.696   4.989  14.227  0.0043  0.1658  0.2031
33515W        W46929   4.541   0.443  15.847 -0.0069 -0.2078 -0.2190
33516W        W46930  10.954  11.130   4.473  0.3609 -0.2888  0.0486
33517W        W46931   5.922   1.055  11.993  0.2363 -0.0016 -0.1535
33518W        W46932  17.737   3.566   2.171  0.1966  0.2078 -0.4041
33519W        W46933   1.349   5.622   4.471 -0.0881 -0.0345 -0.1205
33520W        W46934   4.155   3.029   4.461 -0.0106  0.1948  0.1238
33521W        W46935   3.098   7.389  14.962  0.0163  0.2798 -0.1159
33522W        W46936  15.434   8.016   3.579 -0.1590 -0.0871  0.2487
33523W        W46937   0.293  13.239   0.987 -0.0696  0.2289  0.0491
33524W        W46938  12.834  11.652  11.910 -0.1019 -0.2992  0.0790
33525W        W46939   6.054  16.720   2.184 -0.1171  0.1985  0.0273
33526W        W46940   6.350  14.640   2.328 -0.1566  0.0097 -0.0324
33527W        W46941   8.096  15.049   4.242  0.2430  0.1592 -0.2023
33528W        W46942  17.117   7.243  13.140  0.2395 -0.1090 -0.0759
33529W        W46943  10.923   4.351  15.788 -0.2709  0.0433  0.1564
33530W        W46944  13.654  11.053  10.634 -0.0009 -0.2134 -0.0804
33531W        W46945   3.034   6.673   5.509 -0.0058 -0.0563 -0.0625
33532W        W46946  17.132  14.174   0.133  0.1436 -0.1821 -0.0681
33533W        W46947  12.469   7.805  15.904  0.1800  0.3614  0.0274
33534W        W46948   2.856   1.696   5.249  0.1683  0.0062  0.0260
33535W        W46949  14.403   3.852   1.092  0.0751  0.2566  0.0907
33536W        W46950  16.223  16.638   0.311  0.1671 -0.0173  0.1453
33537W        W46951   1.716   1.579  11.312  0.1843  0.1886 -0.1719
33538W        W46952  12.745   0.824   0.147  0.0111  0.1013 -0.1472
33539W        W46953   1.367  17.175  15.780 -0.1502 -0.0390  0.1363
33540W        W46954  14.874   7.455   3.419 -0.3412  0.1072  0.1816
33541W        W46955  17.403   8.396  15.253  0.1589 -0.1532 -0.0908
33542W        W46956  16.939   2.283   0.002 -0.1881  0.0388  0.2548
33543W        W46957  14.935   8.883   5.400 -0.0227 -0.1300 -0.2410
33544W        W46958  12.542  15.097  10.864  0.0509  0.1135  0.1337
33545W        W46959   4.236   5.260  15.073  0.0414  0.2613 -0.0494
33546W        W46960  18.136   1.506   2.829  0.1083 -0.4472 -0.0997
33547W        W46961  15.484   2.886   4.281  0.3731  0.0869  0.0820
33548W        W46962  12.469   8.154   1.897  0.1048  0.1458 -0.2721
33549W        W46963  11.213   3.730  12.414  0.1812 -0.1230  0.0809
33550W        W46964   1.124   5.656   4.866 -0.0129  0.2082 -0.4261
33551W        W46965  15.864   6.560   6.167 -0.0433  0.0198 -0.1971
33552W        W46966   8.427   3.042   2.809  0.1487  0.2256 -0.2588
33553W        W46967  15.586   2.452   2.974  0.0271 -0.3118 -0.1545
33554W        W46968  11.744  18.135   0.821 -0.1926  0.0512  0.1639
33555W        W46969  13.861  17.989  10.904 -0.3489  0.3230 -0.0295
33556W        W46970   1.132   8.792  11.424  0.2161 -0.0790 -0.2124
33557W        W46971  17.854  11.384   2.632  0.0438 -0.2424 -0.1457
33558W        W46972   8.213   6.386  12.428  0.2660 -0.5099  0.2360
33559W        W46973  10.471   3.604   1.526  0.0693 -0.0653 -0.0990
33560W        W46974  10.722   5.665  10.363 -0.2060 -0.0939  0.2731
33561W        W46975   4.176  10.819  12.171  0.0324  0.2400  0.1194
33562W        W46976   3.626  10.066   3.885 -0.2337  0.1806 -0.0564
33563W        W46977   0.835  10.757   5.402  0.2839  0.0094  0.1693
33564W        W46978   3.842  16.314   0.538 -0.0205 -0.0441  0.0108
33565W        W46979  16.477   7.909  15.350 -0.0688  0.1543  0.1052
33566W        W46980  12.420   2.069  16.219  0.0084 -0.2928  0.0782
33567W        W46981   4.733   8.158  15.289 -0.0855 -0.3125  0.1851
33568W        W46982   8.164   3.267   3.770  0.2501 -0.1648  0.1970
33569W        W46983  12.523   3.354  11.668  0.0073 -0.2229  0.1713
33570W        W46984  16.628  10.913   4.819 -0.0018  0.2971 -0.1967
33571W        W46985  12.146  13.344   2.925  0.4410 -0.0204 -0.1603
33572W        W46986  13.469  11.319  12.294  0.1802 -0.1748 -0.2817
33573W        W46987   9.620  10.399  14.891  0.0082  0.0417 -0.0122
33574W        W46988  15.744   6.226   3.929 -0.3952  0.1371 -0.1408
33575W        W46989   1.976   0.139   3.277 -0.0008  0.0272  0.1424
33576W        W46990   3.354  13.872   3.426  0.1239 -0.2512  0.0391
33577W        W46991   2.156   1.067  15.396  0.1644  0.1236  0.0268
33578W        W46992  11.850  16.582  13.670  0.2130  0.3754  0.3887
33579W        W46993  11.403   2.589   1.945 -0.2336  0.0792  0.2440
33580W        W46994  16.866  13.742   5.133  0.1911  0.1803  0.0012
33581W        W46995   9.577   9.209   2.687 -0.2152  0.0020 -0.1881
33582W        W46996   2.051   6.700  14.851  0.0078 -0.0303  0.0369
33583W        W46997   2.002  12.710   3.420  0.0152  0.0528  0.0589
33584W        W46998  13.375  12.254  11.534  0.2207 -0.2541  0.3654
33585W        W46999   2.980  11.008   5.439  0.2074  0.1373 -0.1188
33586W        W47000  11.271  17.929  13.188 -0.1247 -0.1619  0.1414
33587W        W47001   2.887   1.563   4.256  0.0427 -0.1928  0.0459
33588W        W47002  17.636  13.828  14.113 -0.0839  0.0190 -0.2186
33589W        W47003   3.625  17.883  13.549  0.1670 -0.2764  0.0372
33590W        W47004   3.936  10.319   6.531 -0.2148 -0.1853 -0.0845
33591W        W47005   3.900  11.317  14.745 -0.0452  0.0562  0.2600
33592W        W47006  17.955  17.115  10.904 -0.2453  0.0604  0.0911
33593W        W47007  16.392  13.963  11.177 -0.2766 -0.2121 -0.0530
33594W        W47008  15.474   2.193   6.135  0.1002  0.2823  0.1831
33595W        W47009  16.347   9.124  12.184 -0.2557  0.0675 -0.1793
33596W        W47010   4.404   9.729   2.550  0.0835 -0.1506  0.0066
33597W        W47011   9.942  16.805   9.918 -0.0276 -0.0767  0.1019
33598W        W47012  13.854   1.777   4.429  0.2351  0.1284 -0.0099
33599W        W47013   9.500   5.874   6.303 -0.1874 -0.0258 -0.0815
33600W        W47014   4.836  15.536  11.626 -0.0244 -0.1320  0.2112
33601W        W47015   4.145   5.510  12.447 -0.0474  0.0336 -0.3554
33602W        W47016   5.960   6.924  15.714  0.2931  0.0861 -0.2091
33603W        W47017  11.102  14.827   1.682  0.1959 -0.0911  0.2956
33604W        W47018   2.765   8.442  11.300  0.2166 -0.2941  0.0819
33605W        W47019  11.512   2.675   4.377  0.0668 -0.0418 -0.2961
33606W        W47020  16.237   9.387  13.317 -0.1417  0.0168  0.1558
33607W        W47021   9.712  14.653   0.300  0.0056 -0.3208  0.1354
33608W        W47022   1.909   9.334  11.777  0.2308 -0.2399 -0.0723
33609W        W47023   4.433   7.253  14.871  0.0898 -0.3637  0.0684
33610W        W47024  14.237  10.641  15.362 -0.0616  0.0566  0.2536
33611W        W47025  14.833  15.617   2.253  0.3710  0.0782 -0.0585
33612W        W47026   1.721   8.402  15.795 -0.3444  0.1323 -0.1865
33613W        W47027   9.617   4.929   0.299  0.0330 -0.0743  0.0453
33614W        W47028   7.603   8.509  14.362  0.0448 -0.0221  0.2526
33615W        W47029   7.384   1.218   3.330 -0.3661 -0.1232 -0.2022
33616W        W47030   9.534  13.062   3.214  0.0033  0.2575  0.1481
33617W        W47031   7.355  13.419   3.828 -0.1426  0.1064  0.0289
33618W        W47032   2.767  15.398  16.397  0.0534  0.0346 -0.1626
33619W        W47033   9.621  16.409   9.834 -0.1850 -0.0561 -0.0180
33620W        W47034   7.111  17.936  13.892  0.0700  0.0113 -0.2839
33621W        W47035  10.491   9.330  13.695 -0.0702  0.0957 -0.0575
33622W        W47036  14.652  10.079   4.083 -0.0336  0.0265 -0.0942
33623W        W47037   0.299   2.329   4.832 -0.2039  0.2715  0.1928
33624W        W47038   7.084   1.908  12.256  0.0197  0.2233  0.0541
33625W        W47039  17.892  12.828   4.416 -0.1280 -0.1301 -0.1071
33626W        W47040  14.105   2.141  11.826 -0.1335  0.1013  0.0152
33627W        W47041   4.504   9.060   1.665 -0.1467 -0.1269 -0.1051
33628W        W47042   3.943   5.294  15.956  0.1904  0.0572 -0.0190
33629W        W47043   1.396   8.685  14.908 -0.2843  0.0550  0.4554
33630W        W47044   5.413   5.390  14.057 -0.1843 -0.1875 -0.1620
33631W        W47045  14.231   8.364   6.376  0.0412 -0.0482 -0.0602
33632W        W47046   6.842  10.647  13.830 -0.2079 -0.0654  0.0013
33633W        W47047   4.666  17.164   3.363 -0.0880 -0.0951 -0.0918
33634W        W47048   3.534  12.730  13.165  0.0804 -0.0394  0.2043
33635W        W47049   1.386  15.526  12.899  0.1910  0.0411  0.0621
33636W        W47050  17.289   6.175  14.800 -0.0852  0.0841  0.1278
33637W        W47051   3.376   3.324  13.790 -0.4391 -0.0801 -0.2073
33638W        W47052   7.818   7.812  14.920  0.1560  0.0282  0.2722
33639W        W47053   3.021  17.297   0.363  0.2247 -0.1403  0.0108
33640W        W47054   3.175  12.665  11.010  0.0326  0.0584 -0.1308
33641W        W47055   5.987  17.694  14.738  0.1094  0.3446 -0.0508
33642W        W47056   4.114  15.791  11.094 -0.0678 -0.4561 -0.2556
33643W        W47057   0.604   7.093  13.467  0.0683 -0.2812 -0.0163
33644W        W47058   6.638  15.932   4.186  0.1943  0.1780 -0.3171
33645W        W47059  14.252   7.408  10.427 -0.0584  0.0898  0.1675
33646W        W47060   8.338   1.115   0.443 -0.0610  0.2353 -0.2448
33647W        W47061  13.541  11.093  16.288  0.0723  0.1311 -0.2722
33648W        W47062   9.684   8.615   2.480 -0.3387 -0.2432 -0.0063
33649W        W47063  10.992  16.061  10.998  0.1862  0.0434  0.1123
33650W        W47064  10.629   8.622  15.576 -0.1006  0.1475 -0.1152
33651W        W47065  13.767  15.207  16.483  0.3859 -0.0277 -0.2575
33652W        W47066  17.421   5.145   4.287  0.0866 -0.2318  0.1056
33653W        W47067   1.579   3.831  14.535 -0.1508  0.2342 -0.1699
33654W        W47068   9.847   0.594   0.272  0.3562  0.2379  0.1588
33655W        W47069   7.423   0.044  15.030  0.1936 -0.1033  0.0307
33656W        W47070  17.039   0.360  15.632 -0.0267  0.1274  0.1386
33657W        W47071   6.205   1.910  10.784 -0.1049  0.1728  0.2236
33658W        W47072  15.161   5.703   1.249 -0.4511  0.3246  0.0846
33659W        W47073   7.025   4.159  12.745  0.0559  0.0555  0.2600
33660W        W47074  12.210   5.565  11.239  0.0188 -0.2277  0.0695
33661W        W47075  15.939  14.733  10.969 -0.1442  0.3230  0.1170
33662W        W47076   9.156   6.207  13.404 -0.4343  0.2260  0.3298
33663W        W47077  16.350   2.873   3.899  0.1267 -0.0228  0.1281
33664W        W47078   6.232   4.265  11.412  0.0803  0.1204  0.0723
33665W        W47079   4.817   0.957   3.606 -0.3627  0.2395  0.3926
33666W        W47080  17.136   2.337  10.375 -0.0321  0.0238 -0.1144
33667W        W47081  10.563   2.399  14.766  0.1269 -0.0120 -0.1465
33668W        W47082   8.656   7.777  13.627  0.0308  0.0268  0.0500
33669W        W47083  11.580   0.742  11.463  0.1304  0.2544  0.2070
33670W        W47084   9.099  14.600   3.490  0.2073  0.1875 -0.0201
33671W        W47085   2.674   0.598  15.811  0.0149  0.0044  0.0750
33672W        W47086  11.023  14.906  15.066 -0.1596 -0.3096  0.5104
33673W        W47087  13.979  11.687  13.095  0.1415 -0.2429  0.1605
33674W        W47088   7.338  17.662  15.159 -0.1982 -0.1988 -0.1868
33675W        W47089   8.744   5.612   1.628  0.1072  0.1120 -0.2881
33676W        W47090  13.712  16.036   2.503 -0.3770 -0.0086 -0.0232
33677W        W47091   9.817  10.337   2.131 -0.0427 -0.0953  0.4152
33678W        W47092  10.984  15.991  14.191  0.2756  0.1289 -0.3275
33679W        W47093  16.527   6.874   6.630  0.1793  0.2283  0.0194
33680W        W47094   2.730   8.302  11.829 -0.1433 -0.0557 -0.2127
33681W        W47095  14.991  14.864  12.230  0.0404  0.1531  0.1475
33682W        W47096   0.106  15.887   3.113  0.0462  0.0575  0.4030
33683W        W47097  13.112  10.778   1.670 -0.4704  0.0591  0.1331
33684W        W47098   2.715  16.341   3.084  0.0901 -0.0175  0.0492
33685W        W47099  11.261   5.512   1.488  0.0295 -0.0440 -0.1287
33686W        W47100   4.943  14.862  12.993  0.0497 -0.0351  0.0211
33687W        W47101   8.559   8.887   0.084  0.1068 -0.2867 -0.1343
33688W        W47102   3.879  14.109   4.298 -0.2229 -0.0979 -0.2300
33689W        W47103   0.225  12.756   1.084  0.1800 -0.0464  0.1579
33690W        W47104   2.101  12.356  12.859  0.2649  0.1170  0.1056
33691W        W47105   5.166   0.385  11.052  0.1239 -0.3815 -0.1981
33692W        W47106   9.630   0.919  10.232 -0.3053 -0.0176  0.2045
33693W        W47107  16.971   6.614  16.422 -0.1385 -0.2232 -0.1315
33694W        W47108   0.406   9.299   4.315  0.0011 -0.1711  0.1754
33695W        W47109  16.778  12.441  16.407  0.3625  0.0356 -0.2176
33696W        W47110  15.693   4.887   1.143  0.1546 -0.0461 -0.0550
33697W        W47111  11.476   6.001   2.021 -0.1735  0.0515 -0.1163
33698W        W47112   5.564   1.050  14.787 -0.1867  0.3663 -0.0375
33699W        W47113   4.623   1.401  10.907 -0.0419 -0.0271 -0.1709
33700W        W47114  14.124  13.357  13.730 -0.1607  0.1065  0.2124
33701W        W47115   6.300  17.511   5.129 -0.2396  0.0444 -0.2728
33702W        W47116  11.999   2.832  11.293 -0.0483 -0.1449 -0.0704
33703W        W47117   2.835   5.263  15.705 -0.0017 -0.0059 -0.0497
33704W        W47118   8.275  14.921   4.710 -0.2784  0.1717  0.0107
33705W        W47119  11.029  13.367   6.237 -0.0420  0.1754 -0.3290
33706W        W47120  13.465   3.960   0.060  0.2420  0.2651 -0.0016
33707W        W47121  17.297   8.686  12.788  0.0647  0.0364 -0.2999
33708W        W47122   8.267  14.116   9.997 -0.3579  0.2617 -0.0098
33709W        W47123  16.475   3.081   0.749 -0.0271 -0.0108  0.0210
33710W        W47124  13.938   6.779  15.427 -0.2198  0.0559 -0.1851
33711W        W47125   8.465   2.039  11.627  0.1275  0.2712 -0.1687
33712W        W47126   8.628  13.605  13.752  0.1945 -0.1593  0.2979
33713W        W47127   9.978   9.632   5.394 -0.0958  0.1547 -0.0515
33714W        W47128   5.658   3.307  11.004  0.0860  0.2629 -0.3036
33715W        W47129   8.306   1.478   4.971  0.1092 -0.0428  0.0264
33716W        W47130   8.370  17.000   3.954  0.0030  0.0622 -0.0343
33717W        W47131  14.730  13.015   0.603 -0.3879  0.3570 -0.0410
33718W        W47132   9.243  16.121  15.246 -0.0603 -0.1878 -0.0479
33719W        W47133   1.700  17.394   4.467  0.0927 -0.3807 -0.2033
33720W        W47134  17.422   5.685   2.815  0.0780 -0.1598  0.0234
33721W        W47135  14.617  14.368   0.641  0.2668  0.0029  0.1606
33722W        W47136   7.441   2.341   1.373  0.1745  0.1813 -0.2938
33723W        W47137   2.876   1.158   2.446  0.0121  0.0162  0.2684
33724W        W47138  10.680  11.187   3.501 -0.0555 -0.0524 -0.0141
33725W        W47139   2.403   1.707  14.295  0.0504 -0.3322 -0.0354
33726W        W47140  15.790  15.477  14.694  0.2643  0.0446 -0.0485
33727W        W47141  15.878   5.788  11.484  0.0275 -0.0969  0.0147
33728W        W47142   6.193   1.027  14.833 -0.3156  0.4156 -0.1282
33729W        W47143   8.557  10.166  10.637 -0.1015 -0.1192  0.2776
33730W        W47144   6.535   9.247   5.290  0.1121  0.0725  0.1861
33731W        W47145   4.456   0.709   3.316 -0.2355  0.0147  0.1518
33732W        W47146  15.504  15.524   0.856 -0.2022  0.1345  0.0440
33733W        W47147   1.001   3.203  15.544  0.2703  0.5215  0.1573
33734W        W47148  12.922   1.414  15.030  0.2468 -0.1802  0.3639
33735W        W47149   2.200   2.615  12.760  0.2453  0.0975  0.0887
33736W        W47150   7.942   6.989  10.661 -0.1533  0.2419 -0.0673
33737W        W47151   0.536   9.396  11.673  0.0526 -0.1244  0.1947
33738W        W47152  15.386   2.065   4.528  0.0873  0.1573 -0.2235
33739W        W47153  15.159  10.600   4.801 -0.2046 -0.2558  0.1514
33740W        W47154  13.046  17.755  13.614  0.0092  0.1446  0.1521
33741W        W47155   3.384   2.481  15.685 -0.1984  0.1406  0.1220
33742W        W47156  17.106   3.643  15.619  0.0377  0.0931  0.0079
33743W        W47157   2.347  10.581   5.679 -0.2226  0.0199  0.0296
33744W        W47158   4.412  12.000   3.622  0.1198  0.1302 -0.0348
33745W        W47159   9.758   7.351  15.726 -0.2827  0.0722 -0.2751
33746W        W47160  10.901  17.894   0.970  0.1995 -0.2480 -0.0477
33747W        W47161   6.895   0.375   1.140  0.1153  0.0241  0.1288
33748W        W47162  10.449   7.936   0.899  0.3424  0.1870 -0.0696
33749W        W47163  16.435   1.952   4.770  0.0424  0.2649  0.1956
33750W        W47164   5.608  14.410  12.401 -0.0034  0.1880 -0.0321
33751W        W47165   6.321  13.489   5.950  0.1662 -0.1292  0.0306
33752W        W47166  10.961   4.025   9.565 -0.0070  0.0941  0.0767
33753W        W47167   7.900   5.300   3.174 -0.1784  0.3734 -0.0145
33754W        W47168   3.679  11.760  13.104  0.0479 -0.0828  0.2710
33755W        W47169  11.657   7.682   5.791 -0.1293  0.5109  0.3022
33756W        W47170  12.379   1.695  12.975  0.1614 -0.1655 -0.1359
33757W        W47171   7.565   9.224  11.900  0.1054 -0.1995  0.0423
33758W        W47172  13.031  14.836  13.375  0.1781 -0.2051  0.1763
33759W        W47173   2.871   4.385  11.893 -0.1001 -0.4020 -0.1365
33760W        W47174  17.912  10.996   3.031  0.5631  0.0392 -0.1197
33761W        W47175  14.401  14.644   5.087  0.2303  0.0735 -0.0363
33762W        W47176  12.648   7.840  10.762  0.0207  0.2992  0.2578
33763W        W47177  13.781   9.325   0.578 -0.2132  0.0545 -0.0918
33764W        W47178  14.280  15.133   1.907 -0.0675  0.2646  0.1831
33765W        W47179  17.454  11.782  14.000 -0.3052 -0.1799  0.0633
33766W        W47180  12.388   5.186  11.528  0.3179  0.0976  0.1940
33767W        W47181   1.457  10.775  11.360 -0.1128 -0.0882  0.2428
33768W        W47182   9.390   4.826   4.168 -0.1521  0.0962 -0.2101
33769W        W47183   6.446  15.708   1.344  0.0879 -0.0617  0.1209
33770W        W47184   9.453  12.148   1.461  0.1504 -0.0076 -0.1678
33771W        W47185   5.621   8.035  12.832  0.2141  0.2269  0.0102
33772W        W47186  14.608   4.531  13.629  0.3123 -0.0482 -0.2266
33773W        W47187  14.321   0.664   3.507 -0.0744  0.2443 -0.3846
33774W        W47188  10.433   1.751  10.802  0.0273 -0.3966 -0.4007
33775W        W47189  12.878   2.733  13.370 -0.1885  0.1800  0.1145
33776W        W47190  16.191  11.248  14.581  0.0703 -0.1490 -0.1516
33777W        W47191  12.825  17.873   5.400 -0.1354  0.2422 -0.0604
33778W        W47192  11.964   8.483   0.016  0.0632  0.2008 -0.0739
33779W        W47193   5.753   7.452   2.507  0.0050 -0.1093 -0.1950
33780W        W47194   6.428   1.097   1.741  0.3004 -0.2111  0.0491
33781W        W47195   0.570  15.126  12.933 -0.4954  0.3046 -0.0536
33782W        W47196   6.212  13.583  14.770 -0.0956  0.0179 -0.0765
33783W        W47197  13.356   7.269  13.938 -0.0870 -0.0924  0.0749
33784W        W47198   3.439   1.239  13.934  0.0611 -0.0210  0.1582
33785W        W47199   8.512  16.950  15.234 -0.1586  0.0370 -0.1557
33786W        W47200  11.820   0.444   4.610 -0.3143  0.1435 -0.2681
33787W        W47201   5.679   7.692  13.211  0.2947  0.0425 -0.1199
33788W        W47202   2.024   3.131   2.278 -0.1819 -0.3403  0.0442
33789W        W47203  10.916  16.811  11.723 -0.1116  0.2485 -0.0015
33790W        W47204  11.729  15.387  13.896  0.1469  0.0333 -0.1398
33791W        W47205   1.717  13.234   6.084  0.0927  0.1104  0.1173
33792W        W47206   0.356   8.278  13.935 -0.1286  0.0620  0.0049
33793W        W47207  16.626   0.033  14.256  0.1391  0.0054 -0.0838
33794W        W47208   2.009  12.738  14.725  0.1337 -0.0346  0.0856
33795W        W47209   0.337  10.453  11.448  0.0749  0.1621 -0.1556
33796W        W47210   6.989  18.160   1.381 -0.0102  0.2366 -0.0354
33797W        W47211  16.393  13.269  12.276 -0.0471  0.0847  0.1099
33798W        W47212   0.833   0.401   5.352 -0.3228  0.1107  0.1391
33799W        W47213   0.732  14.406   3.940  0.1128  0.1047  0.3387
33800W        W47214   3.480  14.172   2.686 -0.0016 -0.1392  0.4085
33801W        W47215  10.574  15.269  11.842  0.0120  0.3391 -0.0594
33802W        W47216   1.599   2.071   1.973  0.1119  0.1516  0.0882
33803W        W47217  14.810   0.204   0.206 -0.1165  0.4543 -0.0159
33804W        W47218   2.717  15.415   5.373 -0.1957  0.2039  0.1139
33805W        W47219  17.540  11.974  13.337 -0.0390 -0.2182 -0.0589
33806W        W47220   6.113   8.036  15.201  0.0266  0.1965  0.0166
33807W        W47221   6.265  17.898  10.777 -0.2074  0.1759  0.1487
33808W        W47222   1.648  10.093   3.439 -0.1175  0.0380  0.0673
33809W        W47223   4.882  17.863   3.384  0.0474  0.1260  0.2758
33810W        W47224   6.397   7.181   1.237  0.0283 -0.0078  0.1588
33811W        W47225   5.339   9.421  13.607 -0.0249  0.1019  0.0111
33812W        W47226   4.755   3.868   4.232 -0.0263  0.0864  0.0566
33813W        W47227   6.876  13.568   5.736 -0.0777  0.0089  0.0043
33814W        W47228   9.375  17.791   4.237 -0.1331 -0.0124 -0.0817
33815W        W47229   4.736   9.360   3.361 -0.1224  0.2055 -0.2979
33816W        W47230   6.893  15.377  11.844  0.1191 -0.0017 -0.4019
33817W        W47231   3.470   2.984   3.247  0.5217  0.1392  0.1684
33818W        W47232  13.806   5.404   1.950  0.0567 -0.2460 -0.1170
33819W        W47233   1.900  11.483  11.221  0.2343 -0.0904 -0.2641
33820W        W47234  12.709   0.218   4.786 -0.0470  0.1537  0.0153
33821W        W47235   4.110   4.499  12.407  0.1367  0.1754 -0.1771
33822W        W47236   4.140  17.202   5.535 -0.1457  0.0857  0.1056
33823W        W47237   9.822   0.097   2.939 -0.4587  0.0755  0.0298
33824W        W47238   4.821   9.717  13.530 -0.1630 -0.0390  0.2858
33825W        W47239  14.279  15.665   3.714 -0.0834  0.2889 -0.0287
33826W        W47240  11.135  18.108   0.014  0.2278  0.1366 -0.0131
33827W        W47241  10.963   8.069  11.385  0.4029 -0.0511 -0.3211
33828W        W47242  10.561   5.992  13.727  0.3292 -0.1307  0.0105
33829W        W47243   2.193  10.225   2.104  0.2374  0.0748  0.1102
33830W        W47244  12.808   1.425  16.250 -0.1085  0.1188 -0.1045
33831W        W47245   4.628  16.766  13.423  0.0766  0.1140  0.1550
33832W        W47246  12.920   9.580  10.948 -0.1862 -0.1250 -0.0170
33833W        W47247  16.276   2.349   3.345 -0.5011 -0.0201  0.1376
33834W        W47248  13.677  10.253  13.021 -0.3907 -0.0839 -0.1766
33835W        W47249  11.256   3.948  11.514 -0.3563  0.0400  0.0615
33836W        W47250   8.879  16.709  14.905 -0.0670 -0.0496 -0.0671
33837W        W47251   1.963  10.520  14.654  0.4150 -0.0064  0.0389
33838W        W47252   0.650  11.898  14.039  0.1532 -0.2279  0.3532
33839W        W47253   3.119   2.478  12.561 -0.3235  0.2033  0.2629
33840W        W47254   3.759  16.275   5.617  0.0168  0.0736  0.0224
33841W        W47255  10.801  10.870   5.282  0.2075 -0.3267  0.0782
33842W        W47256   7.932   4.380  15.002 -0.0270 -0.0092 -0.0628
33843W        W47257   1.789  16.244  14.565 -0.2069  0.0467  0.0340
33844W        W47258   8.733   6.545  13.490  0.0681 -0.6306 -0.0994
33845W        W47259  13.708   0.012  14.366 -0.0603 -0.4116  0.0977
33846W        W47260   8.665   2.511  13.236  0.3122 -0.1087 -0.1099
33847W        W47261   7.699  15.644  15.359  0.1291 -0.3053 -0.3374
33848W        W47262   4.849  18.249  12.830  0.1402 -0.1432 -0.0118
33849W        W47263   1.972  10.461   3.894  0.4369  0.3633  0.0398
33850W        W47264   8.269   2.303  14.987 -0.1401 -0.3440 -0.2155
33851W        W47265   7.414   3.499   2.719 -0.1715 -0.0729 -0.2133
33852W        W47266  14.605   9.831   5.370  0.3664 -0.0103  0.0135
33853W        W47267  13.593   0.554  14.459 -0.0962  0.0638 -0.0126
33854W        W47268   5.300  14.084  12.710 -0.0390 -0.2361  0.1985
33855W        W47269   5.812   4.407  14.483 -0.1085  0.1769 -0.0993
33856W        W47270  11.691   0.730  15.341 -0.0057 -0.4964  0.1332
33857W        W47271  13.711   2.425   5.169 -0.1385  0.0327 -0.2159
33858W        W47272   5.690  17.186   1.882 -0.3211 -0.0239 -0.2658
33859W        W47273   8.841  16.208  14.492 -0.2257 -0.0311 -0.1202
33860W        W47274  17.292   2.237   0.986 -0.1948 -0.0729 -0.0279
33861W        W47275  17.056   4.470  15.429 -0.4049  0.4214  0.1401
33862W        W47276  10.314  10.107   5.744 -0.0528 -0.0720  0.1520
33863W        W47277  17.211   4.172  15.814 -0.0799  0.0875 -0.3376
33864W        W47278   2.362  14.137  13.593 -0.0463 -0.1939  0.1879
33865W        W47279   3.405   7.231  12.503 -0.3202  0.2744 -0.2626
33866W        W47280  14.861   5.649  14.493 -0.1466  0.3243  0.0229
33867W        W47281  11.866  16.264  11.434  0.0194  0.1918 -0.0289
33868W        W47282   6.429  11.041   6.216 -0.0559 -0.0909 -0.0338
33869W        W47283  14.921   0.512  16.301 -0.3387 -0.0573  0.1824
33870W        W47284  11.705   9.495  14.393  0.1272 -0.0437 -0.1713
33871W        W47285   9.122  17.273   0.219  0.1915  0.4938  0.0533
33872W        W47286   7.918  17.892   2.364  0.3712 -0.0851 -0.1215
33873W        W47287  17.951  16.872  13.642 -0.4697  0.1643 -0.1091
33874W        W47288   9.399  11.314   3.747  0.0389  0.1316 -0.0321
33875W        W47289   9.933   4.061  15.338 -0.0971  0.0709  0.1387
33876W        W47290   7.506   1.352   5.707  0.2144  0.1634  0.2325
33877W        W47291  17.874  16.638  16.178  0.0150 -0.0921 -0.1519
33878W        W47292  10.539   1.698  14.456 -0.2655  0.2967  0.0035
33879W        W47293  16.375  15.913  15.868  0.2453 -0.0697  0.2572
33880W        W47294   9.675  10.009  15.649  0.1621 -0.0019  0.0797
33881W        W47295  17.719  13.246   2.255 -0.0147  0.3482 -0.3495
33882W        W47296   5.527   4.917   2.597 -0.0721 -0.0969 -0.3693
33883W        W47297   6.380  10.450   5.753  0.0041 -0.2667 -0.2045
33884W        W47298  14.726  16.787   0.659 -0.2320  0.4314  0.1329
33885W        W47299   0.667   1.682  11.014  0.1558 -0.2541 -0.0386
33886W        W47300  14.596   1.282   2.200 -0.1390  0.2482 -0.2809
33887W        W47301  17.242   5.082  10.805  0.1330 -0.2124 -0.1594
33888W        W47302  10.327  10.986   5.467  0.2484 -0.2694 -0.1815
33889W        W47303  16.964  16.722  11.834  0.0086 -0.2181  0.2507
33890W        W47304   8.682   3.270  14.103 -0.1414  0.0660 -0.0262
33891W        W47305   3.432  12.655  12.085 -0.1341 -0.3117 -0.3092
33892W        W47306   8.393  14.690   3.754  0.2403  0.4039  0.0025
33893W        W47307  11.378   5.260  12.678  0.3048  0.1635 -0.2394
33894W        W47308  15.659  13.606  11.917  0.1758  0.0082  0.3695
33895W        W47309   4.428  10.135  14.964 -0.0973 -0.0097  0.0113
33896W        W47310   3.397  16.053   3.778  0.0268 -0.0444  0.4044
33897W        W47311  14.387  13.550  16.350 -0.1060  0.0636  0.1064
33898W        W47312   8.074   8.288   5.137  0.1641 -0.0419  0.0049
33899W        W47313  17.342   0.060  16.026  0.1439 -0.2215 -0.3931
33900W        W47314  17.515  15.231   3.287  0.1342 -0.0657 -0.3057
33901W        W47315  14.465   6.667   1.161 -0.1782  0.0402  0.0611
33902W        W47316  17.935  12.970   5.262  0.2458 -0.1461 -0.0150
33903W        W47317   1.022  17.453   1.348 -0.0360  0.0021  0.1644
33904W        W47318   2.059  16.866   3.377  0.3269 -0.1789  0.0234
33905W        W47319  14.566  15.044  13.199 -0.0234  0.1186  0.1204
33906W        W47320  15.342  10.042   4.843 -0.3218  0.0909  0.0679
33907W        W47321   1.571  12.221   3.199 -0.2059 -0.1497  0.1033
33908W        W47322   6.974  12.476  14.488  0.1483  0.2988 -0.2878
33909W        W47323   6.230   1.147  15.880 -0.1453  0.1194  0.2100
33910W        W47324  12.531  10.569  13.891 -0.0164 -0.0503 -0.1007
33911W        W47325  14.816   5.597   5.287 -0.0500 -0.1404 -0.3903
33912W        W47326   1.498   5.518   5.220  0.0616 -0.0516 -0.0561
33913W        W47327  15.605  12.495   3.064 -0.0510 -0.0482  0.2647
33914W        W47328  15.978   3.364  12.451 -0.1945 -0.1720 -0.2162
33915W        W47329  13.422   3.850  12.058  0.0296  0.0517  0.3879
33916W        W47330   8.851  13.910  11.635  0.0290 -0.4495 -0.1283
33917W        W47331  13.802   4.225  15.297 -0.1090 -0.0375  0.2023
33918W        W47332  16.472  17.932  12.048  0.1314 -0.1273  0.0110
33919W        W47333   4.819  15.781  15.795 -0.1457  0.0324  0.1981
33920W        W47334   3.475   3.893   4.464  0.1088 -0.5886 -0.0625
33921W        W47335  11.425  16.421  12.693  0.0135 -0.0044  0.0884
33922W        W47336   6.215   5.858  11.923  0.0043 -0.1931 -0.0628
33923W        W47337  10.707  13.764  14.473  0.0591  0.0500  0.1785
33924W        W47338   9.584  10.748  14.134 -0.0574 -0.1053 -0.1740
33925W        W47339   6.039  14.635  12.538 -0.0028 -0.0018 -0.2463
33926W        W47340  10.256   8.721  11.502  0.1778  0.2160  0.0195
33927W        W47341   2.361   4.268   0.036  0.0289  0.0378  0.1035
33928W        W47342  16.853   4.719   5.487 -0.1617 -0.0169 -0.1974
33929W        W47343  14.711   2.633  11.611  0.0730 -0.1332  0.0725
33930W        W47344  14.479  14.180  13.521  0.0608 -0.0636 -0.2367
33931W        W47345  15.058   5.298  10.828  0.0019 -0.1295 -0.1204
33932W        W47346  10.640  11.568   1.496  0.0038 -0.1135 -0.0298
33933W        W47347   7.166  14.331   4.890 -0.3203 -0.1432  0.0946
33934W        W47348   8.728  10.929  12.702 -0.0091  0.0590  0.0909
33935W        W47349   0.768   1.738   1.551  0.1496 -0.0660 -0.2308
33936W        W47350  13.784  12.454   4.316  0.0861  0.0851  0.1697
33937W        W47351  14.492  14.787  12.288 -0.2622  0.0176 -0.1186
33938W        W47352   4.810  11.937  11.421  0.2716 -0.2052 -0.0012
33939W        W47353   6.149   5.167  15.266 -0.2074 -0.1268 -0.3250
33940W        W47354   5.401  14.856  12.009  0.1158  0.0518  0.1551
33941W        W47355   2.727  15.207   2.433  0.1233  0.0218  0.1829
33942W        W47356   6.571  16.098   0.229  0.0540 -0.1169 -0.2884
33943W        W47357   5.127  15.164   2.170 -0.1038  0.1432 -0.2543
33944W        W47358  13.300   4.748  12.684 -0.1800  0.1087 -0.2024
33945W        W47359   4.714   6.373  11.232  0.0593 -0.0326  0.1588
33946W        W47360   0.999  17.702  16.467  0.1338  0.2004  0.0683
33947W        W47361  18.214  10.142   2.230  0.0772 -0.0341 -0.2197
33948W        W47362   0.511  11.468  16.423 -0.1576  0.4421 -0.3387
33949W        W47363   6.809   4.844   4.424 -0.0663  0.0272  0.2495
33950W        W47364   2.832  10.849  12.015  0.0405  0.0845 -0.1114
33951W        W47365  17.358   8.564   4.802 -0.0721  0.1531  0.1627
33952W        W47366  14.264   8.998  13.351 -0.2221 -0.2555 -0.0407
33953W        W47367   8.833   2.195   2.949 -0.0068 -0.0670  0.3042
33954W        W47368  13.999   3.666   3.204  0.3305 -0.1298 -0.0137
33955W        W47369  13.668  13.480   3.877  0.2964 -0.1980  0.0247
33956W        W47370  18.110   2.985  12.667  0.2526 -0.3552  0.0965
33957W        W47371  13.841   2.212   3.217 -0.2807 -0.2570 -0.0936
33958W        W47372  16.167   3.632   0.230  0.0891  0.1462 -0.1849
33959W        W47373   7.022   8.483   2.871 -0.1181 -0.0962 -0.1213
33960W        W47374  16.534   4.169  12.241 -0.1009 -0.2522  0.0554
33961W        W47375  13.505   6.949  10.726  0.2633  0.2167 -0.1618
33962W        W47376  17.311  12.611  16.144 -0.1093 -0.1582  0.0202
33963W        W47377   2.137   9.694   3.457 -0.2807 -0.1007 -0.1353
33964W        W47378   7.812  11.331  12.865  0.2289  0.1838  0.0612
33965W        W47379   2.662   0.328   1.534  0.0094 -0.2212 -0.1440
33966W        W47380   4.960   0.189   3.021  0.1504 -0.0926  0.0349
33967W        W47381   3.559   0.640  12.290 -0.0146  0.1672  0.1069
33968W        W47382   4.241  15.138  13.555  0.0008 -0.0367 -0.0265
33969W        W47383  10.000   0.132  15.164  0.0358 -0.1450 -0.0960
33970W        W47384   3.878  14.398   5.565 -0.0974 -0.1127 -0.1245
33971W        W47385   8.530   4.372   4.078  0.1121  0.1609 -0.0525
33972W        W47386  17.515   5.535   0.428  0.1119 -0.2034  0.2977
33973W        W47387   9.407   7.487  11.759  0.0364  0.0992  0.0987
33974W        W47388  15.765   6.315  11.422  0.0779  0.1677  0.3000
33975W        W47389  12.248   4.097  15.595 -0.1868  0.2079  0.1969
33976W        W47390  17.293   0.777   2.008  0.1611 -0.0731 -0.0534
33977W        W47391  12.497   9.603  16.214  0.1109  0.1224 -0.1113
33978W        W47392   1.863  13.697   0.820 -0.0272  0.1384  0.0029
33979W        W47393   5.095  15.672   2.079 -0.3140  0.2486  0.0709
33980W        W47394  14.779   7.906   1.062 -0.0225 -0.1957  0.1608
33981W        W47395   4.629  14.669  13.298  0.0589  0.0807  0.3840
33982W        W47396   4.115  10.393   0.462  0.1157 -0.0353 -0.0536
33983W        W47397   0.146   9.682   2.553 -0.0425 -0.0188 -0.2498
33984W        W47398  12.687  13.830  13.548 -0.4209  0.0056 -0.0126
33985W        W47399   8.090  15.518   5.030 -0.2581  0.1564 -0.1606
33986W        W47400   0.317   1.718  13.885  0.3569 -0.1344  0.1316
33987W        W47401   3.848   4.726   4.675  0.0977  0.1482 -0.0930
33988W        W47402  15.282   8.986  14.083  0.2249  0.3387 -0.0802
33989W        W47403   9.961   5.302   0.101  0.1091  0.1683 -0.0572
33990W        W47404   5.187  17.202   3.109 -0.2556  0.0603  0.0262
33991W        W47405  11.303   2.561  11.714 -0.1360  0.0733 -0.3246
33992W        W47406   6.954  15.193   0.862 -0.1630 -0.0022  0.1036
33993W        W47407   7.445   9.441  14.395 -0.0986  0.0548  0.0938
33994W        W47408   1.889   1.980   6.481  0.1538 -0.0361  0.2898
33995W        W47409  10.280   1.215   2.463 -0.1378 -0.0341 -0.2210
33996W        W47410  18.051  10.591  11.484  0.1461  0.3145  0.0204
33997W        W47411  11.417   2.934   0.919 -0.0416  0.0647  0.1419
33998W        W47412   8.135   2.952  16.038 -0.0137 -0.1769 -0.0812
33999W        W47413   8.369  13.686  15.674  0.0386 -0.3055  0.1549
34000W        W47414  10.244   6.452  13.165  0.0358 -0.1683 -0.0075
34001W        W47415  14.603  13.986  16.253 -0.2249  0.1317  0.0769
34002W        W47416   3.786   0.610   0.047  0.1648 -0.0123  0.2031
34003W        W47417   0.098   7.255   4.333  0.2240 -0.0980  0.0412
34004W        W47418   2.995  14.209   4.175 -0.0929 -0.0053  0.3985
34005W        W47419   4.488   3.244   0.265  0.0075 -0.0840 -0.0505
34006W        W47420   1.276   6.501   2.273 -0.1139 -0.1572 -0.0729
34007W        W47421   3.347  17.419  14.237 -0.3191 -0.0642  0.0515
34008W        W47422   5.236   7.615  10.256  0.1878 -0.0662 -0.1030
34009W        W47423   5.752   4.568  13.160 -0.1319 -0.0948 -0.0178
34010W        W47424  12.763  16.576  16.331 -0.0993 -0.3973 -0.0575
34011W        W47425   3.973  17.231  14.371  0.1589  0.0410 -0.2625
34012W        W47426  16.512   7.333   2.855  0.2685 -0.1896 -0.1231
34013W        W47427   4.666   9.931   0.782 -0.2203 -0.0653  0.0968
34014W        W47428  14.211  13.317  15.868 -0.0803  0.0718  0.1704
34015W        W47429  13.152   3.485   0.765 -0.0708  0.1204 -0.2009
34016W        W47430   8.522   2.236   0.019 -0.2731 -0.4505 -0.2493
34017W        W47431  17.829  12.573  14.122  0.1454  0.0070 -0.1812
34018W        W47432  18.057   3.513  16.025  0.1008 -0.1531  0.0759
34019W        W47433  10.689  17.259   9.667 -0.1180  0.0579  0.1135
34020W        W47434  11.162  12.245  12.463 -0.0881 -0.1396 -0.2770
34021W        W47435  15.455   1.489   3.912 -0.1307  0.0822  0.1394
34022W        W47436  18.025   8.311  15.922 -0.0096  0.0070  0.0800
34023W        W47437  17.136   5.400  13.292  0.3905  0.2927 -0.1521
34024W        W47438   7.834  11.480  14.245 -0.2060  0.1430  0.0015
34025W        W47439  14.367  15.616   6.611  0.1850  0.2614 -0.1295
34026W        W47440  14.211   9.081   5.798 -0.0419  0.3106 -0.2799
34027W        W47441   2.718   9.189  10.881  0.1738  0.0036 -0.1271
34028W        W47442  14.763  12.094  12.788 -0.2170  0.0474  0.1655
34029W        W47443  16.790  16.323   0.428  0.1148  0.0822 -0.2119
34030W        W47444  15.030   1.894  12.709 -0.0969 -0.0769 -0.0057
34031W        W47445   1.809   4.578   3.933 -0.0172 -0.1621  0.3763
34032W        W47446  12.540  16.715   3.699 -0.1531 -0.0805  0.1091
34033W        W47447  16.415  11.783  13.060 -0.0250  0.1359  0.1714
34034W        W47448  16.809   5.331  12.362  0.0352 -0.0201  0.1181
34035W        W47449  14.154   3.936  15.466 -0.1863 -0.2162  0.0760
34036W        W47450  13.811   1.652  12.988 -0.0407 -0.0423  0.3030
34037W        W47451  10.979  14.203  13.583 -0.1249  0.0314 -0.0501
34038W        W47452   5.843  14.862   1.753  0.0906 -0.2624  0.2026
34039W        W47453  18.115  15.919  15.107 -0.0756  0.0183  0.1664
34040W        W47454  10.465   8.160   4.286 -0.2474  0.1236 -0.0617
34041W        W47455   0.199   4.943   0.580 -0.3347 -0.1423 -0.0564
34042W        W47456  10.508  10.950   1.676  0.1323 -0.2138  0.0170
34043W        W47457   5.424  17.315   0.365  0.1929  0.2660  0.1019
34044W        W47458   3.088  14.090   2.971 -0.0576 -0.1086  0.3788
34045W        W47459  17.148  10.690   5.485 -0.2158  0.2061  0.0641
34046W        W47460  10.294   7.126   3.490  0.2401  0.0042 -0.2338
34047W        W47461   8.074  17.608   1.248  0.1640 -0.1396 -0.0182
34048W        W47462   0.553   4.715   1.249  0.3528 -0.0927 -0.2288
34049W        W47463   3.029   0.163   5.165 -0.1782 -0.1239  0.0390
34050W        W47464  10.529   0.438  12.787  0.0038 -0.0050 -0.0396
34051W        W47465  16.971  13.542  13.948  0.1633  0.1049 -0.3087
34052W        W47466  13.493   8.584  12.139 -0.2521 -0.0074 -0.3162
34053W        W47467  13.527  11.631   4.350  0.0603  0.0706  0.0338
34054W        W47468   2.089   3.737  12.958 -0.2445  0.1546 -0.2111
34055W        W47469  11.780  16.026   2.708  0.1105  0.2082 -0.1598
34056W        W47470   0.444  17.254   0.589 -0.1299 -0.0579 -0.1584
34057W        W47471   6.025  10.252   1.753 -0.1104  0.1093 -0.0512
34058W        W47472  12.216   0.213   1.937  0.1327 -0.1457 -0.1979
34059W        W47473   9.339  16.639  12.368 -0.0600  0.1096 -0.2961
34060W        W47474  13.647   0.923  10.604  0.2139  0.0448  0.2220
34061W        W47475   1.792  14.996  14.877 -0.3064  0.0917 -0.0057
34062W        W47476  16.948   6.511  14.597 -0.0163 -0.0457 -0.0773
34063W        W47477  17.475  10.506  11.654 -0.0344 -0.2487  0.3099
34064W        W47478  10.996  17.803  11.663  0.0757  0.0392  0.0328
34065W        W47479   6.133  10.054  14.884 -0.0451  0.1895  0.3046
34066W        W47480   6.072   4.260  12.946  0.1103 -0.1747 -0.3601
34067W        W47481   4.157  14.297  15.196 -0.0541  0.1881 -0.1152
34068W        W47482   8.034   3.397   4.893  0.1027  0.0537  0.1712
34069W        W47483  15.319  17.295   5.732 -0.0940  0.0953  0.0642
34070W        W47484  17.185   9.720  16.034 -0.0295 -0.0021 -0.2848
34071W        W47485  16.942   8.194  15.949 -0.0795 -0.2147 -0.2129
34072W        W47486   4.568   8.278  11.851  0.1264  0.4262 -0.0234
34073W        W47487   7.546  17.971  14.589 -0.1486  0.2249  0.2424
34074W        W47488   4.323  10.144   3.871  0.0802 -0.1866 -0.0036
34075W        W47489  11.165   2.831   4.026 -0.0001 -0.1561 -0.2351
34076W        W47490   6.487  14.500  12.018  0.1199 -0.1134 -0.0457
34077W        W47491  14.336   9.792  10.688  0.0880 -0.1065  0.3780
34078W        W47492   8.873  15.331   3.032 -0.1664  0.1839 -0.0445
34079W        W47493   6.689   6.020   5.629  0.0629  0.0317 -0.4432
34080W        W47494  17.552  11.757  16.265  0.3745 -0.0066  0.0646
34081W        W47495   5.401   7.695   2.740 -0.0643 -0.0822 -0.2363
34082W        W47496   4.465  16.043   0.125 -0.0423 -0.2825 -0.2352
34083W        W47497   8.658   4.405   4.545  0.0873 -0.0132 -0.2017
34084W        W47498   8.945  12.192   4.877  0.0523  0.0889 -0.1328
34085W        W47499   4.965   0.397  13.230 -0.1893  0.2954  0.1335
34086W        W47500  11.979   0.348  11.269 -0.2639 -0.1738  0.1933
34087W        W47501   8.012   9.014  15.053 -0.0552 -0.1698  0.0815
34088W        W47502   3.832  16.316  14.952 -0.1528  0.2902  0.3072
34089W        W47503   5.740  17.521  16.268 -0.3829  0.0342 -0.0045
34090W        W47504   6.396  13.223   4.486  0.1612  0.0971  0.0229
34091W        W47505   0.310   5.179   1.073 -0.2055  0.1127  0.0367
34092W        W47506  16.149   0.400   3.891 -0.3023 -0.3074 -0.1377
34093W        W47507  14.522   1.518   6.204  0.2340 -0.2400 -0.0478
34094W        W47508  10.076  13.373   9.837 -0.2234  0.0970  0.1892
34095W        W47509   0.342   9.732  14.367 -0.3690  0.2390 -0.2348
34096W        W47510   2.252   2.712   2.444  0.1314 -0.0069 -0.0550
34097W        W47511   2.647   0.550   5.194  0.0115 -0.1390  0.1140
34098W        W47512   2.062  17.022  13.047 -0.1999 -0.2324 -0.0271
34099W        W47513   9.116   6.130  15.818  0.0689 -0.2998 -0.0492
34100W        W47514  15.809  13.459   2.090 -0.0794  0.1059 -0.0359
34101W        W47515   5.406   8.455  14.151 -0.0485 -0.0682 -0.2136
34102W        W47516   7.441  17.117  15.572 -0.0814  0.4344 -0.0883
34103W        W47517  10.946  15.390  12.157 -0.2401 -0.2211 -0.3705
34104W        W47518   9.343  10.558   2.145 -0.3161  0.1206  0.0326
34105W        W47519   4.234   1.957  14.317  0.1669 -0.0001  0.2156
34106W        W47520  11.700   3.925   2.668 -0.0922 -0.1434 -0.0130
34107W        W47521   8.467   5.485  11.602 -0.0568 -0.0225 -0.2001
34108W        W47522  14.239   3.414   5.478  0.1152  0.2442 -0.2147
34109W        W47523  17.470  13.319  13.787  0.0776  0.0869 -0.0557
34110W        W47524   8.086  12.905  12.543 -0.0183 -0.1540  0.2526
34111W        W47525  17.666   1.519  15.069  0.0069  0.0923 -0.1973
34112W        W47526   3.262   8.300   0.374  0.1020 -0.0360  0.0778
34113W        W47527   1.954   1.421   6.112  0.0453 -0.1340 -0.0956
34114W        W47528   8.691  17.320  10.740  0.1634  0.2996  0.1196
34115W        W47529   0.499   3.344   5.512  0.2918  0.1949 -0.1098
34116W        W47530   9.646   8.160  15.453 -0.0302 -0.1130  0.0564
34117W        W47531   6.843   7.513   0.690 -0.1703 -0.0576  0.0692
34118W        W47532  13.779  17.465   2.998 -0.1907 -0.0092 -0.0285
34119W        W47533  12.374   0.035   3.390  0.1646  0.1539 -0.1288
34120W        W47534  17.446   8.298   2.485  0.0149  0.1792  0.0933
34121W        W47535  11.634   9.130   4.468  0.1648  0.0332  0.3398
34122W        W47536   4.260   8.427  13.103  0.0878 -0.0253  0.1559
34123W        W47537  15.124   1.765   3.171  0.1991 -0.1515 -0.0073
34124W        W47538  14.442   0.852   4.650 -0.1343 -0.1857 -0.2086
34125W        W47539   9.723   8.624  13.543 -0.1453  0.0130  0.1717
34126W        W47540  13.679  14.164   5.147  0.1586  0.0973 -0.0292
34127W        W47541   6.110  17.357  10.102  0.3158 -0.3478 -0.2700
34128W        W47542   6.492  15.628  16.456 -0.0246  0.1049 -0.2003
34129W        W47543   1.182   7.520  15.431 -0.0913 -0.2224 -0.3037
34130W        W47544  10.341   1.913   5.619 -0.2448 -0.0295 -0.1953
34131W        W47545   7.027  17.108   4.919 -0.3442  0.0253  0.0271
34132W        W47546   7.022   4.527  10.334 -0.0876 -0.1936  0.0740
34133W        W47547   5.939   3.810  13.022  0.0654 -0.1916  0.2268
34134W        W47548  12.599   4.251  14.417 -0.0151 -0.0684  0.0780
34135W        W47549  16.397  12.437  12.545  0.2871 -0.0469  0.2016
34136W        W47550  11.764  10.931  14.709  0.3148 -0.0156 -0.0660
34137W        W47551   1.842   4.349  13.916 -0.2745  0.0567 -0.1758
34138W        W47552   4.522   7.579  14.487  0.4597  0.1521 -0.2862
34139W        W47553  14.333   5.211  15.703 -0.0215  0.1739  0.0982
34140W        W47554  15.359  11.401  13.234 -0.0384 -0.0983 -0.0314
34141W        W47555   6.079  17.775   0.031 -0.3720 -0.1980 -0.2078
34142W        W47556   2.836  13.495   4.707  0.0991 -0.1466  0.1864
34143W        W47557   5.335   9.985  13.471  0.1404 -0.1780  0.1997
34144W        W47558  14.349   4.765  11.997  0.1436  0.0029 -0.0168
34145W        W47559  10.802   6.971   0.696  0.0676 -0.0682  0.0822
34146W        W47560   3.538   5.297   1.285  0.3003 -0.1351  0.1248
34147W        W47561  10.040   6.055  13.853 -0.1607  0.0329 -0.1541
34148W        W47562   8.574   4.837   4.805  0.1581 -0.0415 -0.1419
34149W        W47563   8.488  11.409   1.781 -0.1090 -0.0759  0.1581
34150W        W47564   1.851   8.510   5.096 -0.0797 -0.2936 -0.1788
34151W        W47565   1.210   1.581  10.260  0.0976 -0.1695  0.0843
34152W        W47566   2.114  14.097   3.099 -0.1283 -0.1877 -0.3674
34153W        W47567   4.596   8.846  13.150  0.1923 -0.3467  0.0417
34154W        W47568  17.782   5.841  11.967  0.0543 -0.1572  0.0477
34155W        W47569   8.020  10.731  11.035  0.0194  0.3862  0.1302
34156W        W47570   9.506  12.657   1.561 -0.0459  0.1973  0.2698
34157W        W47571   3.347   1.827   2.906  0.0103  0.0662  0.0417
34158W        W47572  18.029   8.308  13.804 -0.2016 -0.0765 -0.2355
34159W        W47573   9.280   6.298   5.114 -0.1675  0.0649  0.4001
34160W        W47574  16.594   7.218   1.951  0.0180  0.0814 -0.1236
34161W        W47575   5.158  15.686  15.440  0.0213 -0.0118  0.3356
34162W        W47576   4.944   4.574  14.783  0.4847  0.1294 -0.2051
34163W        W47577   5.975  15.841  11.168  0.0618 -0.0726  0.0076
34164W        W47578  11.141  12.279   1.139  0.2330  0.2405  0.0283
34165W        W47579  11.599  13.603   3.183  0.2104  0.0757 -0.0430
34166W        W47580   3.817  10.181   4.897 -0.0953  0.0426 -0.3690
34167W        W47581  12.066   6.091  14.595 -0.1630  0.1986  0.0987
34168W        W47582  10.818   0.571   0.028  0.1367  0.0909  0.1128
34169W        W47583  11.038   7.410  14.421 -0.1831 -0.2319  0.4061
34170W        W47584   1.207  12.117   4.553 -0.0169 -0.3082 -0.1905
34171W        W47585  11.743   8.486  12.663  0.0724  0.0610  0.1702
34172W        W47586   2.960  10.400  11.153  0.0582 -0.4978  0.1019
34173W        W47587  13.738  17.430   1.802 -0.1658 -0.0116  0.0738
34174W        W47588  15.417   4.610  15.816 -0.4849 -0.2345 -0.2890
34175W        W47589  13.302   2.585  14.927 -0.0231  0.0224  0.0745
34176W        W47590   0.810  12.422  16.032  0.1056 -0.0951 -0.0556
34177W        W47591   3.556   4.578   5.232 -0.2203 -0.1952 -0.3054
34178W        W47592   4.778  11.857   1.860  0.2492  0.0263 -0.0638
34179W        W47593   1.562   9.173   2.668  0.2640 -0.4148 -0.1695
34180W        W47594   1.092   1.154   3.299  0.3058 -0.2039 -0.1680
34181W        W47595  10.160   9.660  13.504  0.3389 -0.1606  0.1343
34182W        W47596  11.584   6.988   4.766  0.1794  0.1581  0.0168
34183W        W47597   5.093  12.732  14.971 -0.0209  0.1181 -0.4619
34184W        W47598  13.464  12.727   5.071  0.2325 -0.1230 -0.2651
34185W        W47599  17.758  16.625  12.157  0.0481  0.1499  0.1713
34186W        W47600   8.462  11.422  11.363  0.4998 -0.2123  0.2498
34187W        W47601   8.849   9.828   1.761 -0.1859 -0.1397  0.0200
34188W        W47602   4.544  11.516   2.188 -0.1014 -0.1612  0.0994
34189W        W47603  15.912  12.974   5.582  0.1639 -0.1700  0.2590
34190W        W47604  14.866  14.450   5.859  0.0150  0.1554 -0.3067
34191W        W47605   0.461   8.877   6.053  0.2704  0.0739 -0.1481
34192W        W47606   3.667   4.613  12.129 -0.1553  0.0153 -0.2304
34193W        W47607  10.176  13.401  10.367 -0.1422  0.0915  0.1736
34194W        W47608  14.387  12.612   6.080 -0.0646 -0.1214 -0.0534
34195W        W47609  14.755   8.928  14.051  0.0681 -0.2088  0.3048
34196W        W47610   5.957   6.806   1.802  0.1511 -0.0178 -0.0876
34197W        W47611   4.542   4.330  12.596  0.2818  0.1703  0.1174
34198W        W47612   1.740  13.469  15.625 -0.0356  0.0914  0.2633
34199W        W47613   0.078   7.941   2.102 -0.0635  0.1392  0.0187
34200W        W47614  17.661   1.149  13.763  0.2630 -0.1298  0.4453
34201W        W47615   8.647   0.136  15.267 -0.0701  0.0355 -0.2655
34202W        W47616  17.567  12.321  13.746 -0.1092 -0.4109 -0.0003
34203W        W47617  11.502  17.630   4.703 -0.0418  0.1886 -0.0512
34204W        W47618  18.229   4.341  13.917  0.1356 -0.0202 -0.1635
34205W        W47619  16.121  15.517   5.075 -0.3312 -0.1454  0.1619
34206W        W47620  15.987   1.278  16.224 -0.0448 -0.1965 -0.0568
34207W        W47621  13.347   7.521   9.893 -0.2654  0.0250 -0.1283
34208W        W47622   9.419  18.067   0.735  0.0642  0.0242 -0.3352
34209W        W47623  12.809  12.198  15.227  0.1971  0.0126 -0.0918
34210W        W47624   3.828  16.874   2.824 -0.1324 -0.1801  0.1213
34211W        W47625  17.877  13.946   2.109 -0.1312 -0.4945  0.0375
34212W        W47626  17.975   6.066  13.236  0.2222  0.4215 -0.0667
34213W        W47627   7.356   1.715  11.246  0.1720  0.0162  0.0426
34214W        W47628   6.969   3.326  11.234 -0.0554 -0.0135  0.3616
34215W        W47629   1.538  17.080   6.294 -0.0287  0.0182 -0.0089
34216W        W47630   1.279   1.094  11.347 -0.0916 -0.0430 -0.2170
34217W        W47631  11.116   2.778   2.454 -0.3910  0.4539 -0.1936
34218W        W47632   8.501  16.507   0.691 -0.2330  0.2584  0.2350
34219W        W47633   5.363   7.627  14.940 -0.1927  0.0214 -0.0415
34220W        W47634  16.476  11.433  15.012 -0.0269  0.1870  0.2890
34221W        W47635   0.890   1.408  14.767 -0.2729  0.3473  0.1822
34222W        W47636  14.943  11.659  15.448  0.1234 -0.0949 -0.1203
34223W        W47637   6.810  17.985   5.404 -0.0603  0.3068 -0.2052
34224W        W47638   4.614   6.804   2.327 -0.1291  0.2711 -0.0831
34225W        W47639   4.149  14.199  15.734  0.0469  0.1172 -0.1094
34226W        W47640  16.687   4.141   3.499 -0.5319  0.0721 -0.1918
34227W        W47641  14.976   5.989   3.862 -0.1760 -0.1045 -0.0402
34228W        W47642  10.670  13.875   0.596  0.0833 -0.0766  0.0323
34229W        W47643   6.109  17.994  13.851  0.0541 -0.0238  0.0155
34230W        W47644  11.849   0.335  13.908  0.1599 -0.3209  0.2472
34231W        W47645   8.025   8.443  14.054 -0.1600  0.2369 -0.1917
34232W        W47646  13.001   9.034   2.211 -0.1902 -0.2492 -0.0743
34233W        W47647   5.028  16.917  14.225 -0.0494  0.2061  0.0777
34234W        W47648   7.913  10.461   4.259  0.2360  0.0350  0.1712
34235W        W47649  17.131  15.187  11.418 -0.1119  0.0100  0.1316
34236W        W47650   6.322  13.304  13.860 -0.0236 -0.1361 -0.1378
34237W        W47651   0.966   1.013   6.133 -0.2606 -0.0038  0.1375
34238W        W47652   4.157  16.653   5.553 -0.2768  0.0397 -0.4538
34239W        W47653   8.641   5.206  16.168 -0.3029  0.3389 -0.1863
34240W        W47654   6.573  16.782   0.804  0.2037  0.0016 -0.1048
34241W        W47655  11.177   6.499  13.209  0.1920  0.0712 -0.0796
34242W        W47656  12.232  10.886  12.160  0.1756  0.1344 -0.1584
34243W        W47657   9.273   6.895   4.914 -0.2128 -0.0187  0.0693
34244W        W47658  10.443   0.573  14.224 -0.4232  0.0818  0.1392
34245W        W47659  10.906  15.718  10.549  0.1704  0.1116  0.1405
34246W        W47660  16.123  12.891   1.023 -0.0450  0.0281 -0.0574
34247W        W47661   9.459  11.581   2.098 -0.3892 -0.1706 -0.0762
34248W        W47662   7.190  12.993   4.018  0.0924 -0.2095 -0.0081
34249W        W47663   3.644  15.228   6.162  0.0514 -0.0745  0.0584
34250W        W47664   9.345   8.417  16.467 -0.0141 -0.3711 -0.0636
34251W        W47665  17.730   7.352  12.396  0.0070 -0.2634  0.1765
34252W        W47666  10.829   8.710  12.554  0.1477 -0.0254 -0.1529
34253W        W47667   6.923   8.326   1.274 -0.0591  0.1605 -0.2009
34254W        W47668  11.382   8.627   5.194 -0.3226  0.1706  0.0793
34255W        W47669   2.573  18.210  15.050 -0.0209 -0.1025  0.2340
34256W        W47670   9.740   9.785   1.143 -0.0399  0.2077 -0.1339
34257W        W47671   8.388  12.307  15.315  0.0162 -0.1666 -0.0481
34258W        W47672   0.350   3.120   0.691 -0.2221  0.1409 -0.0443
34259W        W47673  16.959  12.269  15.936 -0.1473 -0.3268 -0.0299
34260W        W47674   7.856   6.037   6.294  0.3397 -0.0599 -0.2360
34261W        W47675   4.587   9.724   3.762 -0.1446 -0.0225 -0.1056
34262W        W47676   4.301   6.738   0.818 -0.0564  0.2306 -0.2182
34263W        W47677  12.684  15.423   0.775  0.3017 -0.1961 -0.1951
34264W        W47678  10.366   7.648  16.441  0.2922 -0.3306  0.0252
34265W        W47679   4.405   5.045  14.125  0.0727  0.0925  0.0524
34266W        W47680  13.918   6.115  14.446  0.1796  0.1442 -0.0159
34267W        W47681  10.883  10.312   4.461 -0.0411  0.3427  0.3905
34268W        W47682  10.346  10.955  12.800  0.2867 -0.0114  0.2645
34269W        W47683  16.330  11.003   0.257  0.1589 -0.0660 -0.0525
34270W        W47684   9.605  12.326  11.475  0.1072 -0.2322  0.0864
34271W        W47685   1.208   3.990  10.789  0.1070 -0.0797  0.1971
34272W        W47686  18.033  13.099   1.046 -0.0263  0.1511  0.1971
34273W        W47687   8.618   3.715   3.789 -0.2506 -0.1956 -0.1425
34274W        W47688  16.016  16.025   4.333  0.2991  0.0701  0.0063
34275W        W47689  17.237  12.057  15.448  0.4984 -0.2632 -0.2129
34276W        W47690  13.578   2.087  11.739 -0.0064  0.2698  0.1324
34277W        W47691   0.673   4.913  15.800 -0.4115  0.0840 -0.0012
34278W        W47692   7.651  15.722  13.894  0.0658 -0.2928 -0.0378
34279W        W47693  10.155  11.812   3.680  0.0445 -0.3132 -0.1483
34280W        W47694   0.533   7.175  16.145  0.1943  0.1258 -0.2521
34281W        W47695   3.362  17.065   3.087 -0.0574  0.0472 -0.0621
34282W        W47696  12.339   6.948   5.431 -0.1054  0.1251  0.2706
34283W        W47697   9.431  10.147   2.399  0.0645 -0.0582 -0.3518
34284W        W47698   1.079   5.386   5.922 -0.2143  0.2408  0.0112
34285W        W47699   0.770   5.407   3.177 -0.1410 -0.0969 -0.0043
34286W        W47700   9.524   9.409   1.409  0.1083 -0.2292 -0.3751
34287W        W47701   7.609  16.313  13.680 -0.0155 -0.2574 -0.1418
34288W        W47702  12.113  18.193  13.587 -0.0045  0.0415 -0.0599
34289W        W47703   1.016  11.771   2.245 -0.1153 -0.1065  0.1771
34290W        W47704  16.985   2.617  16.081  0.1085 -0.4286  0.2418
34291W        W47705  17.523   2.001   0.388  0.1551  0.0343 -0.1744
34292W        W47706  14.248   4.413  11.057 -0.0781  0.2003  0.1015
34293W        W47707   0.979   6.971   5.251  0.1443  0.1152 -0.4018
34294W        W47708  17.927   6.914  13.324  0.1424 -0.0441 -0.0888
34295W        W47709   8.269   6.024  14.059  0.0329  0.0973  0.1688
34296W        W47710   8.274   1.806  15.043  0.1165  0.3889 -0.0895
34297W        W47711  10.400   4.712   3.534 -0.1075 -0.0162  0.0212
34298W        W47712   0.282  11.367   0.777 -0.0264  0.6221 -0.0005
34299W        W47713  13.492   8.791  12.630  0.1811 -0.1305 -0.2018
34300W        W47714  14.699   2.617  15.259 -0.1919  0.0613  0.1101
34301W        W47715   1.268   1.187   5.597  0.2099 -0.0462  0.2220
34302W        W47716   0.044  16.538   1.047 -0.0813  0.2546  0.0755
34303W        W47717  13.747   7.171  11.795  0.1952  0.3393 -0.0844
34304W        W47718  10.209   2.227  12.636 -0.3983 -0.2079 -0.1577
34305W        W47719   9.025  17.013   3.749  0.1005 -0.1374  0.1976
34306W        W47720  17.950  14.665  11.409  0.1664 -0.0866  0.0679
34307W        W47721   4.291  18.240   1.040  0.1780 -0.2796 -0.2982
34308W        W47722  14.639   2.716  14.720 -0.1231  0.1417  0.2205
34309W        W47723   6.573  18.242  12.162 -0.0819  0.1335 -0.3347
34310W        W47724  17.721   9.310   1.334 -0.1590  0.4093 -0.1309
34311W        W47725   2.023   0.718  12.460 -0.3337 -0.0610 -0.1758
34312W        W47726  16.589  10.886   1.098  0.0946 -0.2766  0.2689
34313W        W47727   3.554  14.737   3.661  0.0113  0.3610 -0.3680
34314W        W47728   4.945  12.527   3.231  0.0946  0.0426  0.0173
34315W        W47729  14.065  12.327   5.373 -0.2098 -0.4403  0.3133
34316W        W47730   8.345  13.803  10.479  0.3644  0.0567 -0.1762
34317W        W47731  16.653  16.547  16.485 -0.2457  0.1192 -0.0474
34318W        W47732  15.766  11.713  11.134 -0.1829  0.0245  0.1724
34319W        W47733   7.628  11.582   4.419 -0.0470  0.1275 -0.0208
34320W        W47734   8.203  10.177   3.977 -0.2477  0.2285 -0.2499
34321W        W47735   4.547   3.177   6.144  0.0803  0.0848  0.0532
34322W        W47736  12.801  14.077  15.655  0.0335  0.1570 -0.1191
34323W        W47737   6.065  11.437   4.328  0.2618 -0.1582  0.1839
34324W        W47738  15.604   6.775  12.396 -0.0415  0.3300 -0.0502
34325W        W47739   2.642   1.244  15.504 -0.1592  0.0478 -0.1840
34326W        W47740   3.774   2.562  14.348 -0.2653 -0.1105 -0.1386
34327W        W47741  11.566   8.652   1.544  0.2483  0.0168  0.0398
34328W        W47742  18.093   9.077   5.491 -0.1620  0.0781 -0.5091
34329W        W47743  15.980   5.872  15.126 -0.1823  0.0687 -0.0036
34330W        W47744   8.314  10.153   4.514  0.0862 -0.0995 -0.2688
34331W        W47745  18.041  16.839  15.130  0.2126  0.2061 -0.2571
34332W        W47746  17.187   4.149   1.515  0.2269 -0.0343  0.1378
34333W        W47747  14.357  10.003   3.250  0.1605  0.3069  0.1153
34334W        W47748   9.334   1.529   4.329  0.2238 -0.0493  0.1516
34335W        W47749  12.315   0.075   0.147 -0.0592  0.0495  0.0253
34336W        W47750   5.006   7.537  16.111 -0.1694  0.1047 -0.2358
34337W        W47751  15.280  13.378   6.507  0.0519 -0.4114  0.2312
34338W        W47752   0.045   5.352   4.881 -0.3055 -0.0596 -0.0664
34339W        W47753   1.407   1.807   3.795  0.2196  0.0232 -0.2042
34340W        W47754   0.205  14.493   5.376 -0.0264  0.2065  0.3697
34341W        W47755  12.614  15.570  10.727  0.1203  0.1129  0.0409
34342W        W47756  17.665  14.628   3.308 -0.0435  0.2329  0.3076
34343W        W47757  11.826  16.302   4.422 -0.1862  0.0425  0.0936
34344W        W47758   4.129   1.804   4.519  0.0451  0.0691  0.0575
34345W        W47759  11.662   5.192   2.198  0.0248 -0.2130  0.0504
34346W        W47760  10.715   9.771  15.848 -0.1722  0.0852  0.2237
34347W        W47761   0.555   3.203  14.032  0.0389  0.0482 -0.0764
34348W        W47762  10.541  14.073  14.980 -0.1765  0.1247  0.1223
34349W        W47763  11.883  11.357  12.148  0.1481 -0.1082  0.1027
34350W        W47764  14.647  17.777   6.328  0.0658 -0.0990  0.0458
34351W        W47765  13.168  10.760  11.377  0.0881  0.0963 -0.0082
34352W        W47766  10.496   4.082  15.471  0.2416 -0.0212  0.0546
34353W        W47767   7.245  16.005   2.553  0.0686  0.1351 -0.2071
34354W        W47768   6.326   4.043   3.028  0.1936  0.0418  0.1445
34355W        W47769   4.259  14.252  10.624 -0.1847 -0.0553  0.0616
34356W        W47770  15.115   2.215  12.271  0.0414  0.2470  0.0960
34357W        W47771  16.155  11.448   4.380 -0.2573 -0.0417  0.0153
34358W        W47772   9.530   9.819   4.675 -0.0347  0.0131 -0.0861
34359W        W47773  15.337   5.595   5.170  0.2943  0.1692 -0.1496
34360W        W47774   2.483   7.872  15.331  0.2035  0.3549 -0.1221
34361W        W47775  10.795   6.778   4.595 -0.1393 -0.3008  0.0692
34362W        W47776   8.259   3.969   0.176 -0.0996  0.1799 -0.0075
34363W        W47777  15.710   1.971   4.100  0.1478 -0.1734 -0.1550
34364W        W47778   8.962   3.929   2.974  0.0293  0.1104 -0.1810
34365W        W47779   9.610  11.430   2.805 -0.0977  0.0563  0.0290
34366W        W47780   0.521  17.707  12.779 -0.0270  0.0138  0.1716
34367W        W47781  12.783  13.232   1.370 -0.2470  0.2534 -0.2507
34368W        W47782  13.130   6.924   5.629  0.0105 -0.1869 -0.3013
34369W        W47783   9.193   9.569  14.508  0.0379 -0.1456 -0.1682
34370W        W47784  16.785   9.958  12.899  0.1274  0.2665  0.0998
34371W        W47785  15.359  17.015  15.866 -0.2267 -0.2661  0.0089
34372W        W47786  17.379   3.645   3.565  0.1432 -0.0711 -0.2201
34373W        W47787   2.923  12.527   3.792 -0.0175 -0.2240 -0.0543
34374W        W47788   2.015   5.361  16.198 -0.2384  0.4044 -0.0504
34375W        W47789   1.959   4.878  16.247  0.0945  0.2983 -0.0480
34376W        W47790   9.457  12.729   3.681  0.2143 -0.0492 -0.2390
34377W        W47791  13.391  16.628  12.110  0.2143  0.0157 -0.0175
34378W        W47792  15.277   2.355  15.405  0.0866 -0.3749  0.1448
34379W        W47793  11.591  14.314  12.549  0.0657  0.0794 -0.0985
34380W        W47794  10.597   4.706  11.481  0.2097 -0.1739  0.0325
34381W        W47795   6.579   7.584   4.536 -0.3016  0.0765  0.0928
34382W        W47796   8.676  10.698  11.508  0.0678 -0.0005 -0.2688
34383W        W47797   8.095  12.178   3.692  0.1866  0.1868 -0.1238
34384W        W47798   6.803   0.579  15.277 -0.1576 -0.2747 -0.3855
34385W        W47799   9.652   0.542   5.864  0.1378 -0.1365 -0.0380
34386W        W47800   9.982   2.735   3.217  0.3784 -0.1315  0.1820
34387W        W47801  13.060   2.398   1.467  0.2304  0.0313  0.1981
34388W        W47802  14.914  11.975   1.531 -0.1726  0.0241 -0.1227
34389W        W47803  10.328   1.626   2.829 -0.0356 -0.0603  0.2818
34390W        W47804   4.550   3.417  13.736 -0.0372  0.4444  0.1857
34391W        W47805  12.505   9.533   5.929  0.1535  0.2324 -0.1623
34392W        W47806   2.354  17.596  11.847  0.0368  0.0182 -0.5258
34393W        W47807  13.965  12.904  12.336 -0.1442 -0.0544  0.1119
34394W        W47808  14.388  16.018  15.604 -0.0221 -0.1541  0.2666
34395W        W47809   7.664  16.132   2.255 -0.0220 -0.0206 -0.1101
34396W        W47810  12.552   9.876  15.010 -0.2218 -0.0932  0.0266
34397W        W47811   2.981   4.266  15.697  0.0822 -0.0218  0.1119
34398W        W47812  17.622  15.634  13.833 -0.0994 -0.1089 -0.4391
34399W        W47813   3.490   8.008  10.386 -0.1753  0.1174 -0.1317
34400W        W47814   8.636  16.234   5.251 -0.0621 -0.0739  0.0582
34401W        W47815  10.724   3.810  10.400  0.1363 -0.0366 -0.3095
34402W        W47816  12.944  14.097   3.801 -0.0428  0.1076 -0.1634
34403W        W47817  15.375  10.805   2.547 -0.0192 -0.4286 -0.0861
34404W        W47818  10.061   9.350  14.405  0.3425  0.2157 -0.0214
34405W        W47819   4.518  11.586   3.844  0.1802  0.0490 -0.1066
34406W        W47820   5.607  14.180   0.890 -0.0150 -0.1345  0.1643
34407W        W47821  15.182  16.271  16.050  0.1492  0.0352  0.2027
34408W        W47822   1.759  14.155  15.224  0.1317 -0.0838 -0.0719
34409W        W47823   8.331  13.304  10.702 -0.0853  0.4478  0.2704
34410W        W47824  18.173  15.825   1.816  0.1755  0.1292 -0.1250
34411W        W47825  17.718  15.737  15.559  0.3084 -0.1081  0.0527
34412W        W47826  10.405  14.459   5.169 -0.2154 -0.3815  0.1554
34413W        W47827  10.944   4.884  12.941  0.1479  0.0212 -0.0130
34414W        W47828   0.710  17.939   1.461  0.1153  0.1715 -0.0117
34415W        W47829   7.192  10.138   1.123  0.1108  0.0588  0.4882
34416W        W47830   0.447   0.596   4.793  0.0247 -0.2112 -0.0086
34417W        W47831  14.749  17.257  15.351  0.3759  0.0180  0.3711
34418W        W47832   3.410   1.562   1.320  0.0937 -0.0984  0.0498
34419W        W47833   2.815   9.109  11.908  0.1542  0.2292 -0.1162
34420W        W47834   2.369  16.338  16.015 -0.1473  0.0663 -0.3726
34421W        W47835   9.834   6.310   5.253 -0.2016  0.0373 -0.2059
34422W        W47836   1.459   9.105  10.853 -0.1191  0.2668 -0.0525
34423W        W47837   0.210   3.277   3.295 -0.1345 -0.3464  0.1887
34424W        W47838   3.866  16.220   3.566  0.2628 -0.0855 -0.3737
34425W        W47839  18.088   0.017  11.777  0.1811 -0.0226  0.2001
34426W        W47840   2.175   8.678  14.017  0.1063 -0.4229 -0.1592
34427W        W47841  15.569   1.524   2.078  0.2659 -0.1699 -0.1911
34428W        W47842  11.220  17.132  15.700  0.2476  0.4693 -0.1037
34429W        W47843  16.075   3.166   5.264 -0.0349  0.0445  0.2228
34430W        W47844  14.296  11.163  14.807 -0.2890  0.0119 -0.0192
34431W        W47845   5.397  15.973  12.363  0.4153  0.2071  0.1976
34432W        W47846   8.598   9.375   1.751 -0.1052  0.0565  0.2556
34433W        W47847   2.790   5.141   6.560  0.4118  0.4377  0.1285
34434W        W47848  17.095   9.150   2.702  0.1707 -0.0595 -0.1794
34435W        W47849  11.490   4.108  15.941  0.0410  0.2851  0.0098
34436W        W47850  16.734   0.999  10.975  0.2869  0.1444 -0.3805
34437W        W47851  16.974   0.169   2.870 -0.0088 -0.0753  0.0721
34438W        W47852  12.472  12.172  13.529  0.0384 -0.2267  0.2830
34439W        W47853  13.522   5.097   0.396  0.2703 -0.2347  0.0404
34440W        W47854   7.499  16.619   0.964  0.2722  0.0585  0.2938
34441W        W47855  18.019  14.691  13.126  0.1039  0.2010 -0.0366
34442W        W47856   5.069  14.788   0.151  0.1843  0.2692  0.0037
34443W        W47857  17.363   1.480   1.688 -0.0573 -0.0458 -0.1094
34444W        W47858  10.102   6.860  13.874 -0.1954  0.0710  0.0591
34445W        W47859   3.376  15.196   3.796 -0.2621 -0.0793  0.3328
34446W        W47860   6.884  16.710  13.130 -0.1571 -0.0218 -0.4302
34447W        W47861  17.202  13.224  11.976 -0.0873 -0.1799  0.0472
34448W        W47862   1.570  14.197  13.659 -0.2322 -0.1071 -0.1300
34449W        W47863  16.370   7.775  14.830  0.0418 -0.2112 -0.0602
34450W        W47864   4.764   6.372  10.502  0.1385 -0.1017  0.1306
34451W        W47865   2.648   8.971   3.626  0.0283 -0.1211  0.2102
34452W        W47866  12.959   9.499   5.219  0.0375  0.2152  0.1220
34453W        W47867   5.194   5.912  10.427 -0.1647 -0.1021 -0.2402
34454W        W47868  16.849  14.285   4.749 -0.3243  0.0701  0.0731
34455W        W47869   6.361   2.996  13.157 -0.1216  0.2473 -0.2094
34456W        W47870   5.402   1.270   2.160  0.1948  0.0382 -0.1008
34457W        W47871  13.494   4.275   1.097 -0.1756  0.2990  0.2488
34458W        W47872  11.743  14.732   0.919 -0.0262  0.1480 -0.3524
34459W        W47873   0.215   2.516  15.149  0.1227  0.4384  0.0526
34460W        W47874   1.544   6.409   3.804 -0.1285  0.0551 -0.0988
34461W        W47875  17.066   2.450  14.434 -0.0717  0.0117  0.0268
34462W        W47876  11.463   0.989  15.008  0.3786 -0.4747 -0.1429
34463W        W47877  13.480   9.743   5.937  0.1906 -0.1127  0.0059
34464W        W47878  17.413   2.349   2.993 -0.3676  0.0918 -0.1180
34465W        W47879  16.717  17.600  11.316  0.0868 -0.1553  0.1885
34466W        W47880  15.859   8.876  11.974  0.2453 -0.2757 -0.0175
34467W        W47881  13.089  16.573  14.582 -0.1940  0.2889  0.1695
34468W        W47882   0.615   5.084  12.476  0.0491  0.0981 -0.1312
34469W        W47883  17.145  11.396  13.636 -0.2948  0.3728 -0.0049
34470W        W47884   7.793   8.906  10.586  0.3718 -0.0802  0.3120
34471W        W47885  12.681   2.066  15.763 -0.0705  0.0647 -0.0145
34472W        W47886  16.394  12.611  13.423 -0.0256 -0.0667  0.1816
34473W        W47887   1.981  14.600   5.463  0.2443  0.1388  0.2564
34474W        W47888   4.133  15.384  12.135  0.0510 -0.0606 -0.6875
34475W        W47889   3.257   2.090   0.752 -0.1355  0.2119  0.0591
34476W        W47890  10.501  18.221   6.205 -0.0133 -0.2711 -0.0188
34477W        W47891   7.267   5.747   3.152 -0.0378  0.1529  0.1765
34478W        W47892  13.739  11.966  11.769 -0.0746  0.0991  0.0601
34479W        W47893  16.907   4.727  15.016  0.2218 -0.1644  0.0144
34480W        W47894   3.446   4.067  13.769 -0.3997 -0.1753 -0.0753
34481W        W47895  10.170  15.711  14.122 -0.0480 -0.1740  0.1880
34482W        W47896   7.565  14.558   4.138 -0.1013 -0.1017 -0.0704
34483W        W47897  12.190  11.225  15.599 -0.1610  0.2981  0.1722
34484W        W47898  11.901   2.423   4.186 -0.1408 -0.0467  0.3125
34485W        W47899  15.481   7.126  15.620 -0.0655 -0.1924 -0.2085
34486W        W47900   3.697   4.687  14.722 -0.3632  0.1767 -0.2036
34487W        W47901   5.824   5.724   4.083  0.0235  0.0473 -0.0928
34488W        W47902  10.676  17.444  10.622 -0.0141  0.0637  0.0033
34489W        W47903  11.511  12.659  14.246 -0.0266 -0.0620  0.2234
34490W        W47904   7.872   5.473  11.031  0.0338  0.2428 -0.0733
34491W        W47905   0.499   0.889   6.140 -0.1645 -0.2812 -0.1234
34492W        W47906   3.645   3.165   6.323 -0.1688 -0.3385  0.0075
34493W        W47907   4.739  11.348   2.617 -0.0996 -0.0828 -0.0349
34494W        W47908  15.780  12.559   2.314 -0.1845 -0.1400  0.1637
34495W        W47909  13.831   1.540  11.870  0.0198 -0.1903  0.1038
34496W        W47910   8.277   7.447  14.857 -0.0105  0.0195  0.1273
34497W        W47911   7.171   5.547   0.801 -0.0216  0.1219  0.0063
34498W        W47912   7.782  13.871  12.512 -0.4117  0.2731 -0.2618
34499W        W47913  11.737   1.626   3.667 -0.0455  0.1997 -0.0812
34500W        W47914   8.175   6.462   4.062 -0.2882 -0.3199 -0.1472
34501W        W47915  16.585   9.702  12.488  0.2029 -0.0764  0.0339
34502W        W47916  12.479   6.998   3.595 -0.2788  0.1821  0.0655
34503W        W47917  14.133  16.986  12.017 -0.0059  0.1459 -0.2835
34504W        W47918  17.340   7.142  12.122 -0.1089 -0.0459  0.0682
34505W        W47919   8.519   6.938  13.732  0.1343 -0.0328 -0.1889
34506W        W47920  16.875  16.036   3.423 -0.0331 -0.3583  0.1497
34507W        W47921   9.493  14.376  14.003 -0.3001 -0.1885  0.3251
34508W        W47922   1.944   0.301  10.752  0.0031 -0.0966  0.0616
34509W        W47923   2.269   0.146   1.168 -0.0625  0.2522  0.0393
34510W        W47924   5.549   6.894  11.349 -0.0019 -0.2043 -0.1773
34511W        W47925  13.259  15.562   0.674 -0.1333  0.2962 -0.0128
34512W        W47926  14.656   4.114  12.541 -0.2446 -0.1610  0.0649
34513W        W47927  13.258   8.602  10.880 -0.3281  0.0766  0.3062
34514W        W47928  17.479  16.775  15.885  0.1988  0.1087  0.0580
34515W        W47929  12.935   5.650  13.690 -0.0146 -0.1431  0.1750
34516W        W47930  14.821   3.422  11.741  0.0440 -0.1155 -0.3099
34517W        W47931   3.424   6.055  16.471 -0.0114  0.1590  0.1697
34518W        W47932  10.657   6.724   5.214  0.3799  0.1679  0.0602
34519W        W47933   7.146  16.178  13.591  0.0498 -0.0055 -0.1471
34520W        W47934   0.843  12.502  11.909 -0.0903 -0.0798  0.0205
34521W        W47935  16.107   7.698   1.786  0.1249 -0.0109 -0.2280
34522W        W47936  15.833  17.322  12.457 -0.1903  0.2261 -0.3480
34523W        W47937   9.903  17.628  12.364  0.0438 -0.1251  0.1689
34524W        W47938   2.533   4.352   1.354  0.0308 -0.4475 -0.2388
34525W        W47939   6.009   6.706   5.654 -0.1050  0.0309  0.2215
34526W        W47940   0.695   8.845   3.343  0.1804 -0.2029  0.1363
34527W        W47941   3.544   5.570   3.117 -0.1645 -0.1003 -0.2807
34528W        W47942  17.007   7.899   4.958 -0.0136 -0.0729  0.3584
34529W        W47943   0.119  17.509   0.851  0.1095 -0.2078 -0.2060
34530W        W47944  12.823  14.617  12.976 -0.2192 -0.2765  0.1733
34531W        W47945  17.850   8.171   5.912  0.0945  0.0442 -0.2218
34532W        W47946   6.006   2.957   5.504  0.0068  0.1950  0.1190
34533W        W47947   0.688  10.899   6.601 -0.1264  0.0383  0.2640
34534W        W47948  17.757   3.890  12.257 -0.2141 -0.0304 -0.1481
34535W        W47949  14.975   4.520   3.406  0.0239  0.1033 -0.1030
34536W        W47950  18.202  13.124  12.305 -0.0435 -0.0020 -0.2147
34537W        W47951   3.662   6.007   5.344  0.0537  0.2450  0.0266
34538W        W47952  15.628  12.247  10.316 -0.0280  0.0915  0.2634
34539W        W47953  14.818   5.029   2.607  0.0774 -0.3558 -0.0064
34540W        W47954  13.373   6.805  14.801 -0.0404  0.1460  0.0583
34541W        W47955   2.749   7.760  15.722 -0.1021 -0.1883 -0.1430
34542W        W47956   7.644  16.413  10.907 -0.0614  0.1327  0.1532
34543W        W47957  16.117  10.054  16.439  0.1864  0.3129 -0.0992
34544W        W47958   4.743  16.872  16.265 -0.0596  0.3137 -0.2715
34545W        W47959  10.341  12.257  12.778  0.2882  0.0030  0.0108
34546W        W47960   3.297  16.162   4.890  0.0066 -0.1438 -0.0388
34547W        W47961  15.514  16.601   0.987 -0.3235 -0.0747  0.2575
34548W        W47962  10.806   4.446  13.772  0.0134 -0.1195 -0.0890
34549W        W47963  14.087   5.431  10.767  0.0644 -0.4136 -0.1489
34550W        W47964  14.119  11.969  15.331 -0.1718  0.1306 -0.0606
34551W        W47965  12.151   4.047   1.428  0.0761  0.0300 -0.3929
34552W        W47966   6.289  15.097   3.953  0.1526  0.0390  0.0526
34553W        W47967  14.685  11.968   3.079  0.0712  0.0175 -0.0121
34554W        W47968  15.364   3.451   4.632  0.0279 -0.1024 -0.1621
34555W        W47969  17.007  14.352   2.691  0.1759  0.0823  0.3040
34556W        W47970   1.887   4.306  13.405 -0.1225 -0.3074  0.1222
34557W        W47971   2.903   4.531   4.765  0.1291 -0.1730 -0.0490
34558W        W47972  11.742  11.904   4.193 -0.2625 -0.0085  0.0436
34559W        W47973   4.926   2.905   5.879  0.2885 -0.0518  0.3488
34560W        W47974   3.806   0.633   3.859 -0.0639 -0.0304 -0.1547
34561W        W47975  10.107   1.345  12.782  0.0163  0.0003 -0.0614
34562W        W47976   6.610   9.192   0.021 -0.1687 -0.0879  0.2182
34563W        W47977   0.366  10.837   2.386 -0.1062 -0.1656 -0.1733
34564W        W47978   5.681  17.406  12.988  0.1231 -0.0943  0.1951
34565W        W47979   4.908   7.030   1.971  0.0315 -0.1105 -0.1245
34566W        W47980   2.610   6.267   5.917 -0.2174 -0.2222  0.1201
34567W        W47981   0.862   6.884   2.210  0.0355 -0.0386  0.1402
34568W        W47982   5.082   9.589   0.497  0.0449 -0.0011  0.3437
34569W        W47983  16.968  17.378   3.257  0.2585 -0.1544  0.2039
34570W        W47984  14.137   0.608  13.527 -0.2521  0.0274  0.0811
34571W        W47985  13.780  10.123  10.363  0.1745 -0.3425 -0.2421
34572W        W47986   2.106   5.156  11.544 -0.1056 -0.1574  0.0661
34573W        W47987  16.683   6.197  14.918  0.1083 -0.1099  0.0348
34574W        W47988   9.906  16.894   5.097  0.3600  0.1087 -0.0982
34575W        W47989   0.151  13.555  15.732  0.0957  0.0591  0.0782
34576W        W47990  10.489   3.687  15.113  0.0219 -0.0964  0.0060
34577W        W47991   3.869   0.152  16.303  0.1646  0.3061  0.0319
34578W        W47992  13.629  13.150   5.931  0.1255  0.1726 -0.1989
34579W        W47993  15.954   1.150   0.299  0.3713 -0.3889  0.2640
34580W        W47994  15.478   1.978  10.225 -0.3071 -0.0735  0.0208
34581W        W47995   3.064   1.463  11.198 -0.1144  0.1716  0.0097
34582W        W47996   8.953   1.372  13.868  0.0272 -0.3765 -0.2463
34583W        W47997  11.943  13.438   3.907  0.3728 -0.1760  0.0572
34584W        W47998   6.655   9.028  15.326 -0.2488 -0.3761  0.1697
34585W        W47999   8.362   7.140  11.064 -0.0303 -0.0129  0.0562
34586W        W48000  16.453   8.609  13.562  0.0968 -0.2319 -0.0544
34587W        W48001  17.088  15.364   0.239 -0.0781  0.0812  0.2646
34588W        W48002  12.944   4.067  16.320  0.3293  0.2410 -0.1019
34589W        W48003  12.231   6.851  14.677 -0.0753 -0.2502  0.0382
34590W        W48004  11.202  15.444   2.755  0.2575  0.1107 -0.3167
34591W        W48005   6.968  16.103  11.130  0.1804  0.0649  0.1074
34592W        W48006  11.938   7.593  11.375  0.0328  0.1825  0.0605
34593W        W48007   4.445   6.512   6.347 -0.1387 -0.0756 -0.0333
34594W        W48008  16.875  17.755  13.529  0.2470  0.2261 -0.0911
34595W        W48009  15.744  10.760   3.971  0.0914  0.1744  0.3398
34596W        W48010   2.154  11.489  12.835 -0.0329  0.0385  0.4108
34597W        W48011  14.685   8.797  13.519 -0.1851  0.0575  0.3034
34598W        W48012  10.303   1.778  11.309  0.2192 -0.1871 -0.0660
34599W        W48013  12.133   7.062  13.450 -0.1463  0.0095 -0.0460
34600W        W48014   8.696  14.606  14.556  0.0375  0.0392  0.0986
34601W        W48015   9.630  15.850   3.729 -0.0799 -0.1152 -0.1812
34602W        W48016  14.282  14.219  12.194 -0.1708 -0.1394 -0.2202
34603W        W48017   4.309  13.570  11.838  0.2585  0.3395  0.0145
34604W        W48018   4.786   7.853   2.993  0.4153  0.0754 -0.0388
34605W        W48019  11.581  10.106  16.255 -0.0696 -0.0333  0.4959
34606W        W48020  10.881   9.900   3.598 -0.1455 -0.3162  0.1844
34607W        W48021  14.088   7.787   5.624  0.1684 -0.1756  0.3030
34608W        W48022  12.288   7.654  12.106 -0.1465  0.1764 -0.4417
34609W        W48023   9.269   5.293  12.252 -0.2431 -0.1813 -0.3034
34610W        W48024   7.881  16.832  13.256 -0.1585 -0.0822 -0.2564
34611W        W48025   0.730   6.029   3.856  0.1673 -0.0013  0.0902
34612W        W48026  12.660  12.069   1.983 -0.1199  0.0382  0.0534
34613W        W48027  13.177   0.071   2.750 -0.0516 -0.0606 -0.4169
34614W        W48028  16.248   3.354   4.026  0.1066  0.1138 -0.0049
34615W        W48029  16.643   6.640   3.791  0.1875 -0.0726 -0.1273
34616W        W48030  13.692  16.238   4.336 -0.0724  0.2151 -0.0214
34617W        W48031  15.370   2.007   0.564  0.1203 -0.2464  0.4983
34618W        W48032   7.325   3.393   4.210  0.0314  0.0164 -0.0943
34619W        W48033   0.837  11.355   1.972 -0.1597 -0.1943  0.0110
34620W        W48034   4.673   1.822  16.238  0.2016  0.0985  0.2616
34621W        W48035  15.539  14.171  12.702  0.0839  0.1058 -0.1446
34622W        W48036   6.583  16.978  13.396 -0.1815  0.0271 -0.2427
34623W        W48037  12.487  15.413  13.511 -0.1517  0.0732  0.0653
34624W        W48038   3.132  12.996  11.448  0.2777  0.1671  0.0383
34625W        W48039  16.172   4.720  10.220  0.1111 -0.2993  0.1328
34626W        W48040  18.029  10.062  16.379 -0.0756 -0.0477  0.2810
34627W        W48041   0.133   4.828  13.140  0.2911 -0.1006 -0.2254
34628W        W48042   8.121   1.305   2.369 -0.1155  0.0265 -0.0233
34629W        W48043  15.550  11.752   4.586  0.0335 -0.1373  0.2854
34630W        W48044   0.573  16.352  14.528  0.1242  0.2517 -0.0106
34631W        W48045   9.269   8.384  15.164 -0.2253  0.0991  0.1131
34632W        W48046  13.026  12.301   3.920  0.2335 -0.1540  0.0916
34633W        W48047   3.026   8.530   0.942  0.0685 -0.1561  0.0572
34634W        W48048   6.926   4.805  15.883  0.1204 -0.2218  0.0281
34635W        W48049  10.460   1.779  10.231 -0.0789 -0.1320  0.3115
34636W        W48050   4.175  11.384   0.509  0.0492 -0.1227 -0.2153
34637W        W48051  12.297  16.636   0.202 -0.2922 -0.2325 -0.0870
34638W        W48052   4.134  14.211   1.960 -0.3026  0.0590  0.4729
34639W        W48053   7.415   1.504  12.454 -0.1856 -0.1033 -0.1211
34640W        W48054   2.686  10.053   1.501 -0.1649 -0.2410 -0.0836
34641W        W48055   1.081   4.232   4.884  0.0291  0.1698 -0.3784
34642W        W48056  14.346  12.857  16.042  0.1310 -0.0951 -0.0323
34643W        W48057  11.890   8.890   1.902 -0.0257 -0.1904  0.2730
34644W        W48058   2.759   1.181   2.941 -0.2965  0.1081 -0.0240
34645W        W48059  12.085   4.148   5.393  0.1439  0.0038 -0.1434
34646W        W48060   8.801  10.158   3.159 -0.2174 -0.2042  0.0955
34647W        W48061  11.691   7.574  13.121  0.0893  0.1249 -0.0385
34648W        W48062   7.521  13.131   3.328 -0.0429 -0.2596 -0.0270
34649W        W48063   8.677  17.455  11.761 -0.2078  0.2512  0.1957
34650W        W48064   6.018  15.255   5.287  0.1806  0.1647  0.0774
34651W        W48065   5.182  16.646  13.602 -0.0355  0.0076 -0.0734
34652W        W48066   2.952   8.034   3.262 -0.2039  0.1194 -0.0051
34653W        W48067  12.176   5.098  14.505  0.1239 -0.0007  0.5873
34654W        W48068   4.446  12.749   1.829  0.0354 -0.0770 -0.3392
34655W        W48069   8.736  15.578  13.597  0.1264 -0.0096 -0.1053
34656W        W48070   3.641   6.777  12.616  0.0880 -0.1539  0.1518
34657W        W48071  17.472  13.715  11.543  0.0688  0.0643 -0.3037
34658W        W48072   4.257   2.282  15.364 -0.2796 -0.2523  0.4361
34659W        W48073  12.747   5.904   2.706 -0.0474  0.0724  0.1659
34660W        W48074   5.418   2.725   2.616  0.0637  0.2131  0.1008
34661W        W48075   5.404  14.149  15.005  0.3546  0.1824  0.1003
34662W        W48076  15.239  17.900  12.243 -0.1417 -0.0379 -0.4246
34663W        W48077   7.799   2.897   5.487  0.0914  0.3124  0.0054
34664W        W48078  13.233   1.168   5.129 -0.1928  0.2394 -0.1257
34665W        W48079  16.406   6.199   5.053  0.0329 -0.0422 -0.2779
34666W        W48080  16.688  14.637  14.764 -0.2286 -0.0284  0.1345
34667W        W48081  13.100   5.895   3.440  0.2067  0.0397  0.0387
34668W        W48082  17.137   7.008   5.824 -0.2999 -0.2064  0.1153
34669W        W48083   1.929  16.189  16.328  0.0030 -0.0413 -0.1422
34670W        W48084  12.323  15.086  14.544 -0.2133  0.0417 -0.2611
34671W        W48085   3.025  15.501   3.641  0.0613  0.0645 -0.2805
34672W        W48086  16.369   4.189   4.546  0.1199  0.0668  0.2966
34673W        W48087  12.838  18.245  12.473  0.0960 -0.2196  0.0253
34674W        W48088  18.096   8.408  10.857 -0.2098 -0.0156 -0.0967
34675W        W48089  11.717  16.146  15.269  0.0419 -0.1096  0.0353
34676W        W48090   4.250   3.991   6.460 -0.1236 -0.1150  0.1867
34677W        W48091  15.413   6.849  15.021  0.0410 -0.2353 -0.3490
34678W        W48092   5.876  16.790  14.915 -0.0047  0.0042 -0.2326
34679W        W48093  14.587   2.331   4.914 -0.0922 -0.1411 -0.1180
34680W        W48094   3.593  12.779  14.652 -0.0570  0.1443  0.1674
34681W        W48095   4.137  15.122   1.049 -0.2337 -0.2249  0.0618
34682W        W48096  10.688  11.357   1.978  0.2165  0.1894  0.1209
34683W        W48097   7.205   2.342  13.349  0.3059  0.1453 -0.2641
34684W        W48098   1.439   0.283   0.943  0.1327  0.1368  0.2186
34685W        W48099   3.253  13.156  13.256 -0.0690  0.0311  0.2473
34686W        W48100   9.270  12.855   6.217 -0.1945  0.0352 -0.1783
34687W        W48101   1.617  16.250  15.532 -0.0505 -0.4405  0.0776
34688W        W48102  17.053   8.207  11.202 -0.0649  0.0634  0.0162
34689W        W48103   9.818   6.558   4.759  0.0120 -0.0204 -0.1540
34690W        W48104  16.403   3.913  10.710  0.1779 -0.0466  0.0674
34691W        W48105   7.095   7.703   4.694 -0.1752  0.0228 -0.1836
34692W        W48106   9.997   3.255  14.103 -0.0643  0.1766  0.0446
34693W        W48107  13.715  16.395  13.736 -0.3495 -0.3067 -0.0469
34694W        W48108  10.175  10.389   3.981 -0.1424  0.3141  0.0814
34695W        W48109   4.516  10.918  11.372  0.1193  0.3927  0.1206
34696W        W48110  16.835   0.528  13.566 -0.2624  0.2169 -0.1994
34697W        W48111   8.584   1.401   0.881  0.1177  0.0443  0.0271
34698W        W48112   9.034   3.022   1.621 -0.1121  0.0073  0.0769
34699W        W48113  15.107  16.673  13.557 -0.0855  0.0080 -0.0490
34700W        W48114   7.037   0.625   4.040  0.0598 -0.3187 -0.2036
34701W        W48115   5.491   0.712  11.660  0.1176 -0.0311 -0.0015
34702W        W48116   4.718   4.773  15.179 -0.2957  0.0309  0.3474
34703W        W48117   8.180   4.369   4.948 -0.2295 -0.1000 -0.1811
34704W        W48118   3.026   1.764   1.045 -0.1122 -0.0749 -0.2230
34705W        W48119  14.767   4.583   4.339 -0.2871 -0.0876  0.0597
34706W        W48120   8.604  12.792   1.130  0.0722 -0.2706 -0.0423
34707W        W48121  14.698  15.445  14.768 -0.0678 -0.2886 -0.2362
34708W        W48122  11.840   0.205   3.254 -0.6629 -0.0520  0.0295
34709W        W48123   8.173   2.805  11.669 -0.0830  0.2447  0.1162
34710W        W48124  14.805  17.782  15.378 -0.0842  0.2020 -0.1523
34711W        W48125   9.440  15.588   0.483  0.2923  0.2436  0.0982
34712W        W48126   7.419   1.791   4.995  0.0074  0.0162 -0.1318
34713W        W48127  16.996   8.330   0.537 -0.5610  0.0798 -0.1867
34714W        W48128  10.894  12.788  16.268  0.0668 -0.0984  0.1617
34715W        W48129   9.900  11.713   4.381 -0.1757 -0.1407 -0.1156
34716W        W48130   8.047  13.253   1.761 -0.1200 -0.1058 -0.0680
34717W        W48131   7.435   7.648   0.686 -0.2146  0.2950  0.0652
34718W        W48132  18.045  16.777   4.739 -0.0623  0.2786  0.0221
34719W        W48133   2.625   3.947   5.635 -0.0208  0.0199 -0.1589
34720W        W48134   2.433   9.388  14.759  0.2758  0.0655 -0.0216
34721W        W48135   4.386  14.900  11.165  0.1367  0.0568  0.2515
34722W        W48136   1.405   1.732   0.931 -0.0232 -0.1595 -0.0408
34723W        W48137   2.285   4.732   4.060 -0.2864  0.0447  0.1960
34724W        W48138  14.252  14.308  14.295  0.0865 -0.0224 -0.3106
34725W        W48139   5.715  16.196   1.807 -0.2952 -0.4572 -0.1467
34726W        W48140   7.969  14.539  12.481 -0.1072  0.1510 -0.0030
34727W        W48141  11.620  12.228   2.022 -0.1267 -0.0231 -0.2544
34728W        W48142   9.667  15.517  15.667  0.2717 -0.0819  0.0792
34729W        W48143  13.867  15.618   0.599 -0.2323 -0.0338 -0.0800
34730W        W48144  14.049  12.932  14.391 -0.3550 -0.3230 -0.1106
34731W        W48145   4.666  15.469   5.117  0.0342  0.0962 -0.1062
34732W        W48146   6.892  18.238  16.170  0.0166 -0.0234 -0.1859
34733W        W48147   6.839  15.919   2.215 -0.2177  0.1310 -0.1406
34734W        W48148   8.316   7.927  11.507  0.2644 -0.0925  0.2760
34735W        W48149  10.669   2.204   0.018 -0.0228 -0.0201 -0.1901
34736W        W48150  10.601   9.755   1.972 -0.2114 -0.2824 -0.2861
34737W        W48151  17.630   9.463  15.239 -0.1140 -0.0669 -0.2590
34738W        W48152   7.738   1.850  12.645 -0.1315  0.1809  0.1751
34739W        W48153  16.871   2.149   1.320  0.2861 -0.0672 -0.1292
34740W        W48154   6.494  17.703  12.009 -0.3107  0.2146  0.4411
34741W        W48155  15.133   2.092   2.791  0.0912  0.1184  0.1378
34742W        W48156   0.445  14.835  13.772 -0.2500 -0.0071 -0.1568
34743W        W48157  10.903   8.959   2.987  0.1100  0.0418 -0.2131
34744W        W48158  14.307   4.416  14.594  0.0523  0.0531 -0.0478
34745W        W48159   2.953  16.774   2.211 -0.0280  0.2627  0.0063
34746W        W48160  18.092  11.052  13.896  0.2243  0.0577  0.1222
34747W        W48161  16.726  17.392   5.289 -0.2511 -0.1369 -0.0835
34748W        W48162   0.323   1.200  14.044 -0.3305  0.1950  0.1445
34749W        W48163   5.320   3.245   5.081 -0.1452 -0.1223  0.0231
34750W        W48164  12.813   4.059   2.653 -0.2376 -0.0631 -0.3537
34751W        W48165   2.845   2.149   0.026  0.0797 -0.0471  0.1119
34752W        W48166   9.658  14.340  12.833 -0.0774 -0.1209 -0.0216
34753W        W48167  10.838   5.991  15.402 -0.2671  0.0436 -0.2246
34754W        W48168   6.446  10.307   3.719  0.1892 -0.0468  0.0490
34755W        W48169   0.807  13.422   4.795 -0.0859 -0.2973  0.0724
34756W        W48170   5.736  10.631  15.603  0.1363 -0.0714 -0.1962
34757W        W48171   6.724   6.037   3.795  0.0978  0.2189 -0.2261
34758W        W48172   9.629  12.059  10.577 -0.1235 -0.1644 -0.0410
34759W        W48173  10.769  11.671   2.437 -0.1416  0.1368  0.1802
34760W        W48174  10.239   4.301   0.429  0.3060  0.0801  0.0004
34761W        W48175  12.393   2.460  14.534 -0.2696  0.0636  0.3213
34762W        W48176   7.522   3.638  15.609 -0.1073 -0.2952  0.0564
34763W        W48177   4.171  16.806  13.228 -0.3964  0.1324 -0.3836
34764W        W48178   0.958   4.964  11.210  0.0021  0.1009 -0.0827
34765W        W48179   0.080  17.634  14.163  0.1507 -0.2818  0.2773
34766W        W48180  12.005  12.738  14.132 -0.2448 -0.0886 -0.0797
34767W        W48181   0.083  18.223   5.730 -0.0299  0.0840  0.1392
34768W        W48182  14.868   5.925  11.458 -0.1386 -0.0569 -0.2619
34769W        W48183   7.398   0.911  16.074  0.0887  0.0911  0.0438
34770W        W48184  12.672   0.209  14.388 -0.3097  0.0883 -0.2346
34771W        W48185   8.950  11.717  15.739  0.2080  0.2097  0.0975
34772W        W48186  15.670   9.195   3.878 -0.0659  0.0785 -0.1007
34773W        W48187   7.488  16.669  15.848 -0.1335  0.1452  0.2174
34774W        W48188  15.192  10.264   3.276 -0.0143 -0.4049  0.1308
34775W        W48189   2.060  13.957   3.895 -0.1779 -0.0399  0.2540
34776W        W48190   4.170  12.977   5.811  0.2039  0.1860  0.1226
34777W        W48191  10.086   7.406  10.669  0.2685 -0.0986  0.0634
34778W        W48192   7.852  16.807  12.722  0.1960 -0.2516  0.1687
34779W        W48193   8.555   5.427  15.352  0.1491  0.0761  0.0637
34780W        W48194   0.291  15.772  13.767  0.1177 -0.1210  0.0231
34781W        W48195  18.071   2.664  13.894  0.0173  0.1794  0.3283
34782W        W48196  17.971  17.737  16.428  0.1639  0.1850  0.0326
34783W        W48197  13.339   7.174   2.963  0.0708 -0.0400 -0.0156
34784W        W48198   6.010   9.929  14.412  0.1082 -0.1147 -0.0964
34785W        W48199   7.061   4.147  14.806 -0.3073  0.1390 -0.1244
34786W        W48200   3.105   7.296   5.192  0.0069  0.2164 -0.1641
34787W        W48201  11.727   3.853  16.441 -0.3945 -0.1647 -0.2180
34788W        W48202   8.282   6.213   5.895  0.3309 -0.2885  0.0657
34789W        W48203   7.391   9.784  12.941  0.0134 -0.0242 -0.3330
34790W        W48204   8.917  14.494  15.804 -0.0516  0.0276  0.0390
34791W        W48205  10.523   0.854  10.336 -0.1932  0.2233  0.2937
34792W        W48206   7.760   2.099  15.917  0.2242  0.2172 -0.0180
34793W        W48207   6.224   1.873  13.098  0.0956  0.0030  0.0606
34794W        W48208   9.749  10.971   3.737 -0.2525  0.3665 -0.1707
34795W        W48209   3.630  10.798   3.554 -0.0857 -0.2853  0.2368
34796W        W48210   6.719  18.109   3.499 -0.0421  0.1966  0.0654
34797W        W48211   4.276   6.777   1.333 -0.0009 -0.1493 -0.1127
34798W        W48212  12.422   5.578   2.573  0.1676 -0.1018  0.0951
34799W        W48213   7.374   5.803   6.359 -0.1553 -0.0812 -0.1663
34800W        W48214  12.279   2.690   1.468  0.1069  0.0140  0.0057
34801W        W48215   4.348   6.738  11.184  0.1363 -0.1786  0.1794
34802W        W48216  10.301  14.725   2.963 -0.0664 -0.3490 -0.3535
34803W        W48217   3.572   5.597  16.033  0.0488 -0.0130 -0.1159
34804W        W48218   4.505   9.783  16.414 -0.0267  0.1288  0.0106
34805W        W48219  14.351  17.026  13.321  0.1156  0.1051 -0.0185
34806W        W48220  12.125   3.990  13.326  0.2738  0.0719  0.0647
34807W        W48221   2.668  11.276  13.481  0.2113  0.0510 -0.2263
34808W        W48222  16.279  11.456   3.425 -0.0217  0.2075 -0.1513
34809W        W48223   0.824  14.770  12.569 -0.0091  0.2861 -0.0865
34810W        W48224   2.129  11.257   5.475 -0.2385 -0.1163  0.1666
34811W        W48225   3.475   6.171  15.217  0.3503 -0.1922 -0.2279
34812W        W48226  13.266  11.531   0.591 -0.0392 -0.3853  0.1434
34813W        W48227  17.020  12.709   2.373  0.1355 -0.0863 -0.2985
34814W        W48228   4.585  16.741   6.614  0.0154 -0.0201  0.2533
34815W        W48229   8.903   9.068   0.790 -0.0329 -0.0401  0.2854
34816W        W48230  16.772   4.217   2.576 -0.1322 -0.1399  0.2044
34817W        W48231  15.004   5.121   2.128  0.0782 -0.2391 -0.1602
34818W        W48232  10.300   5.171   1.057 -0.1483 -0.0460  0.0396
34819W        W48233   3.745  18.097  14.205  0.0124  0.3148  0.1549
34820W        W48234   0.042  10.401  15.469 -0.3055 -0.3874  0.0877
34821W        W48235  14.985  12.169  10.820 -0.3095  0.0448  0.1485
34822W        W48236  10.302   7.300  15.658 -0.2467 -0.0290  0.1040
34823W        W48237   5.599  18.166   2.114 -0.0732  0.0860  0.0801
34824W        W48238   1.186  13.540  15.623  0.1986 -0.2508 -0.2626
34825W        W48239  17.302   3.350   5.638 -0.0729 -0.4180 -0.1369
34826W        W48240   4.912  15.897  14.944 -0.1222  0.1012  0.0149
34827W        W48241   0.926  12.271  10.379 -0.0234  0.0328  0.0961
34828W        W48242  16.444   1.755  15.755 -0.1711  0.0849  0.0246
34829W        W48243  10.514   8.022   5.347  0.1945 -0.0352 -0.3511
34830W        W48244  16.427  15.973  14.431 -0.0095  0.1440  0.0066
34831W        W48245   3.972  15.305   0.591  0.1454  0.0661 -0.0872
34832W        W48246   2.451  14.491   2.903  0.0394 -0.1719 -0.1182
34833W        W48247  15.467   3.654   0.526 -0.0800 -0.1155 -0.2963
34834W        W48248   8.843   1.139   1.181  0.1674 -0.0333  0.1120
34835W        W48249  12.728   2.842   2.315  0.1362 -0.1140  0.0522
34836W        W48250  18.107   7.733   3.602 -0.0312  0.2662 -0.0735
34837W        W48251   0.538  16.849  13.979 -0.0341  0.1228  0.0325
34838W        W48252  12.149   3.337   0.199 -0.4245 -0.0047  0.2496
34839W        W48253   0.496   3.153  11.917  0.2766  0.4549  0.2773
34840W        W48254  18.123   9.064   0.076  0.0976  0.3293  0.3188
34841W        W48255  16.807   0.482  14.151 -0.1188  0.1390 -0.0610
34842W        W48256   3.764  15.012   5.548  0.3380  0.2400  0.3660
34843W        W48257   0.496   3.892  16.176 -0.1139 -0.2697  0.0218
34844W        W48258  14.551  13.220  14.708 -0.2326  0.0213 -0.1086
34845W        W48259   7.993   2.080   1.976  0.1701  0.2533  0.2272
34846W        W48260  12.440   3.385   5.805  0.0708  0.1381 -0.2360
34847W        W48261  12.373  11.319   0.433  0.2706  0.1068  0.1369
34848W        W48262   1.709   8.467  14.201 -0.0243  0.1579 -0.0797
34849W        W48263  10.967  11.279   0.853 -0.4747 -0.0841 -0.1206
34850W        W48264  11.715   4.146   0.775 -0.5388 -0.0555 -0.3458
34851W        W48265  11.621  12.239   0.962 -0.0316 -0.2543 -0.1499
34852W        W48266   4.908   8.890  11.456 -0.1039  0.0022  0.4255
34853W        W48267   2.907   2.563   3.176  0.2548  0.1787 -0.2772
34854W        W48268  10.561   7.176   3.956 -0.0573 -0.0077  0.1783
34855W        W48269  12.053   9.866   2.609 -0.2440  0.0332  0.1225
34856W        W48270  12.987   5.110  13.795 -0.2141  0.0669 -0.2287
34857W        W48271  17.520  17.873   1.140 -0.2037 -0.1959 -0.2910
34858W        W48272  17.075  17.834   0.329 -0.1636  0.3361  0.0873
34859W        W48273   5.853  15.454  12.593 -0.2994 -0.1669 -0.0016
34860W        W48274   9.092   6.929  16.081  0.2628  0.0897 -0.2502
34861W        W48275  10.535  18.216  10.060 -0.0462  0.0789 -0.0358
34862W        W48276  11.485   9.902   2.492 -0.3123  0.0885  0.0053
34863W        W48277   3.709  11.365   2.585  0.0233 -0.0398  0.0188
34864W        W48278   2.186   8.873   4.769 -0.0063 -0.0972 -0.0347
34865W        W48279   8.004  14.456   4.949 -0.1156  0.1269 -0.1266
34866W        W48280  15.486  13.709  14.528  0.1157 -0.0874  0.0680
34867W        W48281   6.596   0.300   5.861 -0.1437 -0.1616  0.2799
34868W        W48282   3.839  10.941   5.694 -0.0129 -0.0340  0.2177
34869W        W48283   3.001   3.835   4.150 -0.4524 -0.2276  0.0141
34870W        W48284  17.567   5.843  12.465  0.0521  0.1025  0.2909
34871W        W48285  15.404   4.889   5.213  0.0182 -0.2561 -0.0483
34872W        W48286   7.811  16.314  13.048 -0.0140  0.3890  0.0320
34873W        W48287   8.104   2.657   5.099  0.2130 -0.0918 -0.0399
34874W        W48288  11.040  13.273  13.529 -0.0631  0.0938 -0.0537
34875W        W48289  18.218  15.340   1.804 -0.1605  0.4300 -0.0062
34876W        W48290   1.114   8.862  12.516  0.0238 -0.1962 -0.2036
34877W        W48291   3.376   5.637  13.811 -0.3111 -0.0809 -0.2719
34878W        W48292  14.598   2.819  10.271 -0.1700  0.0243  0.0997
34879W        W48293   7.281  11.216  15.284  0.0084  0.2742  0.0668
34880W        W48294   8.374   8.869  15.368 -0.2200 -0.2998  0.1265
34881W        W48295   8.754   6.899   2.426 -0.0825 -0.1758 -0.4074
34882W        W48296   0.955  17.504  11.289 -0.1319  0.2159 -0.0883
34883W        W48297   2.298   0.185   5.479  0.0707  0.2553 -0.1979
34884W        W48298   5.544  10.123  14.185 -0.1742  0.1393 -0.1803
34885W        W48299   5.541   2.932  12.854 -0.0180 -0.0826  0.0379
34886W        W48300   2.794  10.585  11.580  0.0971  0.1219  0.2152
34887W        W48301   7.865  12.359  15.275  0.0797 -0.1410 -0.0853
34888W        W48302  11.315  15.738   0.443 -0.0151  0.3649 -0.1089
34889W        W48303   0.790   7.920   1.085 -0.1966  0.0285  0.1169
34890W        W48304   7.315   5.931  11.338 -0.3305 -0.0201 -0.0041
34891W        W48305  13.891   1.830   5.093  0.1837  0.0736 -0.4941
34892W        W48306  10.607  14.798   3.421  0.2129  0.0904  0.5491
34893W        W48307  17.770   5.004   4.594  0.0729  0.4461 -0.0755
34894W        W48308  14.768   2.154   1.149  0.2221  0.3847  0.2685
34895W        W48309  14.653   6.848   2.650  0.4061  0.2316 -0.0767
34896W        W48310   6.003  15.625   6.152 -0.0852 -0.0944  0.3150
34897W        W48311   6.194   4.195   5.117 -0.0502  0.0380 -0.1795
34898W        W48312   2.021   2.977  10.230 -0.0565  0.1312 -0.0065
34899W        W48313  17.937  16.860   3.306  0.1020 -0.0459  0.2894
34900W        W48314   0.195  15.122  15.192 -0.4218 -0.2293  0.2645
34901W        W48315   7.490  17.468  14.700 -0.0069  0.0648  0.3249
34902W        W48316   2.175  10.677  16.372  0.3472  0.1446 -0.1753
34903W        W48317  11.335  17.073  13.371 -0.2459 -0.1487 -0.0986
34904W        W48318   3.654  16.562  13.162  0.2404  0.2416 -0.0592
34905W        W48319   9.399   9.263  11.774  0.1209 -0.0486 -0.2807
34906W        W48320  14.437  11.960   3.891  0.1043 -0.0146 -0.1033
34907W        W48321  14.172   4.061  12.831 -0.0461 -0.3758 -0.0955
34908W        W48322  14.651  13.477   0.414  0.0288  0.0367  0.1785
34909W        W48323  10.965  16.415  10.685 -0.0205 -0.1290  0.1024
34910W        W48324   2.451   8.093   3.382  0.0053  0.2282  0.0294
34911W        W48325   7.185   9.089  11.627 -0.1237 -0.0686 -0.3013
34912W        W48326  11.979   1.866  14.233  0.0360  0.0473  0.0973
34913W        W48327  10.026  10.947  13.939  0.1358 -0.0483 -0.1773
34914W        W48328   5.281  12.091   4.413 -0.0981 -0.0588  0.0408
34915W        W48329  13.658  15.527  13.883  0.3155  0.0010  0.2587
34916W        W48330  17.318  13.729   4.338  0.1935 -0.1761  0.1421
34917W        W48331  17.745   5.994   0.579  0.0624  0.5183 -0.3935
34918W        W48332   2.467   5.638  13.729 -0.0460 -0.1159  0.0820
34919W        W48333   3.023  11.947   5.868 -0.1767  0.0323 -0.0212
34920W        W48334  11.989  14.967  12.917 -0.2330 -0.0761  0.2134
34921W        W48335  16.856   0.599  12.550 -0.1293 -0.0279 -0.0541
34922W        W48336  11.230   2.734  13.967 -0.0027  0.1682  0.4879
34923W        W48337  17.296   8.213   5.606 -0.0178 -0.1187  0.0515
34924W        W48338   4.220  11.873   0.853  0.1232 -0.0045 -0.0091
34925W        W48339   5.642  11.240   4.634 -0.0702  0.1287  0.0632
34926W        W48340   4.934   9.877   0.154  0.0120  0.0226 -0.0184
34927W        W48341   7.205  13.861   4.799  0.0395  0.3049  0.0639
34928W        W48342   4.384   0.779   4.708  0.0498  0.1808  0.2979
34929W        W48343   6.388   8.050  16.222  0.0548  0.0369 -0.5165
34930W        W48344  13.335  14.678   2.718 -0.0950  0.0208  0.4089
34931W        W48345   6.153   8.065  14.672  0.1690  0.0766  0.3191
34932W        W48346   1.980  13.857   4.916  0.0077 -0.1712 -0.0826
34933W        W48347   6.013  12.126   5.731 -0.3731  0.0991 -0.0424
34934W        W48348   3.143   6.328   6.002 -0.1706  0.4422  0.1042
34935W        W48349   9.877  10.941   6.353  0.3763  0.0770  0.2716
34936W        W48350   8.946   2.275  14.133  0.4400  0.4301 -0.2922
34937W        W48351  11.693   5.941   2.650 -0.0071 -0.0409 -0.1100
34938W        W48352   5.042  10.668  14.068  0.0113 -0.0809  0.0671
34939W        W48353  14.098   9.202  16.282 -0.1533 -0.2160 -0.0457
34940W        W48354   4.209   6.466  14.296 -0.0182  0.0505  0.1810
34941W        W48355  17.879  13.081   2.742  0.0437 -0.1883  0.1762
34942W        W48356   0.095   3.948  15.273 -0.3403  0.0110 -0.0602
34943W        W48357  11.781   7.473  16.319  0.0397  0.1606  0.1801
34944W        W48358  15.037   6.972   3.658  0.0404 -0.1049  0.2828
34945W        W48359   9.211  12.728  13.359  0.1366 -0.2365  0.0042
34946W        W48360   3.153   4.655   0.960 -0.0900  0.0599  0.0902
34947W        W48361   1.782  11.171  12.723  0.1790  0.2219  0.0380
34948W        W48362   9.675   2.446   2.563  0.3151  0.0698 -0.0126
34949W        W48363  12.428   7.570  15.448 -0.0275 -0.1767 -0.2596
34950W        W48364   1.600  11.761  13.964 -0.1111 -0.2240  0.2139
34951W        W48365   4.965   0.600  11.975 -0.4980 -0.0858 -0.1614
34952W        W48366  10.056   4.156  13.463  0.1377  0.0903 -0.0218
34953W        W48367   8.357   8.601   5.429 -0.2675 -0.2683 -0.1021
34954W        W48368  13.253  14.436   3.699  0.4060  0.0647  0.0130
34955W        W48369  10.678  15.719   1.069 -0.1437  0.0011 -0.2575
34956W        W48370   8.181  14.718  16.445  0.2176  0.1833 -0.3500
34957W        W48371   0.999   1.394   6.429 -0.2677 -0.1704 -0.0945
34958W        W48372   8.525  15.161   4.015  0.0211 -0.0864 -0.2492
34959W        W48373   2.280  12.246  12.397  0.0716  0.1324 -0.2176
34960W        W48374   4.347   7.812  12.183 -0.1725  0.0081  0.2695
34961W        W48375  12.684  12.528   4.456 -0.0698  0.0115 -0.0365
34962W        W48376  11.441   1.966  12.890  0.1367 -0.1389  0.0439
34963W        W48377  10.394  11.980   9.807 -0.4777 -0.2386  0.1544
34964W        W48378   1.888   0.915   4.783  0.0997  0.0091  0.2750
34965W        W48379   2.178   3.359   0.243 -0.0070  0.1511  0.3659
34966W        W48380  13.438   7.116   3.465  0.1748  0.3515 -0.0160
34967W        W48381   9.373  13.976  14.298  0.3064  0.0790 -0.0015
34968W        W48382   6.345   3.125   0.209 -0.1015  0.1466 -0.1023
34969W        W48383  16.935   7.341   5.017  0.0490 -0.2269  0.0136
34970W        W48384   4.660  15.450  12.165  0.0883  0.1031 -0.0240
34971W        W48385   8.134  16.709  10.740 -0.2149  0.1850  0.2125
34972W        W48386  14.955   4.710   4.960 -0.1439 -0.1016  0.0759
34973W        W48387   8.503  13.794  14.577 -0.2026 -0.1489  0.0082
34974W        W48388  11.623  11.771  15.061 -0.1498 -0.0751  0.2285
34975W        W48389  13.144   3.060   2.076 -0.1642  0.2422 -0.0270
34976W        W48390  17.146  16.057   0.705  0.2368 -0.0774 -0.1396
34977W        W48391  11.528   2.513   0.675  0.2437 -0.0348 -0.0251
34978W        W48392   8.576  17.155   5.130 -0.2533 -0.2231  0.1150
34979W        W48393   9.925   2.570  11.269 -0.3627  0.0153  0.2903
34980W        W48394  12.678  13.953  11.727 -0.0793 -0.0419 -0.0060
34981W        W48395   1.722   0.848  10.779 -0.0718  0.0508 -0.2808
34982W        W48396  13.145   9.856   3.733  0.0247 -0.3101 -0.0916
34983W        W48397   7.627  16.619   3.143  0.1112  0.0360  0.3326
34984W        W48398  12.873   1.486   0.292 -0.2257 -0.1092 -0.1232
34985W        W48399  18.041  12.042  14.953 -0.0341  0.1152 -0.1308
34986W        W48400   3.549   7.277   0.981  0.1331 -0.0023  0.1636
34987W        W48401  16.224   6.416   4.551  0.0310  0.0795  0.0106
34988W        W48402  16.257  11.423   6.409 -0.0745 -0.0132 -0.1958
34989W        W48403   4.161   8.410   4.292 -0.1056 -0.1826 -0.2025
34990W        W48404   5.865   4.908  15.557  0.0664  0.1634  0.1601
34991W        W48405  17.463  11.218   2.998 -0.2414 -0.2547  0.1624
34992W        W48406  13.998  12.974  16.471  0.0570 -0.0555  0.2112
34993W        W48407  13.098   5.091   4.083  0.0159 -0.3030 -0.3199
34994W        W48408  14.208   6.272  10.381  0.4457  0.2635  0.1022
34995W        W48409  15.953  10.398  10.543  0.0756 -0.1272 -0.4228
34996W        W48410   0.881   9.590  14.058 -0.2539  0.0959 -0.3191
34997W        W48411  17.714   4.081   1.482 -0.0125 -0.1611  0.1729
34998W        W48412  13.208   0.932  14.002 -0.1784  0.4378 -0.2244
34999W        W48413  16.896   3.669   5.474  0.0154  0.2436 -0.1085
35000W        W48414   6.163  12.999  12.372 -0.0382  0.1407 -0.1104
35001W        W48415   9.137  16.165  13.195  0.2846 -0.2103 -0.1348
35002W        W48416   6.318   0.693  12.135  0.3271 -0.1210  0.0129
35003W        W48417  11.714   9.547   5.674 -0.1563  0.0928  0.0639
35004W        W48418   7.152  10.108   3.224  0.0842 -0.1134  0.0454
35005W        W48419   8.175  11.031   1.382  0.5087  0.0673 -0.3602
35006W        W48420   4.590  17.023  12.477 -0.4477 -0.3396 -0.2638
35007W        W48421  17.138  16.214  12.774  0.1363 -0.0042 -0.3341
35008W        W48422   6.381  13.261   0.988 -0.0751 -0.0858 -0.1759
35009W        W48423   5.717   5.939  10.426 -0.2671 -0.0695 -0.1690
35010W        W48424  10.684   1.622  15.763  0.2017  0.0412  0.0830
35011W        W48425  15.108   4.455   1.197 -0.0912  0.0910  0.0590
35012W        W48426   2.706   3.771   2.538  0.0539 -0.0107 -0.4191
35013W        W48427   1.824  17.433   2.799  0.3293 -0.1643  0.1553
35014W        W48428   4.920  16.533  15.050  0.0758 -0.2194 -0.2648
35015W        W48429  10.724  16.160   3.478  0.0650 -0.1661 -0.3402
35016W        W48430  16.152  10.748   5.708  0.1931 -0.1539  0.0701
35017W        W48431   7.847   3.400  10.949  0.0007  0.0306 -0.0791
35018W        W48432  14.752  18.094   2.731  0.0952  0.0166 -0.2894
35019W        W48433   6.981   9.114   3.103  0.1003  0.0074  0.0019
35020W        W48434   2.396   9.615  16.314 -0.0194 -0.1329  0.0366
35021W        W48435   1.526   3.091  12.942  0.1409  0.1395  0.1068
35022W        W48436   2.165  15.318  11.565  0.1311  0.0175 -0.0384
35023W        W48437  12.037  11.115  11.730  0.0457 -0.2846  0.1419
35024W        W48438   5.054   5.443   0.555  0.0008 -0.4707 -0.2407
35025W        W48439  14.363   1.099   5.605  0.1047 -0.3036  0.1162
35026W        W48440   7.614   7.874   0.281 -0.2379  0.0962  0.1405
35027W        W48441   8.047  10.512  13.916 -0.0525  0.2936 -0.1719
35028W        W48442  12.662   0.589   5.698 -0.0742  0.0282 -0.4721
35029W        W48443   7.024   4.644  14.856 -0.1400  0.1663 -0.1986
35030W        W48444   8.375  13.286  11.763 -0.1002  0.1820  0.1634
35031W        W48445  15.281  13.842   2.745  0.0375 -0.3224 -0.1381
35032W        W48446   3.498   2.465   3.211 -0.0888  0.0045 -0.0835
35033W        W48447  16.312   6.379   1.720  0.3875  0.1403 -0.0874
35034W        W48448  17.059  16.307   1.800  0.1168  0.2466  0.2589
35035W        W48449   2.805   7.037  14.673 -0.0249 -0.1804  0.1328
35036W        W48450   0.832   1.333  12.244 -0.1555 -0.0151  0.1924
35037W        W48451   7.894   7.885   0.738 -0.1667  0.1493  0.0142
35038W        W48452  16.137   9.894   4.061  0.2266 -0.4418 -0.1582
35039W        W48453   2.032   0.068   4.236  0.0146  0.0538  0.0087
35040W        W48454   5.061   6.566   1.574 -0.0447 -0.3542  0.2322
35041W        W48455   3.912  12.300   2.125 -0.0433  0.2204  0.0136
35042W        W48456  17.739   1.069   3.595 -0.0286 -0.2850 -0.0035
35043W        W48457  13.417  17.842   2.764 -0.1110 -0.0138 -0.0855
35044W        W48458   5.167   8.132   1.429  0.1572  0.4197 -0.1859
35045W        W48459   1.483   5.984  15.463  0.0450  0.0923 -0.3623
35046W        W48460   1.507  11.946   4.918 -0.1165  0.0345 -0.2056
35047W        W48461   3.413   3.209   2.229  0.0206 -0.0614 -0.0323
35048W        W48462   5.457  10.829  15.244 -0.0545 -0.0814  0.1451
35049W        W48463  10.661   0.459  15.189  0.1945 -0.2403  0.3381
35050W        W48464   6.360   1.339  15.369  0.0777 -0.0973  0.1319
35051W        W48465  10.249   5.485   0.561  0.1844 -0.2617 -0.0442
35052W        W48466   6.648  12.884  11.485  0.0763 -0.1447  0.1096
35053W        W48467  10.455  11.162   2.984  0.3122 -0.1095 -0.3301
35054W        W48468   1.492   9.642  13.153  0.2144 -0.0487 -0.2328
35055W        W48469   2.861  10.734  12.993  0.1638  0.5209  0.0088
35056W        W48470   7.267   4.598  12.601  0.0733 -0.0454  0.0241
35057W        W48471  16.348  18.115  14.683 -0.0571  0.2735 -0.0558
35058W        W48472  11.166   7.876   1.441  0.0718  0.0128 -0.0766
35059W        W48473  13.602   0.659   1.808 -0.2970  0.0257  0.0399
35060W        W48474   5.574   8.935  12.716 -0.0189  0.1877 -0.1022
35061W        W48475   3.605  14.242   6.608 -0.1701  0.0860 -0.2267
35062W        W48476   5.259   0.929  11.293 -0.1136 -0.0584  0.1760
35063W        W48477  11.124   3.366   2.395  0.0791 -0.1350 -0.0504
35064W        W48478   7.288  11.138  12.668 -0.2366  0.4247  0.0125
35065W        W48479   2.036   6.363  11.654 -0.0247  0.0480 -0.1790
35066W        W48480   9.529   9.727   0.641 -0.0017  0.1323 -0.0729
35067W        W48481   6.559  17.660   0.048  0.1451  0.1228  0.0718
35068W        W48482  10.109   4.249   3.738  0.1017 -0.3310 -0.0397
35069W        W48483  12.986  10.130  15.266 -0.0664  0.2086 -0.2328
35070W        W48484  12.664  10.085  11.182 -0.0062 -0.0240  0.3078
35071W        W48485   0.220   7.566  15.808  0.0394 -0.1696 -0.1516
35072W        W48486  13.760  18.052   5.745  0.2999 -0.0412 -0.2484
35073W        W48487  12.148   6.082   3.683 -0.0620  0.1474 -0.0159
35074W        W48488  13.165   4.316  12.532 -0.3107 -0.2205  0.2626
35075W        W48489  13.714   3.056   2.669  0.0264 -0.1808 -0.1691
35076W        W48490   7.609   8.271  11.084 -0.0686 -0.0943  0.0976
35077W        W48491  14.737   2.938   5.085 -0.0833  0.2116  0.0138
35078W        W48492   9.538  17.058   3.410 -0.0659 -0.1944  0.1580
35079W        W48493   8.142  17.373  11.985 -0.1237  0.0403 -0.0845
35080W        W48494   4.465  10.768   2.808 -0.2623 -0.2814  0.1878
35081W        W48495  11.744   5.682  16.189  0.1979 -0.2565 -0.1252
35082W        W48496   2.544   8.061   1.563  0.1551 -0.0187 -0.0954
35083W        W48497   1.987  14.670   3.454  0.2848 -0.2273  0.0170
35084W        W48498  17.223   3.749   2.189 -0.3509 -0.3256  0.1815
35085W        W48499   7.918   3.305  12.280 -0.4264 -0.0313 -0.1366
35086W        W48500   9.181   8.012  15.651  0.0185  0.0087  0.0831
35087W        W48501   7.663   9.160  15.924  0.0583  0.1485 -0.1057
35088W        W48502   7.735  10.946  11.468  0.0115 -0.1770 -0.1534
35089W        W48503   7.924  10.460  12.951 -0.1212 -0.2092 -0.0834
35090W        W48504  12.338  14.916   0.965  0.1216 -0.0179 -0.0272
35091W        W48505   9.255  15.873  15.772 -0.0645 -0.0856 -0.0778
35092W        W48506   6.506   6.359   2.289  0.1799  0.0385  0.0597
35093W        W48507  14.263  12.338  15.900  0.0836 -0.0367 -0.1435
35094W        W48508  14.371  17.563  15.138 -0.1918  0.0899  0.1200
35095W        W48509   7.632   2.601  16.099  0.0382 -0.3204  0.0933
35096W        W48510   0.516  11.534  13.742  0.0885 -0.2335 -0.1841
35097W        W48511   5.564   8.668   4.212 -0.2666 -0.1325  0.0353
35098W        W48512   2.984  12.380  12.244 -0.0778 -0.1587 -0.2779
35099W        W48513   4.675   2.808  11.886 -0.0055 -0.2454 -0.0660
35100W        W48514   2.716  18.196  13.576 -0.0832 -0.3031  0.1185
35101W        W48515  17.489   4.666   4.351 -0.1520  0.1259  0.1448
35102W        W48516   4.577   1.001  12.704 -0.0753  0.1593 -0.3456
35103W        W48517  17.708   7.577  11.892  0.2111  0.0560  0.1951
35104W        W48518  10.463  13.451   1.751 -0.0592  0.0510 -0.1303
35105W        W48519  14.582   4.893   1.395  0.0958 -0.3138  0.1289
35106W        W48520   5.565   1.317   3.647  0.1135  0.1813  0.1949
35107W        W48521   4.406  13.933  12.993  0.0226  0.1087  0.0263
35108W        W48522   0.170   3.253  12.242  0.1256  0.2629  0.1223
35109W        W48523  10.639  14.960   5.067 -0.0913 -0.0791  0.1826
35110W        W48524   9.485   4.964  12.570  0.0989  0.1224 -0.0894
35111W        W48525  12.184   6.233   3.147  0.2275 -0.2955  0.2246
35112W        W48526   7.851  12.473  12.195 -0.0378  0.3771  0.1900
35113W        W48527   2.814  10.783   1.978 -0.1135  0.0306  0.0145
35114W        W48528   2.112  10.475  15.931  0.1090  0.1007  0.2114
35115W        W48529  17.657   6.127   1.111  0.3004 -0.1292  0.0166
35116W        W48530   1.358  15.386   4.626 -0.2349  0.3281 -0.0614
35117W        W48531   7.768   0.647   2.436 -0.0063  0.0114 -0.1867
35118W        W48532  18.001  10.213  12.865  0.0252 -0.0075  0.1370
35119W        W48533   4.209   4.718   5.795  0.0882 -0.2247  0.0310
35120W        W48534  12.201  14.257  11.742  0.0750  0.1786  0.0178
35121W        W48535  14.530   0.504  15.867  0.0852 -0.2015 -0.1803
35122W        W48536   0.890   9.187   4.409 -0.1970  0.0268 -0.3138
35123W        W48537   8.686   9.485  12.481 -0.2016 -0.1639 -0.0408
35124W        W48538  14.259  17.755   0.254  0.4205 -0.1156 -0.2991
35125W        W48539  12.318  12.529  11.685  0.1293  0.0995  0.3121
35126W        W48540   6.238  15.063   1.982  0.0058 -0.0314  0.3517
35127W        W48541   9.645   7.757   3.598  0.2538  0.1813  0.1752
35128W        W48542   8.247  13.880  12.845 -0.1669  0.3596 -0.0913
35129W        W48543  11.241   7.578   3.481 -0.0910  0.1628 -0.3300
35130W        W48544   6.917  13.179  11.772  0.0774  0.0078  0.2039
35131W        W48545   7.245  14.915  15.708  0.0470  0.0377  0.0280
35132W        W48546   0.983   1.910   6.427 -0.0210  0.1186  0.0251
35133W        W48547  15.025  13.949   5.342 -0.3917 -0.1242 -0.3594
35134W        W48548   4.145  12.028  10.882  0.1179  0.1556 -0.3745
35135W        W48549   1.655   3.907   2.763 -0.0725  0.1308 -0.1426
35136W        W48550   8.203  11.801   0.033 -0.0753 -0.2408  0.2672
35137W        W48551  18.048   6.089   3.435 -0.0808  0.0706 -0.0294
35138W        W48552  14.244   2.045   5.631  0.1743  0.2767  0.0803
35139W        W48553   4.767   9.751   1.292  0.3754 -0.1773 -0.1083
35140W        W48554  13.331  11.376   6.267 -0.0128 -0.1399 -0.0152
35141W        W48555  10.288   9.520   0.671  0.1174  0.1271 -0.0084
35142W        W48556   7.074  16.833  16.026 -0.2742  0.2512  0.0009
35143W        W48557   6.054   7.520  10.793 -0.1044  0.2097 -0.1471
35144W        W48558   3.727   3.034  13.511 -0.3299  0.3033  0.0305
35145W        W48559   4.414  13.120  14.067  0.2051 -0.3250 -0.2909
35146W        W48560  11.349  16.653  11.964  0.0975  0.0152 -0.0482
35147W        W48561   5.010   0.432   5.584  0.1278  0.3568  0.3059
35148W        W48562  15.719  10.752  11.304 -0.3366  0.0975 -0.0974
35149W        W48563  18.094   6.898   6.783  0.1572  0.2233  0.2843
35150W        W48564  16.978  12.767   3.391  0.1506  0.1009 -0.0635
35151W        W48565  13.001   8.654   4.551 -0.1084  0.0823 -0.1400
35152W        W48566   5.932   2.730   5.932  0.2647 -0.1076  0.1887
35153W        W48567   8.200  12.502   1.814  0.1988 -0.0518  0.0477
35154W        W48568   8.588  13.039   0.567  0.0965  0.3042 -0.2849
35155W        W48569  14.784   7.939  10.737  0.2922 -0.0926  0.2336
35156W        W48570   7.836   4.449   3.560  0.0016 -0.2832 -0.2343
35157W        W48571   1.384  11.647  12.705 -0.3837 -0.0930 -0.0564
35158W        W48572   2.111   8.343  16.192 -0.1395  0.0867  0.2006
35159W        W48573   6.409   5.851   1.383 -0.1193  0.3092 -0.1267
35160W        W48574   2.705   2.847   6.016 -0.1085 -0.0140 -0.0937
35161W        W48575   0.450  12.737   3.153 -0.2007  0.0058 -0.0706
35162W        W48576  10.486   7.478   1.865  0.0596  0.1030  0.2067
35163W        W48577  10.119  11.489  11.961 -0.1022 -0.1093  0.0032
35164W        W48578  15.517  10.739  12.533  0.0084  0.2198  0.1376
35165W        W48579   6.254  11.371  15.046 -0.4196 -0.1830  0.0378
35166W        W48580   7.185   1.042  15.090  0.0863  0.2386 -0.0495
35167W        W48581  15.011  17.456   5.310 -0.0876 -0.0035  0.1185
35168W        W48582   9.133   3.931  11.210 -0.3325 -0.0933  0.1825
35169W        W48583   9.197   9.459   2.840  0.4528  0.0731 -0.2560
35170W        W48584   5.529   9.617   0.778 -0.1536 -0.0204  0.1049
35171W        W48585   8.360  11.569  15.963  0.1057 -0.0023 -0.0948
35172W        W48586  15.107  10.631  12.839  0.0164 -0.0757  0.2056
35173W        W48587   8.586   2.951  15.415  0.0105  0.1010  0.0671
35174W        W48588   4.049  14.846  13.192  0.0752  0.0474 -0.4054
35175W        W48589  10.412   8.880   6.324 -0.0577  0.1253 -0.0310
35176W        W48590   8.408   5.926  11.308 -0.2270 -0.1784 -0.1544
35177W        W48591   1.624  10.814  13.781 -0.2666  0.0488  0.0020
35178W        W48592   1.775  14.177  12.669  0.0973  0.2511 -0.1311
35179W        W48593  10.211  11.019   1.136  0.0117  0.1488  0.1776
35180W        W48594  17.427   6.462   3.241  0.1727  0.1924  0.1138
35181W        W48595  15.565   6.959   2.789  0.1754  0.0848 -0.2757
35182W        W48596   8.189  11.457  12.039  0.1874  0.0933 -0.1731
35183W        W48597  11.726   9.607   0.563 -0.0026 -0.0842 -0.1003
35184W        W48598   9.267   3.593  11.944  0.2037 -0.2618  0.2085
35185W        W48599  12.870  17.117  11.533  0.1589 -0.0063  0.0714
35186W        W48600  12.269  15.131  12.506  0.1515  0.2614 -0.0694
35187W        W48601   3.679  17.506   1.406  0.0201  0.0752 -0.1317
35188W        W48602   6.040  13.027  12.859  0.1790 -0.2923 -0.0255
35189W        W48603   2.714   6.541   3.487 -0.1348 -0.2707  0.0517
35190W        W48604   4.907   1.039   0.168  0.2059 -0.1137  0.1545
35191W        W48605  16.142   5.469  11.171 -0.0067 -0.0543  0.0923
35192W        W48606   6.277  12.751   1.169  0.0151 -0.2847  0.0606
35193W        W48607   5.786  14.616  10.808  0.0771 -0.1931 -0.2137
35194W        W48608  10.612   1.447  14.861  0.0326  0.0257 -0.1688
35195W        W48609   3.688  13.250   6.177 -0.1238  0.0417  0.0690
35196W        W48610  15.357  17.768   5.402  0.1539  0.3100 -0.1364
35197W        W48611  12.460  11.824   5.920  0.0962  0.1223 -0.1532
35198W        W48612  13.842  11.868  14.081  0.0465  0.2098  0.1779
35199W        W48613  15.412  14.910   0.547 -0.0186  0.0213  0.3769
35200W        W48614  17.683   4.432   3.179 -0.1416 -0.3450 -0.0074
35201W        W48615   4.605  17.300   4.540 -0.0701  0.3493 -0.0752
35202W        W48616  16.123  11.336  13.051 -0.0884  0.2448 -0.3467
35203W        W48617  17.961   9.698  14.923  0.0517 -0.0383  0.0389
35204W        W48618  10.583  17.333  12.701  0.2578  0.2343  0.1805
35205W        W48619   6.911   1.124   3.365  0.0065  0.0438  0.2704
35206W        W48620   7.438   9.658   4.837 -0.1949 -0.0218 -0.2437
35207W        W48621   2.540  13.714   5.615  0.0488  0.0472 -0.3623
35208W        W48622   4.802   4.492   1.839 -0.0309  0.1726 -0.3005
35209W        W48623  11.195   0.169   4.077 -0.0051 -0.3807  0.2580
35210W        W48624   5.780  16.405   1.233  0.1162  0.1507  0.0136
35211W        W48625   1.187  11.596  14.935  0.0770  0.1426  0.0046
35212W        W48626   4.707  14.189   1.259 -0.3962  0.1830  0.2884
35213W        W48627   4.795   9.753   2.220  0.1675  0.3654  0.1798
35214W        W48628  10.376   7.236   3.008 -0.1969  0.2151  0.4848
35215W        W48629  14.079   0.762  14.457  0.1488  0.2742  0.2263
35216W        W48630  11.231  15.261  15.898 -0.1391  0.0148 -0.2296
35217W        W48631  13.551  12.362   3.691 -0.2113  0.1463  0.0541
35218W        W48632   6.770  15.156  10.924  0.0087  0.1064 -0.2444
35219W        W48633   5.730  14.186  15.370 -0.1550 -0.0048 -0.2308
35220W        W48634  16.030   8.385  13.419 -0.1772 -0.2093  0.1625
35221W        W48635  12.807  16.222   0.658  0.2869  0.0969 -0.2052
35222W        W48636  15.863   4.393   0.648  0.3033 -0.0400 -0.1514
35223W        W48637   8.498   9.620   3.909 -0.1489  0.2205  0.0222
35224W        W48638   6.527  17.076   5.014  0.0714  0.1393 -0.2429
35225W        W48639   9.537  10.363   1.714  0.0900 -0.1603 -0.3197
35226W        W48640   8.756  13.368  10.393 -0.0776 -0.3182 -0.3852
35227W        W48641   5.405  15.257   3.421  0.2876  0.3212  0.0388
35228W        W48642  16.099   4.619  15.673 -0.2375  0.0555  0.0552
35229W        W48643   6.639  17.014  15.648 -0.1924  0.4806  0.0772
35230W        W48644  10.778   8.492  11.596  0.0644 -0.2210  0.0113
35231W        W48645   2.971   0.713   2.120 -0.2934 -0.1799 -0.3913
35232W        W48646   5.570   9.612  14.358 -0.5582  0.0729 -0.0207
35233W        W48647   1.590  10.855  14.603 -0.1782  0.1419 -0.3238
35234W        W48648  16.244   2.273   1.372 -0.3584  0.0550  0.1489
35235W        W48649   2.443  17.462  14.362 -0.2599 -0.3440 -0.0353
35236W        W48650  13.652  11.593   2.782 -0.1436  0.1460  0.1840
35237W        W48651  14.376   1.313  11.331 -0.1839  0.1254  0.1940
35238W        W48652  15.448  17.932   5.908  0.0129  0.0344 -0.0004
35239W        W48653   1.095  13.448  12.447 -0.0198  0.1510 -0.1699
35240W        W48654  14.850   0.989  10.600 -0.0856  0.2171  0.0760
35241W        W48655  18.232  17.250  13.917 -0.0746  0.0873  0.1875
35242W        W48656  15.362  12.922  10.885  0.1067  0.0763  0.4100
35243W        W48657  14.362   5.214   3.089  0.0114 -0.1136 -0.3223
35244W        W48658  16.976   3.728   0.462  0.1083  0.0108  0.1185
35245W        W48659   3.924  14.234   6.125 -0.1042  0.0224 -0.1825
35246W        W48660   0.492  14.816   0.942  0.2270  0.0842 -0.1669
35247W        W48661   5.098   6.028   3.421 -0.2062  0.0337 -0.1379
35248W        W48662  13.036   9.851  14.815 -0.0372  0.0462 -0.1374
35249W        W48663  10.329   6.551  11.331 -0.3761  0.1962 -0.1676
35250W        W48664   5.968   9.030  14.451  0.0068 -0.1021  0.0443
35251W        W48665  10.918  17.844  10.846  0.1324 -0.1251 -0.1647
35252W        W48666   6.056   3.869   4.775 -0.0446  0.1686 -0.1475
35253W        W48667  10.944   8.564   2.581  0.1990  0.0554 -0.1630
35254W        W48668   2.649   3.817   3.734  0.0848  0.0563 -0.0027
35255W        W48669   4.160   9.791  14.624  0.0718  0.2048  0.1042
35256W        W48670   4.324   3.613  14.608 -0.1366 -0.1811  0.0072
35257W        W48671  17.977  13.960  12.360 -0.2225 -0.2011 -0.0213
35258W        W48672  16.086  18.246  14.287 -0.0541  0.0363  0.0575
35259W        W48673  11.998   2.195  11.642 -0.1375  0.1880 -0.1602
35260W        W48674  14.351   9.750  11.533 -0.0060 -0.0228  0.1851
35261W        W48675  10.724  14.107  11.642  0.1106  0.0927 -0.1791
35262W        W48676   5.492  15.897  15.134 -0.0329  0.2670  0.1720
35263W        W48677  16.557   2.248  13.737 -0.0636  0.1614 -0.0163
35264W        W48678   7.439   7.238  15.574  0.0153 -0.0166  0.3239
35265W        W48679   8.934  14.124  14.431  0.1451  0.0581  0.0568
35266W        W48680   8.078   2.132   2.467 -0.0140 -0.1411 -0.2044
35267W        W48681  17.399  15.289   6.563  0.2632  0.1024 -0.1520
35268W        W48682   4.153   6.059  12.333  0.1268  0.1928 -0.0162
35269W        W48683   3.352  14.161   6.123 -0.2004  0.0483 -0.0301
35270W        W48684  13.470  15.486  14.909 -0.0108  0.1084  0.2168
35271W        W48685   3.490   2.956  14.311  0.2422  0.0674 -0.0878
35272W        W48686   5.840  10.096   3.073  0.0480 -0.0850  0.0212
35273W        W48687   2.580  16.745   3.692 -0.0507 -0.2061  0.0175
35274W        W48688  11.865   6.186  16.067 -0.1112 -0.0130  0.0595
35275W        W48689  16.816  16.873   6.064 -0.0648  0.0589  0.0719
35276W        W48690   5.580   8.281   3.858 -0.0573 -0.2443  0.1008
35277W        W48691  17.095   7.354   2.148  0.0977 -0.0518  0.1989
35278W        W48692   8.663   1.100  11.282  0.1123  0.1344  0.0398
35279W        W48693  17.980  10.536   4.006 -0.1263  0.0483 -0.0056
35280W        W48694   6.383   8.023  12.015  0.3592 -0.0427 -0.2367
35281W        W48695  12.933  13.317   3.866  0.0315 -0.0285  0.0554
35282W        W48696  13.872  13.983  10.118 -0.0757  0.2873  0.1814
35283W        W48697   4.481   9.136   0.139  0.2226  0.0083  0.1161
35284W        W48698   7.866  13.943   1.172 -0.2791  0.0924 -0.0919
35285W        W48699  15.869  13.639  14.007  0.0488  0.1911 -0.1371
35286W        W48700   7.346   7.436   4.403 -0.1518  0.0206 -0.0478
35287W        W48701   7.990  12.825  14.054 -0.2694  0.0612 -0.1244
35288W        W48702  17.263   8.996   1.271  0.2463  0.1135  0.3216
35289W        W48703  15.944  12.785   2.721  0.1959 -0.0522 -0.3227
35290W        W48704   3.022  17.461   6.368 -0.0724  0.1168 -0.1176
35291W        W48705   5.458   9.972   0.346  0.2202  0.2054  0.1184
35292W        W48706  17.419   4.479   3.875 -0.0222  0.1254 -0.0405
35293W        W48707   3.797   5.742   3.487  0.1232  0.0017 -0.0150
35294W        W48708  12.125   6.333  15.578 -0.2103  0.1050 -0.2453
35295W        W48709  13.041   5.872  10.979  0.0780  0.1127 -0.0883
35296W        W48710  15.904   4.514   5.139 -0.1428  0.1875  0.0199
35297W        W48711   1.510  17.669  13.800 -0.1543 -0.0060  0.2601
35298W        W48712   9.033   6.840  13.902 -0.0370 -0.1431 -0.0066
35299W        W48713   3.721   1.904   4.815 -0.0701  0.0861  0.0449
35300W        W48714  14.931   1.800  14.095  0.4403  0.1443  0.2515
35301W        W48715   0.341  10.473   5.780 -0.1429 -0.0145  0.1987
35302W        W48716   9.561   2.355   0.774 -0.0839  0.2391 -0.1058
35303W        W48717  12.964  12.075   1.504 -0.3530  0.0400 -0.2733
35304W        W48718  11.215  13.489   0.706  0.0806 -0.0386 -0.0859
35305W        W48719   4.034  16.509   4.506  0.0656 -0.1306  0.1339
35306W        W48720  14.169  12.191   0.999  0.0197  0.0561  0.0588
35307W        W48721   6.755   8.688   3.976  0.1401  0.2729  0.2986
35308W        W48722   9.575   8.213   1.381  0.0270 -0.2845  0.1166
35309W        W48723   8.707   7.508   3.935 -0.0858 -0.0586 -0.0857
35310W        W48724  13.514  13.337  15.067 -0.1777 -0.3150 -0.2348
35311W        W48725   5.222  15.704   4.097  0.0645 -0.0658  0.2647
35312W        W48726   9.074  18.019   2.476 -0.0130  0.0693  0.1979
35313W        W48727   8.881  14.503  10.830  0.2759 -0.0903  0.0271
35314W        W48728  14.486   0.219   5.223 -0.0370 -0.0838 -0.1196
35315W        W48729   9.384  13.880  13.019 -0.0435 -0.2229 -0.1396
35316W        W48730  11.219   8.052   5.787 -0.3503  0.1857 -0.1165
35317W        W48731  15.205  17.325  16.358  0.1513 -0.0140  0.0660
35318W        W48732   7.952   0.126   2.471  0.4519 -0.2830  0.2607
35319W        W48733   0.486  11.261  12.779  0.2439 -0.0287  0.0609
35320W        W48734   3.656   3.590   1.339 -0.1894 -0.1671 -0.3650
35321W        W48735   0.535  15.960   5.111  0.1097 -0.0824  0.0102
35322W        W48736   4.488   8.239   4.002 -0.0235  0.0643  0.0341
35323W        W48737   7.026  15.021   5.471  0.1148  0.0398 -0.2421
35324W        W48738  13.657  12.880   3.857  0.0954 -0.1708 -0.0440
35325W        W48739   0.371   7.669  15.350 -0.2278  0.1576 -0.0576
35326W        W48740   8.439   5.816  12.008 -0.0026  0.0062  0.1154
35327W        W48741   2.021  15.711   2.770 -0.2068  0.0099 -0.1918
35328W        W48742  13.117   5.313  11.775 -0.2168  0.3214 -0.1985
35329W        W48743   6.461  10.874  11.962 -0.0626 -0.1530 -0.0658
35330W        W48744   8.417   6.608  11.988 -0.0749  0.0645 -0.2853
35331W        W48745  13.423   4.348  12.012  0.2989  0.3539  0.1018
35332W        W48746   3.783   8.296   2.178  0.0990  0.1991  0.2292
35333W        W48747   9.217  11.373  15.361 -0.2478  0.1937  0.2257
35334W        W48748  11.828  15.327   4.745 -0.0323  0.0930 -0.1944
35335W        W48749   2.319  17.462   0.739  0.1633 -0.1351 -0.1067
35336W        W48750  12.859   1.182   2.212  0.2444 -0.0959 -0.1515
35337W        W48751  17.218  15.032   0.651 -0.2105  0.0577 -0.3511
35338W        W48752   3.097   1.455  15.751 -0.1778 -0.3096 -0.0812
35339W        W48753  15.557   3.431  15.819 -0.1994  0.0914  0.1193
35340W        W48754  13.998  15.584   5.142  0.2673  0.0463  0.2374
35341W        W48755   5.155   2.887  11.721  0.1321 -0.1312 -0.0645
35342W        W48756   3.516   7.831  11.816 -0.1153  0.2417  0.1501
35343W        W48757   6.574  12.963  12.652  0.2546 -0.0851 -0.3233
35344W        W48758  17.208  14.417   0.776 -0.0543  0.1928  0.1653
35345W        W48759   5.316   2.134   5.606 -0.3249 -0.1068 -0.4312
35346W        W48760   9.721   5.739  16.306 -0.1617 -0.0475  0.0222
35347W        W48761   2.308   8.058   0.281 -0.1422 -0.4193  0.2276
35348W        W48762  15.042   2.415  14.777  0.1917  0.4838 -0.3609
35349W        W48763  16.887  12.358  12.503  0.1683 -0.2615  0.0178
35350W        W48764  11.872  14.603  15.448  0.0654  0.1680  0.0995
35351W        W48765  14.904   9.983   5.862  0.2061  0.1353  0.1822
35352W        W48766  10.045  11.665   0.148  0.0687 -0.2087 -0.2857
35353W        W48767   4.154   4.009  12.539  0.1678 -0.2746  0.0291
35354W        W48768   2.605  14.403  13.207  0.1142  0.0215 -0.0550
35355W        W48769   1.869   0.534  15.230 -0.0365  0.2028  0.0934
35356W        W48770   1.464  10.491   5.181  0.3395 -0.0215  0.1267
35357W        W48771  14.963   1.755  15.071  0.1704 -0.1312 -0.1204
35358W        W48772  11.589   4.912  16.374  0.1606 -0.1856  0.4349
35359W        W48773  13.138   6.522   6.094 -0.1390  0.0681  0.0013
35360W        W48774   2.326  15.876  16.184  0.0724 -0.1021  0.1786
35361W        W48775   5.481   9.705  15.397  0.3091  0.2075  0.1441
35362W        W48776   7.757  12.244   3.051 -0.3129  0.1612 -0.0861
35363W        W48777  10.004   9.947  14.138 -0.1335  0.2783 -0.1294
35364W        W48778  13.256   6.292   3.757 -0.0020 -0.2675  0.1690
35365W        W48779   4.025  13.283   5.364 -0.1111  0.0022 -0.3867
35366W        W48780  12.384   3.556   5.340  0.1111  0.0423  0.3222
35367W        W48781  14.028   2.113   2.777  0.2049  0.1191 -0.0509
35368W        W48782  12.834   1.848  10.637  0.1242 -0.0030  0.1677
35369W        W48783   9.730   4.046  13.014  0.0305 -0.2115  0.5306
35370W        W48784  11.683  17.961  15.148 -0.1551  0.2283  0.1648
35371W        W48785   6.970   3.110  13.578 -0.0624  0.0481  0.0227
35372W        W48786  15.857  12.185   3.899  0.3221  0.0676 -0.0444
35373W        W48787   0.405  16.087  12.847 -0.1579  0.0499 -0.0121
35374W        W48788  17.430  11.144   0.166  0.1145  0.0645  0.0197
35375W        W48789  13.940   1.400   0.474  0.4114 -0.0409  0.0282
35376W        W48790  14.950  12.957   1.050 -0.3546 -0.3747 -0.1256
35377W        W48791   9.507  15.902   4.892 -0.0422  0.0362 -0.2209
35378W        W48792   8.135   9.224   1.433 -0.1265  0.4055  0.0088
35379W        W48793   3.109  11.719   2.175 -0.0986  0.2297  0.0158
35380W        W48794  14.085   7.548   0.401 -0.3386  0.0731 -0.2542
35381W        W48795   8.596   4.013  14.284  0.1430 -0.1170  0.2612
35382W        W48796  15.556   7.841  15.905 -0.0379  0.0374 -0.1874
35383W        W48797  14.176  10.691   1.937 -0.0090 -0.1820  0.1497
35384W        W48798  12.596   9.090  10.394 -0.2505  0.0283 -0.1149
35385W        W48799   3.684   1.054   3.060 -0.1021  0.3379  0.0423
35386W        W48800   1.222  14.795   2.438 -0.0757  0.2950 -0.0671
35387W        W48801  13.256  15.417  13.612  0.3995  0.0353  0.5245
35388W        W48802   0.610  12.104   0.305  0.1882 -0.1753 -0.0090
35389W        W48803   2.065   0.909  13.858 -0.1318 -0.1948 -0.3250
35390W        W48804   9.080  11.361  16.358  0.2258 -0.0629 -0.0480
35391W        W48805   4.968   5.087  13.053  0.3426  0.0567  0.1150
35392W        W48806  13.310  16.915  15.323 -0.3134 -0.1093 -0.3016
35393W        W48807  13.318   3.374  12.816  0.2941  0.1639  0.1517
35394W        W48808  12.708  17.189  15.074  0.1285 -0.3053 -0.0326
35395W        W48809   4.440   6.149  14.004 -0.1602 -0.2027  0.1259
35396W        W48810   9.746  11.672   3.295  0.0638  0.3250 -0.1645
35397W        W48811  13.233  11.679  10.044 -0.1988  0.0776 -0.0142
35398W        W48812   0.072  14.394   4.479 -0.3083 -0.2489  0.2280
35399W        W48813  17.783  14.377  12.754  0.1272  0.0420  0.0792
35400W        W48814  16.753  14.777   6.000 -0.0107  0.1909  0.0755
35401W        W48815  10.998  14.017  13.022 -0.0185  0.0609 -0.0206
35402W        W48816  12.312  11.406   4.647  0.0308 -0.0749  0.0439
35403W        W48817  15.600   2.097  13.579  0.0271 -0.2425  0.1343
35404W        W48818   5.339   7.711   0.775  0.1990  0.0384  0.2310
35405W        W48819   6.459  15.268   1.543  0.0405 -0.1203  0.1212
35406W        W48820  10.500   5.101  15.113  0.0251 -0.0356 -0.1284
35407W        W48821  12.700   0.124  10.582  0.0873  0.0980  0.1374
35408W        W48822  16.000  16.789   2.968 -0.2255 -0.1504  0.1673
35409W        W48823   9.257   8.732   2.105 -0.1000 -0.0830  0.0193
35410W        W48824   2.775   4.652   3.715 -0.1297 -0.2039  0.3115
35411W        W48825   0.295   2.262   0.192 -0.0766 -0.0469  0.1947
35412W        W48826   4.838   4.099   5.188  0.3858  0.0280 -0.0306
35413W        W48827   3.625   4.707  14.197  0.2841 -0.0001  0.0425
35414W        W48828  11.682  16.632   3.975 -0.1749  0.1141 -0.4071
35415W        W48829   4.694   4.690  12.221 -0.3422  0.0958  0.0554
35416W        W48830  12.274  15.944  10.731  0.4221  0.2231  0.2046
35417W        W48831   5.848  16.966  12.122  0.0877  0.0183  0.0324
35418W        W48832  13.572  14.668   4.360  0.3198  0.0603 -0.1563
35419W        W48833   6.745   8.316   5.493 -0.3968 -0.1751 -0.0695
35420W        W48834  13.612   3.279   2.092  0.0221 -0.1042 -0.2407
35421W        W48835  11.949   1.238  13.465 -0.0953 -0.0869 -0.0056
35422W        W48836   6.262   4.550  14.587 -0.0416 -0.1009  0.4477
35423W        W48837   7.085   2.046   2.167 -0.1307 -0.1591 -0.1210
35424W        W48838  14.442  17.946  13.799 -0.0038 -0.0849  0.2801
35425W        W48839   6.876  12.551   0.937 -0.1787  0.1687 -0.0087
35426W        W48840  12.357   0.826   3.761 -0.0390  0.0057 -0.0151
35427W        W48841   6.411   4.959  13.576  0.0023 -0.0398  0.0017
35428W        W48842  10.511   9.288   0.274  0.3654  0.2496 -0.0502
35429ION     NA48843   1.618  17.017   2.021 -0.1020 -0.0946  0.0444
35430ION     NA48844   7.552  13.595  13.626  0.1419 -0.1020 -0.1225
35431ION     NA48845   3.566  16.438  15.402 -0.0141  0.1820 -0.1923
35432ION     NA48846   1.216   3.867  13.802  0.2384 -0.1794 -0.4658
35433ION     NA48847   8.098  10.138  14.628  0.0349  0.2737  0.2532
35434ION     NA48848   0.730   9.660  12.507 -0.0517  0.2181  0.2327
35435ION     NA48849   5.957  11.469   1.949 -0.0671 -0.1416 -0.1085
35436ION     NA48850  16.692  12.579  14.399 -0.0137 -0.1780  0.1707
35437ION     NA48851  17.113  14.897   1.571 -0.1468 -0.1338  0.1337
35438ION     NA48852   8.406  10.316   6.104 -0.1180  0.1182 -0.2297
35439ION     NA48853  13.388  15.220  15.970  0.0486  0.2270 -0.0090
35440ION     NA48854   0.229  16.668  14.800  0.0197 -0.0919 -0.0410
35441ION     NA48855   4.099  10.958  15.549 -0.0577 -0.1293  0.3695
35442ION     NA48856  17.427  16.972  11.776 -0.1047 -0.1741  0.1755
35443ION     NA48857   9.457   2.612  11.502  0.1746 -0.3636  0.1768
35444ION     NA48858   8.066   1.597  13.460  0.0590 -0.3103 -0.0434
35445ION     NA48859   1.029   2.752  15.142  0.0007  0.0601  0.4006
35446ION     NA48860  11.759  12.073  15.428 -0.3271  0.4924 -0.1317
35447ION     NA48861  12.149   9.252   1.534 -0.3134 -0.0259  0.0371
35448ION     NA48862   9.561  12.928  12.144 -0.1415  0.1411 -0.0541
35449ION     NA48863  10.540   9.515   9.964 -0.1113 -0.2073  0.1471
35450ION     NA48864  15.651   6.464  10.927  0.0601 -0.1789 -0.0653
35451ION     NA48865  17.974   3.692   1.645  0.2886  0.0299  0.1161
35452ION     NA48866   8.818  16.071   9.854 -0.4441 -0.2133  0.3264
35453ION     NA48867   5.176  11.236   6.102 -0.0876  0.1102 -0.1471
35454ION     NA48868   1.132   6.070  14.547  0.1453 -0.0083 -0.4476
35455ION     NA48869   5.496   2.391  10.268  0.1499  0.1892  0.1719
35456ION     NA48870   9.637   0.081   1.120  0.0735  0.1147  0.0625
35457ION     NA48871  17.937  13.765   0.244  0.1949  0.0588 -0.2835
35458ION     NA48872   9.455  14.222   5.983 -0.0427 -0.3306 -0.0069
35459ION     NA48873  16.158  15.821  16.303  0.0373  0.0931  0.0883
35460ION     NA48874  17.731   1.390  14.270 -0.4259  0.1241  0.1924
35461ION     NA48875  11.712  12.566   6.276  0.2125  0.0642 -0.0112
35462ION     NA48876  14.352  15.011  16.093  0.0791 -0.2238  0.0952
35463ION     NA48877  18.036   2.967   9.884 -0.0038 -0.2021  0.1616
35464ION     NA48878   5.847  12.475   0.480  0.2212  0.1029  0.4164
35465ION     NA48879   3.375   4.349   6.115 -0.0852  0.2559 -0.2734
35466ION     NA48880  11.201   1.839   1.253  0.0306 -0.2327  0.0841
35467ION     NA48881   0.130   8.445   5.822 -0.1555 -0.2813 -0.0593
35468ION     NA48882   6.949   2.249   4.728 -0.1173  0.3121  0.2142
35469ION     NA48883   1.147  13.471  14.032  0.0007 -0.0731  0.3741
35470ION     NA48884  11.186  15.963   0.857 -0.1683  0.0009  0.0138
35471ION     NA48885   1.037   0.454  12.031 -0.2492  0.0931  0.0125
35472ION     NA48886  10.177   8.167   6.117 -0.3756 -0.0406 -0.3933
35473ION     NA48887  12.790  10.265   9.918 -0.0531 -0.0894 -0.1127
35474ION     NA48888   1.825  11.570   4.735 -0.0634 -0.0376 -0.0790
35475ION     NA48889   7.382   1.294   0.128  0.0995 -0.0825  0.1533
35476ION     NA48890   2.203   6.279   6.423 -0.0245  0.2382 -0.2808
35477ION     NA48891   0.539  14.218   4.405 -0.0516 -0.1226 -0.1131
35478ION     NA48892  16.745  17.676   2.285 -0.0310 -0.0708  0.3799
35479ION     NA48893  15.235   8.854   5.829  0.0285  0.0200 -0.2590
35480ION     NA48894   7.554  10.725   6.125 -0.2553 -0.1530 -0.1830
35481ION     NA48895   2.716   7.118  13.667  0.4725  0.0634  0.0359
35482ION     NA48896   4.477   2.791   4.756 -0.1522 -0.1381  0.0577
35483ION     NA48897   2.737  16.161  12.310 -0.1311  0.0403 -0.3490
35484ION     NA48898  15.864   4.233  10.052 -0.0644  0.1515 -0.0074
35485ION     NA48899  13.253   8.888  15.881 -0.0765  0.0015 -0.1031
35486ION     NA48900  11.065  14.298   3.484 -0.0855 -0.3111  0.0274
35487ION     NA48901  15.615  10.776  14.911  0.1397  0.0619 -0.0150
35488ION     NA48902  12.968  12.506  10.042 -0.0878 -0.3175 -0.1344
35489ION     NA48903   6.988   0.599   6.016 -0.0870  0.1595 -0.1184
35490ION     NA48904   8.959  13.200   0.919 -0.1460 -0.2558 -0.0323
35491ION     NA48905   9.802   5.128   2.222 -0.3106 -0.0913  0.1110
35492ION     NA48906  16.476   5.405   9.865 -0.0670 -0.1500  0.2881
35493ION     NA48907   9.044   3.740   2.162  0.3612 -0.0631  0.1577
35494ION     NA48908   1.295  11.184   1.738 -0.3058  0.0042 -0.3029
35495ION     NA48909  12.927   3.299   5.788  0.2360  0.1926 -0.1010
35496ION     NA48910  12.342  10.393  16.471  0.2456 -0.2787  0.0438
35497ION     NA48911   4.504  11.723  11.810 -0.1348 -0.1203  0.0441
35498ION     NA48912  11.737   3.715  15.673  0.0340  0.0603  0.1717
35499ION     NA48913   4.157   4.523   6.290  0.1730 -0.0513  0.0843
35500ION     NA48914   9.850  16.532  13.835  0.0632 -0.1870 -0.0614
35501ION     NA48915  13.626   4.704  11.159  0.0407 -0.1035 -0.2380
35502ION     NA48916   8.256   4.690   5.911 -0.0917  0.3325 -0.0264
35503ION     NA48917   6.041  16.648   3.877 -0.0695  0.0481 -0.2436
35504ION     NA48918  10.537   2.854   0.063  0.4496  0.2334  0.0084
35505ION     NA48919  12.651  12.233   6.262 -0.1816  0.0399 -0.1913
35506ION     NA48920   6.702  15.929  15.691  0.1321  0.3124 -0.3228
35507ION     NA48921   1.714   7.456   3.526  0.3605  0.1127  0.0215
35508ION     NA48922  10.639  17.152  10.176  0.0063  0.0659  0.2428
35509ION     NA48923  15.051  11.791   9.966 -0.1468  0.2841 -0.2652
35510ION     NA48924   1.464   4.185   6.286 -0.3667  0.1716 -0.0562
35511ION     NA48925  15.000   5.804   5.754  0.1997 -0.0246 -0.2377
35512ION     NA48926   8.665  15.831   2.987  0.1988  0.2506  0.1908
35513ION     NA48927  15.910  14.825   0.068 -0.1990 -0.1509 -0.0464
35514ION     NA48928   5.978  10.302   4.539 -0.0633 -0.2228  0.3983
35515ION     NA48929  13.916  10.818  16.112  0.2010  0.1137 -0.3161
35516ION     NA48930  17.834   0.822   6.383  0.0466 -0.1551 -0.0237
35517ION     NA48931  10.644   4.073   4.358 -0.1283 -0.0992 -0.2763
35518ION     NA48932  16.190  15.866   6.570 -0.0732 -0.1184  0.2618
35519ION     NA48933   0.028   1.523   4.389 -0.2590  0.1099 -0.1467
35520ION     NA48934  18.117   2.413  10.394  0.0482 -0.1114  0.1490
35521ION     NA48935  15.143   7.701  15.302 -0.0343 -0.1237 -0.1073
35522ION     NA48936   0.625  17.370   6.482  0.0224  0.0877  0.0618
35523ION     NA48937  11.101   3.690   9.913  0.2594 -0.1367  0.3484
35524ION     NA48938   0.968   5.351  10.244 -0.1101 -0.2537 -0.1011
35525ION     NA48939  13.828   5.525   1.115 -0.1685 -0.0474 -0.0063
35526ION     NA48940   5.199   0.117  14.348  0.0513 -0.0819 -0.0572
35527ION     NA48941  10.375   1.854   6.103  0.2678  0.1236 -0.4062
35528ION     NA48942   9.904  16.483  10.293 -0.0667 -0.0110 -0.2183
35529ION     NA48943   7.831   3.164   5.901  0.0088 -0.0529  0.0507
35530ION     NA48944   8.296   4.158   1.909  0.1611 -0.1276  0.1248
35531ION     NA48945   7.174  13.618   0.285 -0.0938  0.1689 -0.1407
35532ION     NA48946   2.079   0.509  14.147  0.2925 -0.0899  0.1041
35533ION     NA48947  15.373   1.454  10.514  0.1144  0.2721  0.1997
35534ION     NA48948  16.006   8.363   0.561 -0.0573 -0.2674 -0.0654
35535ION     NA48949   7.242  17.871   5.615 -0.2961 -0.0071 -0.1805
35536ION     NA48950   0.045   6.374   6.312  0.1698  0.2924 -0.0289
35537ION     NA48951  12.151  12.962  16.410  0.0344 -0.2303 -0.1787
35538ION     NA48952   9.981   4.988  12.852 -0.0249 -0.4334 -0.0560
35539ION     NA48953  10.644  12.879   1.810  0.3530  0.5775  0.1277
35540ION     NA48954  11.682  12.109  16.392 -0.0528  0.1597 -0.2234
35541ION     NA48955   9.702   2.469  10.077 -0.0527  0.1484 -0.0285
35542ION     NA48956   8.773  11.866   3.070  0.0416 -0.2349 -0.1494
35543ION     NA48957   3.997   5.322   3.714  0.0106  0.0585  0.1734
35544ION     NA48958  13.948   4.570  15.667  0.2102  0.0603  0.2946
35545ION     NA48959   0.558   2.564   6.081 -0.3331  0.1523  0.0014
35546ION     NA48960  17.735   3.669   5.676  0.1479  0.3011  0.0480
35547ION     NA48961   3.491   9.642   1.962  0.2761  0.0407  0.0530
35548ION     NA48962   7.094   8.290  10.440  0.0657 -0.4396  0.2325
35549ION     NA48963   4.028   2.541   6.036  0.1828 -0.2803 -0.0669
35550ION     NA48964  13.616   2.675   0.164  0.1741  0.3427  0.0277
35551ION     NA48965  14.382   8.477  11.419  0.2953 -0.0122 -0.1193
35552ION     NA48966  14.763   3.763   9.847  0.2051  0.4721 -0.2377
35553ION     NA48967  13.017  17.734   9.840  0.2379 -0.2057 -0.2555
35554ION     NA48968  12.786   4.805   5.958  0.1245  0.1511 -0.0822
35555ION     NA48969   2.420   1.370   2.625  0.0620 -0.0266  0.3585
35556ION     NA48970   1.200   9.218  16.454 -0.2554  0.1153  0.2062
35557ION     NA48971  15.323  17.835  10.756 -0.3470  0.2548 -0.0786
35558ION     NA48972  15.794  15.321   3.795 -0.0012 -0.2565 -0.1218
35559ION     NA48973   6.809   3.570  15.328  0.3854  0.0870 -0.1559
35560ION     NA48974   5.074  13.054   4.388  0.0314  0.0457  0.0693
35561ION     NA48975   5.129  14.149  15.520  0.2025 -0.0107 -0.2081
35562ION     NA48976  14.648   1.938  10.629  0.2216 -0.1354  0.2647
35563ION     NA48977  17.314   4.862  15.264 -0.0932  0.0365 -0.2055
35564ION     NA48978  10.134   3.135   5.862  0.0539 -0.0459  0.0968
35565ION     NA48979  17.639  16.126  10.615  0.2422 -0.4763  0.0716
35566ION     NA48980  15.816  10.119   4.437 -0.1158 -0.1805  0.0806
35567ION     NA48981   9.287   7.733   6.127  0.2728  0.2559 -0.4416
35568ION     NA48982  12.725  16.145   5.890  0.1578 -0.1174  0.1643
35569ION     NA48983   5.185  17.669   2.520 -0.3264 -0.1170 -0.1918
35570ION     NA48984  17.344   4.067   9.891  0.0043 -0.1268 -0.0159
35571ION     NA48985  15.510  16.132   4.139 -0.2400  0.1624 -0.3711
35572ION     NA48986  17.272   4.252  13.962 -0.2006 -0.0040 -0.0897
35573ION     NA48987   1.076   6.654   3.163 -0.0272 -0.0128  0.0727
35574ION     NA48988   2.038  13.679  10.855 -0.1526 -0.0617 -0.3438
35575ION     NA48989   0.650  12.666   3.565 -0.0720 -0.0811 -0.3103
35576ION     NA48990  12.168   3.929  12.380 -0.1603 -0.1252  0.0428
35577ION     NA48991   3.741   4.379  13.378 -0.0017 -0.1937  0.2851
35578ION     NA48992   3.534   1.005   0.807 -0.0484 -0.0191  0.1739
35579ION     NA48993  11.281  10.512   5.867 -0.0955 -0.0595 -0.1145
35580ION     NA48994   5.347   4.989  10.191 -0.2462 -0.1075 -0.2897
35581ION     NA48995   1.506  14.522  10.691  0.0384 -0.1844 -0.1174
35582ION     NA48996   8.511  13.427  12.825 -0.0455  0.0809  0.1809
35583ION     NA48997   4.442  15.681   1.779 -0.3022 -0.1072  0.0431
35584ION     NA48998  11.457  10.373  15.744  0.0174  0.1673  0.5304
35585ION     NA48999   7.413  17.095  10.313  0.2496  0.0097  0.0752
35586ION     NA49000   8.546  17.381  14.397  0.0852  0.2363  0.1422
35587ION     NA49001  15.789   6.523   2.622 -0.0610  0.1315  0.3666
35588ION     NA49002  14.671  14.135  14.859  0.0364  0.1282 -0.0903
35589ION     NA49003  13.433  16.560  14.973  0.0328  0.0326 -0.0021
35590ION     NA49004  10.039   0.679  12.415  0.2391 -0.1121  0.1407
35591ION     NA49005  11.579   8.105   2.754  0.0595  0.0376 -0.1519
35592ION     NA49006   2.874   4.277  12.460  0.0238  0.1222  0.1442
35593ION     NA49007   5.472   3.052   5.522  0.3073 -0.0330  0.0104
35594ION     NA49008   3.213   4.503  14.618  0.1632 -0.4967 -0.1909
35595ION     NA49009   3.947  12.220   6.870  0.0975 -0.0913 -0.2457
35596ION     NA49010  15.125   6.510  14.024 -0.0721 -0.1004  0.0803
35597ION     NA49011  13.637  17.750   3.369  0.0689 -0.0762  0.3783
35598ION     NA49012   7.323   8.420  11.487 -0.0523 -0.0399  0.0428
35599ION     NA49013  17.254   7.627  12.354  0.1473 -0.1652 -0.0021
35600ION     NA49014   9.131  13.971   0.104  0.0924  0.0817 -0.0267
35601ION     NA49015  15.729   3.412   4.939  0.2643 -0.1800 -0.2300
35602ION     NA49016  17.874  13.120  16.246 -0.1142  0.1031 -0.0947
35603ION     NA49017  10.882  11.905   6.156  0.1887  0.0786  0.0247
35604ION     NA49018  15.663   7.865   1.564 -0.0698  0.0029 -0.0612
35605ION     NA49019  11.567   4.126   1.664  0.0053 -0.3168  0.1103
35606ION     NA49020   2.830   1.426   4.736  0.1763  0.0179 -0.2950
35607ION     NA49021  13.491  15.989   2.058  0.3070 -0.1391  0.1534
35608ION     NA49022  14.853  15.912   6.281  0.0148 -0.0500  0.1166
35609ION     NA49023  16.735   9.126  15.101 -0.2681 -0.2281 -0.1861
35610ION     NA49024  13.896  12.586   5.962 -0.1534 -0.0115  0.0114
35611ION     NA49025   3.729  13.380  12.002  0.1921 -0.3047 -0.2428
35612ION     NA49026   1.938  13.447  12.043  0.1770  0.1044  0.2560
35613ION     NA49027  14.699   4.802  15.172  0.1933 -0.1238  0.0420
35614ION     NA49028  13.864  16.652  14.179  0.0531  0.0093  0.0211
35615ION     NA49029   4.163   8.060  16.373  0.0812  0.3720 -0.1546
35616ION     NA49030  11.563   9.886  13.246  0.2824 -0.1374 -0.2452
35617ION     NA49031  12.984   9.854   6.123  0.1782  0.0758 -0.1601
35618ION     NA49032  10.517   0.619   3.258  0.1824 -0.5960 -0.0205
35619ION     NA49033   6.078  16.937   5.174  0.1904  0.0671 -0.2474
35620ION     NA49034   8.204  11.618  10.806  0.0147  0.0881  0.1496
35621ION     NA49035   7.082   7.400  12.014  0.1545 -0.2650  0.0103
35622ION     NA49036  12.809   1.960   5.890 -0.2119  0.1995  0.1610
35623ION     NA49037  10.564   0.145   4.236  0.0004  0.1016 -0.1587
35624ION     NA49038   7.837   3.901  12.568 -0.0074  0.2297 -0.0552
35625ION     NA49039   6.415   5.692   5.893 -0.0915  0.0244 -0.0931
35626ION     NA49040  18.026   8.010  14.634 -0.1315 -0.0504  0.0879
35627ION     NA49041  16.879   4.117   6.025  0.0744  0.2821  0.1681
35628ION     NA49042  16.683   3.576   1.317  0.2986 -0.3622 -0.0160
35629ION     NA49043  13.689  16.705  16.266 -0.2056 -0.1540  0.1855
35630ION     NA49044   5.882   2.310  13.390  0.1736  0.0359 -0.0553
35631ION     NA49045  16.787  17.447  10.513  0.1849 -0.0307 -0.0856
35632ION     NA49046  11.861   2.123   2.480  0.0750 -0.2731 -0.2403
35633ION     NA49047   4.803  13.620   3.652 -0.0385 -0.2908 -0.1977
35634ION     NA49048   2.648  11.008  10.369 -0.0537  0.0142  0.0301
35635ION     NA49049   3.620  13.196  10.397  0.0826 -0.1916  0.2595
35636ION     NA49050  13.812  11.648   6.156  0.0982  0.2266  0.1647
35637ION     NA49051   8.839   0.975   6.234  0.2256 -0.0656 -0.1804
35638ION     NA49052  13.280  15.837  13.998 -0.1097  0.1492  0.1548
35639ION     NA49053   2.750  14.968  14.696  0.1543 -0.1249 -0.2668
35640ION     NA49054  14.076   5.033   9.831 -0.0890 -0.0749 -0.3405
35641ION     NA49055   7.097   3.862  14.281 -0.0854  0.1705 -0.0493
35642ION     NA49056  15.981   6.142   9.946  0.1712 -0.0722  0.2566
35643ION     NA49057   1.972   4.178  10.563  0.3296 -0.2069 -0.0388
35644ION     NA49058   0.504  10.282   0.570 -0.1643 -0.0210  0.0477
35645ION     NA49059  15.305  10.668   5.799 -0.1000 -0.1369  0.0475
35646ION     NA49060   7.594  17.874   1.171 -0.0681  0.1182  0.1309
35647ION     NA49061   1.718   2.615   5.358 -0.3142 -0.5248  0.2053
35648ION     NA49062  14.849  16.040   0.432 -0.0880 -0.0241 -0.1281
35649ION     NA49063  17.103  15.752  14.924  0.4856 -0.0784 -0.2244
35650ION     NA49064   9.719   7.064  11.854 -0.3566  0.1945 -0.2384
35651ION     NA49065   0.825   3.506   5.996  0.1267  0.1509  0.0025
35652ION     NA49066   0.726   4.576  10.334  0.2390 -0.0043 -0.1631
35653ION     NA49067  17.104   6.750   1.335 -0.0245  0.2921  0.0002
35654ION     NA49068  16.488  12.097  10.755  0.0347 -0.1981  0.1533
35655ION     NA49069  12.498  11.239   1.190  0.4146  0.1652 -0.2652
35656ION     NA49070   0.875   6.195   2.345 -0.0964  0.0097 -0.0838
35657ION     NA49071   4.793   1.491   0.439  0.1076 -0.0295 -0.0903
35658ION     NA49072  17.665   5.029   1.823  0.3618 -0.3284  0.1476
35659ION     NA49073  16.125  16.368   3.277 -0.0266 -0.2236 -0.4380
35660ION     NA49074   0.145  13.746   6.388  0.0221 -0.1722  0.1146
35661ION     NA49075  16.476   9.146   5.171  0.1284  0.0969 -0.0372
35662ION     NA49076  13.511   2.892  12.795 -0.0817  0.3213 -0.2427
35663ION     NA49077  12.510  13.558  14.511  0.1386  0.4633  0.0087
35664ION     NA49078   2.921  16.604   6.742  0.0653  0.0731  0.1376
35665ION     NA49079  16.331   0.439   6.008  0.0815 -0.2592 -0.2339
35666ION     NA49080   6.515  14.838   6.322 -0.2118  0.0104 -0.1543
35667ION     NA49081   6.710  10.212   3.046  0.0838 -0.0410 -0.2230
35668ION     NA49082  10.988  12.211  14.722 -0.1434  0.2097 -0.0985
35669ION     NA49083   1.582  13.466  14.435  0.0454 -0.0431  0.0737
35670ION     NA49084  18.112   9.393   2.891  0.1423 -0.0478  0.0209
35671ION     NA49085   6.269   9.266   6.638 -0.1280  0.0203  0.0495
35672ION     NA49086   2.875  16.731  10.487 -0.0465 -0.2069 -0.0627
35673ION     NA49087   2.016  12.549  15.355 -0.1247 -0.4361 -0.3474
35674ION     NA49088   1.505  15.428  10.574  0.0208 -0.0683  0.1148
35675ION     NA49089   3.371   8.198  15.509 -0.2183 -0.0457  0.2709
35676ION     NA49090   1.176  16.260  10.971  0.0727  0.1483  0.0202
35677ION     NA49091   4.327   3.711   6.009  0.1084  0.0621 -0.0114
35678ION     NA49092   5.277   3.318  11.452 -0.2561  0.2368 -0.0487
35679ION     NA49093  12.753  17.096   0.069  0.1459 -0.0465  0.3194
35680ION     NA49094  17.745  15.048  14.416  0.0942  0.1403  0.1564
35681ION     NA49095   5.158  15.388   3.006 -0.1460  0.0315 -0.1631
35682ION     NA49096   3.797  17.304   1.859 -0.4157  0.0632 -0.1205
35683ION     NA49097  14.740  15.996   2.526 -0.0252  0.1827 -0.2076
35684ION     NA49098   1.505  10.798   6.220  0.0092  0.0930  0.2777
35685ION     NA49099   3.432  11.665   6.102 -0.2522  0.1223 -0.0411
35686ION     NA49100  11.667  11.564  11.617 -0.0979  0.1550 -0.1522
35687ION     NA49101   2.700  11.657   2.477  0.0810  0.0716 -0.1426
35688ION     NA49102   8.817   8.140   3.397  0.0510  0.2388 -0.1891
35689ION     NA49103  17.372   0.151  10.305 -0.3331  0.0502  0.1389
35690ION     NA49104  16.835  16.251   3.919 -0.0057  0.3568  0.2442
35691ION     NA49105   1.091   0.046   3.664  0.2008 -0.0347 -0.0267
35692ION     NA49106  13.947   9.320   5.469 -0.0370 -0.0198  0.0831
35693ION     NA49107  18.069   5.790   1.608 -0.1005  0.3090 -0.0007
35694ION     NA49108  11.570   1.288   2.669 -0.3670 -0.0697 -0.0488
35695ION     NA49109   1.818   2.558   6.441  0.1184  0.1834 -0.0732
35696ION     NA49110  17.475   4.220  10.555 -0.0643 -0.0357  0.4360
35697ION     NA49111   2.674  15.357  10.792 -0.2796  0.0833 -0.0214
35698ION     NA49112   7.986  15.040   5.161 -0.1864  0.0755  0.3560
35699ION     NA49113   7.836   9.978  16.382 -0.0602  0.1078  0.1605
35700ION     NA49114   9.112  17.905  12.445 -0.0238 -0.0957 -0.0090
35701ION     NA49115   1.322   6.063  10.654  0.1477 -0.1922 -0.1259
35702ION     NA49116  13.743   4.595  14.003  0.2890  0.2694 -0.1998
35703ION     NA49117   4.466   5.383   2.855  0.0803 -0.1593 -0.0658
35704ION     NA49118  11.809   8.929  16.440  0.2314 -0.3044 -0.3816
35705ION     NA49119  11.507  14.257  15.277 -0.0619  0.2756  0.3703
35706ION     NA49120  11.555  15.166   5.952  0.3802 -0.1552 -0.2055
35707ION     NA49121   1.241  17.024  13.217  0.1844 -0.0840 -0.2123
35708ION     NA49122  12.822   4.219   5.935  0.2852 -0.0652  0.0925
35709ION     NA49123  14.388   9.484  10.241 -0.0830  0.3311  0.1020
35710ION     NA49124  15.090   1.333   3.440 -0.0908  0.1890 -0.0816
35711ION     NA49125  12.420  14.571  14.582  0.3742  0.1592 -0.0592
35712ION     NA49126  15.845  14.099  13.128  0.2912  0.1481 -0.0119
35713ION     NA49127   8.306   9.742  15.546 -0.0622 -0.0643  0.1735
35714ION     NA49128   6.497  18.063   5.826  0.1624 -0.0874  0.0905
35715ION     NA49129   6.043  17.736   2.572 -0.2574  0.2826 -0.1625
35716ION     NA49130  17.501  10.733   2.875  0.2097 -0.3936  0.0342
35717ION     NA49131   7.459   6.267  13.084 -0.2651 -0.0129 -0.1874
35718ION     NA49132   4.808   2.535   1.157  0.0062 -0.0221  0.1825
35719ION     NA49133   1.849   3.942   3.232 -0.1112  0.1817  0.2439
35720ION     NA49134  10.268   6.822   0.052 -0.0184 -0.1733  0.1851
35721ION     NA49135   9.847  10.447   6.126 -0.1644 -0.1168  0.0599
35722ION     NA49136   0.206  16.797  10.955  0.2305  0.2243  0.0936
35723ION     NA49137   5.148   1.214  12.625  0.0857  0.1623 -0.0369
35724ION     NA49138   9.059   6.346   4.196 -0.0583  0.1631  0.1941
35725ION     NA49139   8.713  14.521   5.982  0.0156  0.0346  0.2686
35726ION     NA49140  17.589   7.316  12.892 -0.0962  0.0216  0.2588
35727ION     NA49141   1.993   3.440  16.235 -0.0907 -0.1299  0.2283
35728ION     NA49142  13.909  13.896  14.127  0.2035  0.3005 -0.0809
35729ION     NA49143   7.772  13.975   3.414  0.0288 -0.1494  0.0754
35730ION     NA49144   6.216   8.967  11.197  0.0172  0.0784  0.0429
35731ION     NA49145   4.768   6.452   5.847  0.0728  0.3296  0.0430
35732ION     NA49146  12.286   1.461   5.173 -0.6058  0.2060  0.0837
35733ION     NA49147  11.746   1.699  10.931  0.3261 -0.1917  0.2042
35734ION     NA49148  11.849   3.969   9.802 -0.1811 -0.0234  0.0035
35735ION     NA49149   7.432  11.348   0.795 -0.1637 -0.3800 -0.0122
35736ION     NA49150  10.656  15.306   5.823  0.0798  0.3959 -0.0074
35737ION     NA49151   4.420  17.753   2.671 -0.0349 -0.1343 -0.0675
35738ION     NA49152   4.692  15.544   0.814 -0.5959 -0.0272 -0.1470
35739ION     NA49153   7.169  13.233   6.217 -0.1154 -0.0897 -0.2025
35740ION     NA49154  17.325   0.314   1.587  0.0219 -0.0813  0.2367
35741ION     NA49155   0.796   8.574   4.229 -0.2442 -0.2540 -0.1554
35742ION     NA49156   7.013   2.873  13.116  0.2185 -0.2671  0.2256
35743ION     NA49157   5.780   0.148  10.265 -0.2152  0.2256  0.3264
35744ION     NA49158  10.966   9.814   2.352  0.0705 -0.0406  0.3565
35745ION     NA49159  10.166   4.998   0.420 -0.2654 -0.0959  0.0795
35746ION     NA49160   5.171   3.284  12.667  0.2784 -0.0153  0.0888
35747ION     NA49161   2.470   3.410  15.222 -0.3118 -0.2029 -0.0369
35748ION     NA49162  17.742   8.734   6.462 -0.1042  0.3600  0.0447
35749ION     NA49163   4.055   8.795  10.817 -0.1080 -0.1246  0.0719
35750ION     NA49164   1.578  14.920   5.450  0.1132 -0.0115 -0.0671
35751ION     NA49165   6.922   4.033   2.959 -0.0454 -0.1279  0.0874
35752ION     NA49166  11.840   6.808   2.524  0.0630  0.2492  0.1496
35753ION     NA49167  12.419  14.730  15.220  0.2248 -0.1375 -0.1055
35754ION     NA49168   0.625  16.832   4.772 -0.3387 -0.2122 -0.0046
35755ION     NA49169   0.780   0.033  14.704  0.2805 -0.0771  0.0416
35756ION     NA49170   7.076   7.520  10.661  0.1595 -0.1701  0.0561
35757ION     NA49171  10.528  15.451   3.901  0.3682 -0.0778  0.0878
35758ION     NA49172  13.486   4.928   5.956  0.0927 -0.3962 -0.1305
35759ION     NA49173   1.985   7.570   4.310  0.2797  0.0920  0.1026
35760ION     NA49174   8.177   5.026  10.194  0.0246 -0.1453  0.0017
35761ION     NA49175  16.480  12.000  15.159 -0.0687  0.0426  0.0845
35762ION     NA49176   9.006  16.335   4.241 -0.0045  0.0205  0.2452
35763ION     NA49177  10.885  11.068  15.463  0.2272 -0.1677  0.0537
35764ION     NA49178   2.533   9.205  13.333 -0.0997 -0.1479  0.1759
35765ION     NA49179  11.030   6.692  10.540 -0.1533 -0.2923 -0.0518
35766ION     NA49180  17.163  17.789  15.275  0.2508  0.0647  0.1547
35767ION     NA49181   1.328  11.447   3.721 -0.0299 -0.0096  0.2142
35768ION     NA49182   1.822  15.735   3.396  0.0968  0.0316  0.1795
35769ION     NA49183   6.378   6.762   5.236  0.0294 -0.2183  0.0361
35770ION     NA49184  13.811   8.474  13.223  0.1020  0.1890 -0.1723
35771ION     NA49185   9.347  17.772  16.409  0.1695  0.0765 -0.0350
35772ION     NA49186   0.078  15.923  11.134  0.1397 -0.1210 -0.1985
35773ION     NA49187   5.821   8.883   4.861 -0.2295 -0.1884 -0.2907
35774ION     NA49188   6.026  16.231  13.503 -0.3184  0.1855 -0.1654
35775ION     NA49189  10.749   7.342   6.343 -0.2297 -0.1219 -0.1146
35776ION     NA49190   0.675  18.020   0.147  0.0438  0.4287  0.1459
35777ION     NA49191   9.030  16.119   5.626 -0.1305  0.2298 -0.1804
35778ION     NA49192   3.713  11.128   6.645  0.2833  0.0206 -0.0027
35779ION     NA49193   0.178  13.303  10.568  0.3867  0.3161 -0.0484
35780ION     NA49194  14.828  10.450  16.075  0.0870 -0.1358  0.1645
35781ION     NA49195  11.244  10.880  10.455 -0.0520 -0.1390 -0.0063
35782ION     NA49196  14.457   0.318   6.606 -0.0972 -0.2130  0.0833
35783ION     NA49197  14.620   0.638  14.458  0.0710 -0.0713 -0.0065
35784ION     NA49198  12.834   8.309   9.707 -0.0993  0.0495 -0.2387
35785ION     NA49199   0.944  17.851   4.745 -0.0168 -0.1217 -0.0490
35786ION     NA49200  11.320  10.850  12.733  0.1153  0.2617 -0.0730
35787ION     NA49201   6.997   1.525  10.176 -0.1617 -0.3339  0.1030
35788ION     NA49202   4.540   2.697  13.279 -0.0248  0.0732 -0.1355
35789ION     NA49203  12.109   2.158  10.027  0.1664  0.0161 -0.0659
35790ION     NA49204   6.876  16.859  12.668  0.0073 -0.1738 -0.0539
35791ION     NA49205   6.975   1.590   2.440 -0.0618 -0.0204 -0.2368
35792ION     NA49206  14.911  12.214  15.741  0.1145 -0.0873 -0.0511
35793ION     NA49207   4.819   5.595   3.735  0.0648 -0.1860  0.0705
35794ION     NA49208   8.062   0.859  16.269 -0.2467 -0.1061 -0.0198
35795ION     NA49209  12.042  13.243  13.486  0.1427 -0.1757 -0.0524
35796ION     NA49210  17.325   2.773  14.675  0.1056  0.0236 -0.0046
35797ION     NA49211   7.478  10.144  10.530 -0.1974  0.0657 -0.0045
35798ION     NA49212  16.176   7.184   5.979  0.2412 -0.2004  0.0491
35799ION     NA49213   0.367   4.915   4.840  0.2205 -0.0479  0.0859
35800ION     NA49214  15.028  12.345   6.305 -0.0333  0.0174 -0.1550
35801ION     NA49215   7.515   6.304  10.298  0.0117  0.0975  0.1913
35802ION     NA49216  15.844   5.014   2.635 -0.2925 -0.0990 -0.2078
35803ION     NA49217  17.646  17.213  15.871 -0.1081 -0.4814 -0.0984
35804ION     NA49218   0.775   2.313   1.070  0.0676 -0.1224  0.2976
35805ION     NA49219  15.962  15.652  10.493  0.0563 -0.1281 -0.0708
35806ION     NA49220  13.514   1.950   2.676 -0.1908  0.2425  0.0513
35807ION     NA49221  16.512  13.503   2.047  0.1943  0.1168  0.1183
35808ION     NA49222  14.833  17.140  12.618 -0.2698  0.0477 -0.2737
35809ION     NA49223   9.474  11.274   6.054 -0.0805  0.2689  0.3052
35810ION     NA49224  14.021  17.104   6.434 -0.1844  0.0589  0.1364
35811ION     NA49225  16.235  17.643  10.696  0.0101 -0.0240 -0.0647
35812ION     NA49226   1.410   7.668  10.598  0.0660  0.1767  0.2239
35813ION     NA49227  17.309   6.727  14.885 -0.2695 -0.0512 -0.0074
35814ION     NA49228   4.931   8.673  10.634 -0.0490  0.2783  0.1802
35815ION     NA49229   8.031  13.014   6.264 -0.2091 -0.1974 -0.0616
35816ION     NA49230  16.655   9.308   2.700 -0.0071 -0.0526  0.1016
35817ION     NA49231   6.192   2.791   0.743 -0.0087  0.0316  0.3269
35818ION     NA49232   2.444  17.183   3.567  0.0075 -0.1277 -0.0308
35819ION     NA49233   1.421  13.717   4.272  0.2384 -0.0744 -0.1255
35820ION     NA49234  10.781  13.709  13.487  0.0143  0.0428 -0.1816
35821ION     NA49235  16.718  13.506  12.017 -0.2721  0.2153 -0.0223
35822ION     NA49236  13.931  11.571   0.992  0.0776 -0.2079  0.0062
35823ION     NA49237   0.004   9.514   6.541 -0.0218  0.1002  0.2114
35824ION     NA49238  12.748   0.239   6.127  0.0093 -0.2131  0.0908
35825ION     NA49239  17.558   8.197   5.132 -0.1124 -0.0172  0.0692
35826ION     NA49240  14.052  17.638   5.754  0.0297 -0.2187  0.1351
35827ION     NA49241   9.939  12.842   2.329 -0.0240  0.2030 -0.0838
35828ION     NA49242   8.106  17.136   9.851 -0.3662 -0.1449 -0.3200
35829ION     NA49243   3.124  10.668  12.433 -0.0789 -0.0959 -0.1479
35830ION     NA49244  10.669  16.299   9.858  0.0044 -0.0645  0.1039
35831ION     NA49245   0.068   9.666   1.195  0.1973 -0.0766  0.2477
35832ION     NA49246   9.139  10.343  14.634  0.2320 -0.1031  0.1280
35833ION     NA49247  11.842   2.439   6.078  0.2152 -0.0967  0.2669
35834ION     NA49248  13.196   1.648  13.381 -0.2345  0.1154  0.0741
35835ION     NA49249   3.522  13.058  15.029  0.1376 -0.0262  0.1555
35836ION     NA49250   6.115   9.413  12.935 -0.0967 -0.1583 -0.1054
35837ION     NA49251   6.451   9.190   0.964 -0.2616 -0.1320 -0.0668
35838ION     NA49252  12.995   4.797  12.205 -0.0784  0.1813 -0.3745
35839ION     NA49253  14.466   8.748   6.133 -0.0812 -0.0197  0.0284
35840ION     NA49254   0.196   7.287   6.573 -0.0457 -0.1102 -0.1112
35841ION     NA49255   0.172  15.591   6.471 -0.0802  0.0661 -0.0213
35842ION     NA49256  16.320  18.068   0.448  0.1734  0.0051  0.0753
35843ION     NA49257  10.700   8.108   5.831 -0.1557 -0.2527  0.2472
35844ION     NA49258   3.677  13.088   4.222  0.1107  0.0892 -0.0353
35845ION     NA49259  17.327  10.479  10.479  0.1367 -0.2226  0.1548
35846ION     NA49260  17.011   6.739  10.460 -0.0482  0.1922  0.1352
35847ION     NA49261  11.464  15.047   1.214  0.1573  0.1422  0.2752
35848ION     NA49262  15.652   7.644  14.325 -0.1882  0.1306  0.1406
35849ION     NA49263   9.219   9.663  10.355 -0.1023  0.0327  0.2865
35850ION     NA49264   0.548  14.259  10.304 -0.0166  0.1555 -0.1242
35851ION     NA49265  18.115   5.165  10.433 -0.1536 -0.1188  0.2652
35852ION     NA49266   1.093   8.071   1.451  0.0823  0.2021 -0.0858
35853ION     NA49267   7.660   5.540  12.355 -0.2539  0.3161  0.5273
35854ION     NA49268   9.428  11.870  10.130 -0.3323 -0.1213 -0.0912
35855ION     NA49269   0.734  14.941  10.329 -0.3595 -0.0077 -0.2098
35856ION     NA49270  15.444  10.290   0.578 -0.2953 -0.2707 -0.3019
35857ION     NA49271   9.370  15.071  15.849  0.2350 -0.1740  0.1295
35858ION     NA49272   8.783   3.442  16.371 -0.0743 -0.1569 -0.1352
35859ION     NA49273   1.772   5.155  13.244  0.3514 -0.3135 -0.1158
35860ION     NA49274  12.821  10.334   2.018 -0.1521  0.1406 -0.0089
35861ION     NA49275   9.043   3.650  14.932  0.1098  0.1967 -0.0921
35862ION     NA49276  17.115   0.642   6.280  0.0033 -0.0585 -0.3077
35863ION     NA49277  16.655  15.552   1.144 -0.0343 -0.1526 -0.0305
35864ION     NA49278  13.081   6.902  13.397 -0.0629  0.0099 -0.1585
35865ION     NA49279  17.561  14.144   4.285  0.2945 -0.1222 -0.0873
35866ION     NA49280  16.260  10.552   4.878 -0.2151  0.2531  0.2101
35867ION     NA49281  14.198   3.036  10.040 -0.0328  0.0009 -0.0727
35868ION     NA49282   5.939   1.177  12.544  0.1155 -0.0882  0.2423
35869ION     NA49283   2.261   8.143   6.419 -0.1835 -0.2138 -0.2956
35870ION     NA49284  14.986  11.912   2.604  0.2816  0.4435  0.2405
35871ION     NA49285   4.823   5.865  14.692 -0.1736  0.0451  0.0835
35872ION     NA49286  17.413   7.787  10.971  0.1147  0.1229  0.1098
35873ION     NA49287  16.371   8.244   4.500 -0.0729 -0.1733  0.3328
35874ION     NA49288   6.745  17.193   5.917 -0.1628 -0.0685 -0.2374
35875ION     NA49289   5.773  16.444  14.460 -0.1938  0.0456 -0.1712
35876ION     NA49290  16.375   2.804  13.004 -0.0428  0.0427 -0.1017
35877ION     NA49291   5.300  11.934   2.102  0.0699  0.1642  0.0997
35878ION     NA49292   8.404  14.342   2.636  0.0572 -0.4068 -0.4370
35879ION     NA49293  10.981   6.561   3.589 -0.0917  0.0859  0.0480
35880ION     NA49294  11.167   9.499   5.861  0.3888 -0.1336 -0.2555
35881ION     NA49295   6.039  10.533  14.982  0.0720  0.2362 -0.1334
35882ION     NA49296  17.132   9.925  14.968  0.0600  0.0700 -0.0377
35883ION     NA49297  14.537   9.249   2.648  0.1868 -0.1755 -0.3806
35884ION     NA49298  17.915   6.889  15.584 -0.3334  0.1440 -0.0018
35885ION     NA49299  12.278  15.513   3.239 -0.0614  0.1800  0.1317
35886ION     NA49300  11.119   8.642   4.229 -0.0736 -0.0596  0.0293
35887ION     NA49301  10.505   5.999   2.147 -0.1821  0.2628  0.1106
35888ION     NA49302  13.117  13.197   6.085  0.0901  0.0201 -0.1371
35889ION     NA49303   5.306  10.557  14.464  0.1177 -0.4314 -0.1432
35890ION     NA49304   9.773   7.574   4.061 -0.0965  0.3580 -0.1841
35891ION     NA49305   4.332  10.035  15.594 -0.1133  0.2632  0.0822
35892ION     NA49306   5.101  10.937   4.059 -0.4134  0.1596  0.5476
35893ION     NA49307   4.522   2.972   2.828  0.0546  0.1557  0.0451
35894ION     NA49308   1.961   6.901  10.838  0.2628  0.0983  0.0404
35895ION     NA49309  14.501   9.214   4.810  0.1850 -0.0661  0.0471
35896ION     NA49310   1.282   7.454  13.614 -0.1820 -0.0573 -0.0057
35897ION     NA49311   2.472  14.423   6.342  0.2909 -0.0187  0.3159
35898ION     NA49312  11.042  14.440   2.633  0.2632 -0.0131  0.1841
35899ION     NA49313  15.425  15.575  15.540 -0.0985  0.0509 -0.0293
35900ION     NA49314  16.648   0.554   4.164  0.0163 -0.1643 -0.0457
35901ION     NA49315   0.794  13.339   0.032 -0.1040  0.1288  0.2101
35902ION     NA49316  10.006   7.000   0.899 -0.2562  0.0419 -0.0719
35903ION     NA49317   2.813   5.401  14.970 -0.0911  0.1459 -0.0772
35904ION     NA49318   4.638  11.339  10.521  0.3724 -0.0582 -0.0835
35905ION     NA49319   7.860   9.726  13.062 -0.0561 -0.2065 -0.2086
35906ION     NA49320   8.333  15.326   5.930 -0.2968  0.1820 -0.2779
35907ION     NA49321   7.919  16.916   4.786 -0.2002  0.1749  0.0663
35908ION     NA49322   7.565   9.638   3.328 -0.0564 -0.2167  0.1024
35909ION     NA49323   7.488  13.311   1.276 -0.1648 -0.1904  0.2521
35910ION     NA49324   5.101   4.649   1.415 -0.0961  0.0506  0.0379
35911ION     NA49325   6.766  15.066  12.712 -0.0937 -0.0343  0.1192
35912ION     NA49326   3.504   7.101  14.805  0.0003 -0.0811 -0.1343
35913ION     NA49327   2.866  10.222   0.439 -0.2280 -0.3689 -0.2303
35914ION     NA49328  13.596   3.969   9.883 -0.0975 -0.0032  0.3136
35915ION     NA49329   4.076  16.137   0.970  0.1470  0.3893 -0.1791
35916ION     NA49330  11.764   0.447   5.919 -0.0568 -0.2214  0.0197
35917ION     NA49331   1.071  11.064   0.984 -0.1583  0.1724 -0.1487
35918ION     NA49332  12.527  13.216  16.041 -0.1217  0.1909  0.0266
35919ION     NA49333  13.207   3.621   1.733 -0.1969 -0.0910  0.0902
35920ION     NA49334  14.807  16.415   6.617 -0.0563 -0.0260 -0.3000
35921ION     NA49335  13.952   5.190  14.675 -0.0752  0.3539  0.2636
35922ION     NA49336  14.833  13.449   6.236  0.0088  0.3026 -0.3318
35923ION     NA49337  12.815   3.680  10.060 -0.1379 -0.1778  0.6012
35924ION     NA49338  15.426   6.576  10.101 -0.1354  0.0917  0.0355
35925ION     NA49339   6.030  17.378   1.238 -0.0498 -0.2034 -0.0925
35926ION     NA49340   0.403   0.941  10.432 -0.3103 -0.0385  0.0622
35927ION     NA49341  12.250   8.039  11.779 -0.0832 -0.2325 -0.1383
35928ION     NA49342  10.302  16.708  15.873 -0.0997  0.2237  0.0961
35929ION     NA49343   7.185   8.664   1.495  0.0104  0.1095 -0.0727
35930ION     NA49344   2.993  17.897  13.283 -0.0104 -0.4285  0.0536
35931ION     NA49345   1.871   7.829  10.775  0.0601  0.0043 -0.1458
35932ION     NA49346  15.612  13.498  10.942  0.2815  0.2655 -0.1496
35933ION     NA49347   4.614  17.860  14.749 -0.3306 -0.2597 -0.0780
35934ION     NA49348   9.455   7.248  10.405  0.3739  0.0499 -0.0040
35935ION     NA49349   7.933  12.037   6.279 -0.1503  0.1037  0.0596
35936ION     NA49350  15.658   6.823  16.064  0.2690 -0.2972  0.1375
35937ION     NA49351   8.731   3.626   1.145  0.0170  0.1097  0.0091
35938ION     NA49352   3.692   8.732  16.249  0.1130  0.0428 -0.0925
35939ION     NA49353   2.615   7.268  15.061 -0.1263 -0.0285 -0.0496
35940ION     NA49354  13.517   0.906   3.005  0.1240  0.0182 -0.3447
35941ION     NA49355  14.040   0.768   5.849 -0.1746 -0.2503  0.0356
35942ION     NA49356  11.739   6.586  15.792 -0.0276 -0.3479  0.2051
35943ION     NA49357   0.967  15.363  13.136  0.1547 -0.1592 -0.0817
35944ION     NA49358  15.656   8.888   1.977  0.2990  0.2289 -0.0430
35945ION     NA49359  11.242   5.885  13.900  0.0335 -0.0878  0.0666
35946ION     NA49360  14.202  15.938  12.565 -0.3236  0.1609 -0.1474
35947ION     NA49361   4.388   0.407  13.850 -0.1000  0.0648  0.2157
35948ION     NA49362  17.740   0.613  11.803  0.2650  0.1485  0.0719
35949ION     NA49363  12.191  16.714   1.644 -0.1050  0.0597 -0.0393
35950ION     NA49364  12.076  17.441  11.921 -0.1860  0.2384  0.3233
35951ION     NA49365  11.518  17.975   6.093 -0.0242  0.1045 -0.0215
35952ION     NA49366   8.009   7.799   6.585 -0.0052 -0.1672 -0.0282
35953ION     NA49367  17.425   6.119   6.348 -0.0141 -0.3579  0.0524
35954ION     NA49368   6.136  13.220   0.005  0.3118 -0.1024  0.1990
35955ION     NA49369  14.557  12.384   5.463  0.1058  0.0301  0.2147
35956ION     NA49370   1.834   5.086   1.199 -0.0752 -0.1945  0.0537
35957ION     NA49371   2.324   8.623   0.348 -0.0577  0.1148 -0.0813
35958ION     NA49372  15.722  10.491  11.738  0.1503  0.0148  0.2240
35959ION     NA49373   8.850   8.000  12.683 -0.1134  0.1160  0.0000
35960ION     NA49374   6.097  13.892  10.419 -0.0625 -0.1995  0.0908
35961ION     NA49375   9.255   3.737   5.593 -0.1184  0.0732  0.0231
35962ION     NA49376  16.727  12.344   1.455  0.0538 -0.2728  0.0030
35963ION     NA49377  11.144   1.221   6.029 -0.1223 -0.3318 -0.1373
35964ION     NA49378   2.903  16.278   0.280 -0.2088 -0.1600 -0.3436
35965ION     NA49379  12.175   8.259   6.251  0.2995  0.2412  0.0071
35966ION     NA49380   3.083   1.666  10.332 -0.0891  0.1053  0.1416
35967ION     NA49381   7.442   5.580   5.444  0.1247 -0.0552 -0.2251
35968ION     NA49382   9.917   8.373  13.184  0.0177 -0.1063  0.2135
35969ION     NA49383   5.308   4.718  12.960 -0.0498  0.1953  0.2757
35970ION     NA49384   3.325   3.103  10.428  0.1608 -0.2250  0.1389
35971ION     CL49385  16.109  15.428   4.194 -0.0902  0.0855  0.3463
35972ION     CL49386   1.444  12.685   0.119  0.0127  0.1567 -0.1291
35973ION     CL49387  16.084  17.841   0.046  0.1273  0.1439 -0.2708
35974ION     CL49388  13.746   4.189   0.638 -0.0093  0.0101  0.0460
35975ION     CL49389  15.612   7.611  15.414  0.2235 -0.0413  0.0254
35976ION     CL49390   9.254   9.232   4.727 -0.0099 -0.0028 -0.1729
35977ION     CL49391   7.481  10.869   0.907  0.0251 -0.0543  0.1563
35978ION     CL49392   7.685  13.709   1.581 -0.0937 -0.1971 -0.1735
35979ION     CL49393   8.288  14.134  12.362 -0.0872  0.0017 -0.2181
35980ION     CL49394  15.714  15.263   5.100  0.0005 -0.1574  0.2723
35981ION     CL49395  12.412  10.514  15.884  0.3624 -0.0417 -0.1276
35982ION     CL49396  16.095  10.756  14.896 -0.3867 -0.1653  0.0032
35983ION     CL49397  10.618   6.224   3.593 -0.1005  0.0294  0.0536
35984ION     CL49398  14.447  12.136   5.067 -0.0736 -0.0958 -0.0887
35985ION     CL49399  12.032  16.231   5.311  0.0865 -0.0113  0.0926
35986ION     CL49400  17.946  15.141   3.622 -0.2326  0.3524 -0.0102
35987ION     CL49401  16.913   0.687  12.050 -0.2547 -0.2032 -0.1464
35988ION     CL49402   5.484  17.339   5.599  0.0748 -0.1520  0.0619
35989ION     CL49403   6.241   9.760   4.403  0.0165 -0.1087  0.0819
35990ION     CL49404  10.404  12.708   2.246 -0.1377  0.2799  0.2814
35991ION     CL49405  13.572   5.027  13.692  0.1354  0.0184  0.0498
35992ION     CL49406   7.200  16.353  10.767 -0.1018 -0.2251  0.0789
35993ION     CL49407   2.847   0.926   4.744 -0.0709  0.0621  0.3044
35994ION     CL49408   9.052   6.187   3.681 -0.1723  0.0389 -0.2185
35995ION     CL49409  12.753  15.957   5.438 -0.1161 -0.1422  0.0578
35996ION     CL49410  13.320   1.383   2.946 -0.2094  0.0582 -0.0074
35997ION     CL49411  11.084   6.432  15.570 -0.0671  0.0916 -0.0481
35998ION     CL49412   9.043  17.497  12.141  0.0643  0.0213 -0.2190
35999ION     CL49413   9.859   0.319  12.748  0.2310 -0.1132 -0.1376
36000ION     CL49414  16.971  10.044   4.851  0.1230  0.0901  0.1026
36001ION     CL49415   7.386  11.777   0.451  0.0746  0.2439 -0.2870
36002ION     CL49416   2.542   1.869   2.469 -0.1044 -0.0715  0.3292
36003ION     CL49417   2.050  15.460   3.747  0.0407  0.3035  0.2232
36004ION     CL49418   7.287   1.829   2.750 -0.0649 -0.1063  0.4659
36005ION     CL49419   2.501   7.444  14.484  0.0940  0.2163  0.0998
36006ION     CL49420  17.828  13.608  16.240 -0.0607 -0.2369 -0.0161
36007ION     CL49421  11.434  15.156   0.654  0.0333 -0.0294  0.1026
36008ION     CL49422  11.294   3.778   1.409  0.1621  0.0064 -0.0851
36009ION     CL49423  17.003  15.162   1.136 -0.2411  0.0313  0.0560
36010ION     CL49424  11.871  13.888  13.335 -0.1020 -0.1503 -0.3305
36011ION     CL49425   0.447  13.269  11.957 -0.3410 -0.0258 -0.3679
36012ION     CL49426   2.646   9.855   0.705  0.1681  0.0659  0.2336
36013ION     CL49427  17.587   6.637   1.088 -0.3186 -0.1828  0.2064
36014ION     CL49428  13.657   8.274   5.178 -0.0188  0.1946 -0.0105
36015ION     CL49429   3.691   8.235  16.343  0.1051  0.1399  0.1187
36016ION     CL49430   4.925  11.362   0.633 -0.2327  0.1458  0.0746
36017ION     CL49431   7.564   0.930   0.902  0.1727  0.4210 -0.4598
36018ION     CL49432  13.066   1.742   6.280  0.0843 -0.2373 -0.1406
36019ION     CL49433  11.328  13.764  12.358 -0.1911 -0.0693 -0.0724
36020ION     CL49434  14.641  14.539  15.257  0.1970  0.1605  0.3321
36021ION     CL49435  13.593   5.243  11.419 -0.1129  0.0438  0.1687
36022ION     CL49436  16.219  15.227   0.096  0.0983 -0.1466 -0.3228
36023ION     CL49437  11.214  11.971  16.189  0.2298 -0.0601 -0.0329
36024ION     CL49438  16.518  12.764   1.312 -0.0326 -0.2657  0.1252
36025ION     CL49439  12.166  13.487  16.257  0.1605  0.1021 -0.1170
36026ION     CL49440  17.977   8.725   5.927  0.1583 -0.1446 -0.1210
36027ION     CL49441  16.362  16.791  11.636  0.1250  0.2181  0.0682
36028ION     CL49442   8.058   1.181  13.213 -0.0483  0.2787 -0.0307
36029ION     CL49443   5.182  13.373   4.022 -0.1262  0.2219 -0.1322
36030ION     CL49444   2.068   5.422  13.553 -0.3928  0.2396 -0.0822
36031ION     CL49445   8.229  14.541  14.358 -0.1067  0.5074  0.0870
36032ION     CL49446  14.237   3.856  12.408 -0.1275 -0.0182  0.3405
36033ION     CL49447   8.624  10.499  12.040  0.3382  0.1290  0.1988
36034ION     CL49448  12.537   7.224   4.885  0.2183  0.0120 -0.1226
36035ION     CL49449   1.274  14.959   5.903  0.1668 -0.1210 -0.2080
36036ION     CL49450  12.262  13.096  14.573  0.1687  0.0036 -0.0603
36037ION     CL49451  17.129   0.085  14.317  0.0821  0.1221 -0.2834
36038ION     CL49452  13.105   5.168  15.233  0.6436 -0.1386  0.0460
36039ION     CL49453   1.107   2.335   3.784 -0.1262  0.2502  0.2370
36040ION     CL49454   4.211   2.588  11.790 -0.4255  0.4290  0.4325
36041ION     CL49455   8.865   9.254  16.073 -0.0749 -0.2909 -0.1963
36042ION     CL49456   0.462   8.138   5.491  0.0258 -0.0209 -0.1645
36043ION     CL49457   8.768   4.173   2.158 -0.0932  0.2801  0.2069
36044ION     CL49458   7.957  14.923   2.869  0.0827  0.0617  0.1798
36045ION     CL49459  16.920  10.370  14.686 -0.1367 -0.4851  0.0121
36046ION     CL49460  11.279   0.325  12.100 -0.4484 -0.4134 -0.4103
36047ION     CL49461   0.617  12.890  16.017 -0.1924 -0.1325 -0.1886
36048ION     CL49462  17.151  12.487  13.355 -0.1223 -0.0478 -0.2496
36049ION     CL49463  13.120  17.121  16.249  0.1435 -0.0680 -0.0847
36050ION     CL49464  13.840   5.822  12.129 -0.1598 -0.3532 -0.0589
36051ION     CL49465  13.979   8.831  11.459  0.0111  0.0656 -0.0352
36052ION     CL49466   0.548   0.552  11.214 -0.2235  0.0905  0.1566
36053ION     CL49467   8.446  14.696   1.787  0.0759  0.1428 -0.0192
36054ION     CL49468  10.268   7.643   5.314  0.3516  0.0699 -0.1380
36055ION     CL49469   4.805   3.237  11.622 -0.1505  0.2149  0.2647
36056ION     CL49470   2.787  10.670   0.720  0.1508  0.2847 -0.3160
36057ION     CL49471   5.611  17.412   2.536 -0.1739 -0.2422 -0.2612
36058ION     CL49472   4.703  16.347   2.723 -0.2356 -0.0052 -0.1022
36059ION     CL49473   4.684   5.964   5.619  0.3727  0.1530  0.3208
36060ION     CL49474   7.718   1.439  13.962 -0.2052 -0.0917  0.0534
36061ION     CL49475   2.166   7.250   3.346 -0.0876 -0.0496  0.1131
36062ION     CL49476  11.744   2.931   3.991 -0.3350  0.0610 -0.0384
36063ION     CL49477   3.554  13.577  12.474 -0.3561 -0.1810 -0.2236
36064ION     CL49478  14.084   0.984   4.264 -0.1487  0.1492  0.3524
36065ION     CL49479  14.330   7.383   5.425 -0.0066 -0.0581 -0.1375
36066ION     CL49480   4.855   2.493   4.477  0.0354 -0.1016  0.2443
36067ION     CL49481  12.864   1.893  13.651 -0.0291 -0.1024 -0.0213
36068ION     CL49482  18.188   8.786   2.317 -0.2138  0.0258 -0.0353
36069ION     CL49483  13.905   2.881  12.500 -0.2750  0.1766  0.1139
36070ION     CL49484   1.633   7.079  11.170 -0.1182 -0.0681 -0.0890
36071ION     CL49485   0.323  10.074   1.421 -0.0351 -0.1021 -0.2602
36072ION     CL49486  13.607   9.596   1.792  0.2984  0.0593  0.0830
36073ION     CL49487   0.477   6.690  16.052 -0.0394  0.2341 -0.1258
36074ION     CL49488  11.657  11.610   2.200 -0.1750 -0.0191 -0.0209
36075ION     CL49489  17.967   2.968   4.581 -0.2406 -0.1587 -0.0315
36076ION     CL49490  11.140  10.627  15.466 -0.2210 -0.0573 -0.0510
36077ION     CL49491   8.042  17.269  13.035  0.1021  0.0394  0.0430
36078ION     CL49492  12.647   1.502   4.634 -0.1150  0.1105  0.3780
36079ION     CL49493  16.481   4.669   1.192  0.3177  0.0611 -0.0423
36080ION     CL49494  10.810   0.406   3.866 -0.1391 -0.1681  0.0892
36081ION     CL49495   1.995  15.764   2.242 -0.0053  0.1902 -0.0329
36082ION     CL49496  13.848   4.517  10.727 -0.2075 -0.2906  0.0602
36083ION     CL49497  16.270   8.593  10.969  0.0632 -0.0789  0.0955
36084ION     CL49498   5.027  17.168  15.465  0.0804  0.2418  0.5297
36085ION     CL49499   7.969   1.923   5.002 -0.0090 -0.0373  0.2917
36086ION     CL49500   4.393  13.354   3.558  0.2605 -0.1067 -0.0959
36087ION     CL49501  10.839   5.895   1.313 -0.0192  0.0065  0.0771
36088ION     CL49502  14.272   4.809  15.379 -0.0632 -0.0284 -0.1264
36089ION     CL49503  13.739   6.074   1.198 -0.3749 -0.4643  0.0754
36090ION     CL49504   2.270  11.619   4.927  0.0090 -0.0580  0.0536
36091ION     CL49505   1.214  11.661   1.760 -0.1259  0.1339  0.1286
36092ION     CL49506   4.729   0.232  14.177  0.0903 -0.1675  0.1030
36093ION     CL49507  12.559  17.178  10.787  0.0007 -0.0961  0.1470
36094ION     CL49508  12.434   7.768   0.237  0.0860  0.0278  0.0817
36095ION     CL49509  10.513   1.539  13.932 -0.3880  0.4000  0.1324
36096ION     CL49510  14.435   9.095   5.328 -0.2065 -0.1508 -0.2956
36097ION     CL49511   6.894   3.118  12.647  0.2859 -0.1942  0.0315
36098ION     CL49512   1.244   6.214  14.996 -0.0791  0.1904 -0.0586
36099ION     CL49513   1.893   1.021   1.070  0.1629 -0.3314 -0.1615
36100ION     CL49514  12.824   3.574  16.047 -0.0010 -0.0949  0.0662
36101ION     CL49515  14.111   5.415   0.687  0.0191 -0.0920 -0.2062
36102ION     CL49516  14.615  12.028  16.129  0.0071  0.0769  0.0299
36103ION     CL49517   6.511   9.124  12.910  0.3236  0.2040  0.0681
36104ION     CL49518  11.943  16.321   1.468  0.0911  0.1253  0.0336
36105ION     CL49519   2.064  16.138   3.135  0.0436  0.0916  0.0283
36106ION     CL49520   1.316  10.866  15.927 -0.1496 -0.2857 -0.0322
36107ION     CL49521   9.324  17.598  10.545  0.0551  0.1548  0.0993
36108ION     CL49522   1.274  11.781  13.264  0.1081  0.0393  0.1291
36109ION     CL49523  18.201  15.113  14.309  0.1608  0.1010 -0.3881
36110ION     CL49524   7.413   1.321  11.587  0.1030  0.2100  0.4610
36111ION     CL49525   6.466  14.824   5.061 -0.1180 -0.4097 -0.0630
36112ION     CL49526   5.528   1.332  12.380  0.1288 -0.1746  0.1484
36113ION     CL49527   4.709   5.803   3.225  0.1938 -0.0961 -0.1631
36114ION     CL49528   1.223  13.097  14.351  0.2609  0.2190 -0.0551
36115ION     CL49529  13.892   8.040   4.061  0.1871  0.1422  0.1549
36116ION     CL49530  14.877   1.486  10.696 -0.2723 -0.1448 -0.0183
36117ION     CL49531  12.108  14.782  14.866  0.1290 -0.0858 -0.2108
36118ION     CL49532   9.207  16.259   4.742  0.2542 -0.2049 -0.2711
36119ION     CL49533  14.796   5.602   2.157 -0.1583  0.0652 -0.0613
36120ION     CL49534   2.508   7.595  11.087 -0.3190 -0.0225 -0.4423
36121ION     CL49535   0.383  16.091   1.918  0.0237 -0.4268 -0.3409
36122ION     CL49536  10.672   1.064   0.049  0.1682  0.2411 -0.0546
36123ION     CL49537  16.066  10.061   4.902  0.1081 -0.0697  0.2851
36124ION     CL49538   9.671  17.974   0.238 -0.0428  0.1165 -0.1561
36125ION     CL49539   5.553  17.936  14.229 -0.0534 -0.2304  0.0549
36126ION     CL49540  14.541  12.213  12.289  0.1095 -0.0971 -0.1148
36127ION     CL49541   9.245   7.810  13.166  0.4087 -0.0974 -0.0323
36128ION     CL49542   7.817   5.925   5.751  0.0293  0.1136 -0.2354
36129ION     CL49543   5.860  12.714  16.406 -0.0689  0.2491 -0.2287
36130ION     CL49544  14.477  14.756  10.623 -0.2354 -0.0220  0.1075
36131ION     CL49545  14.682   6.237   5.567  0.0891 -0.2622 -0.0429
36132ION     CL49546   6.990   1.511  10.724  0.3532 -0.0185  0.1089
36133ION     CL49547  14.257  15.487  16.248 -0.1155 -0.1632  0.0649
36134ION     CL49548   4.199  15.637   1.068 -0.1621 -0.0479  0.2079
36135ION     CL49549   0.550   5.021   4.262 -0.1122 -0.1174  0.1788
36136ION     CL49550   4.987  10.205  14.214  0.1159 -0.0787  0.1382
36137ION     CL49551   4.402  16.227   0.556  0.1402 -0.1764 -0.0089
36138ION     CL49552   8.284  10.840   0.225  0.0205 -0.0801 -0.0529
36139ION     CL49553  16.542   4.589  15.485  0.2285  0.1201 -0.0682
36140ION     CL49554   9.961  15.441   4.129  0.3916 -0.0712  0.2206
36141ION     CL49555  11.438   8.181   1.055  0.2915 -0.3095  0.0636
36142ION     CL49556  15.448   7.802  14.774  0.0303 -0.1008 -0.3136
36143ION     CL49557   9.662   0.411   0.735  0.1310  0.2704 -0.3307
36144ION     CL49558   3.061   6.878  15.070 -0.2148  0.1644  0.1155
36145ION     CL49559   9.377   9.753  11.896  0.0327 -0.0351 -0.0222
36146ION     CL49560  10.294   6.826   0.577  0.1315  0.5157  0.4556
36147ION     CL49561   6.390  16.974   4.050 -0.4897  0.1154 -0.0248
36148ION     CL49562  11.136  14.131   3.030  0.0038  0.3415  0.0120
36149ION     CL49563   3.446  12.888   3.722 -0.1209  0.4284  0.3118
36150ION     CL49564  13.975  14.287  11.135 -0.0475  0.1451 -0.2011
36151ION     CL49565  16.390   8.832   4.422  0.2780  0.3081  0.0719
36152ION     CL49566   7.225  12.804   0.541 -0.1696  0.1472  0.0004
36153ION     CL49567  15.593   4.463  13.299 -0.2133 -0.1615  0.0020
36154ION     CL49568  17.266   7.701  12.862 -0.0405  0.1014 -0.3371
36155ION     CL49569  12.499  13.419  13.656  0.2672  0.3323  0.2507
36156ION     CL49570  17.116   0.662   4.312 -0.0730 -0.1274  0.0699
36157ION     CL49571   4.997   2.959  13.030 -0.2234  0.0305  0.4900
36158ION     CL49572   1.262  17.608  10.905 -0.0710 -0.0227  0.1698
36159ION     CL49573   3.362   1.754   4.331  0.0301 -0.1741  0.0116
36160ION     CL49574   9.217  14.367  16.276 -0.0991 -0.0370 -0.0051
36161ION     CL49575   2.495   6.958  13.245  0.1184 -0.0829 -0.0012
36162ION     CL49576  15.749   5.955   2.576 -0.0328  0.2190 -0.0491
36163ION     CL49577  10.924   8.942   3.876 -0.3212 -0.0928  0.0124
36164ION     CL49578  12.998  15.558  16.008  0.0308 -0.0616 -0.0831
36165ION     CL49579  15.424   0.252   2.297 -0.1396  0.1532 -0.0256
36166ION     CL49580  11.700   9.897  15.603 -0.0030 -0.1554  0.0811
36167ION     CL49581  17.353   5.865  14.166 -0.0248  0.0680  0.2372
36168ION     CL49582   2.871  12.491  11.408  0.1607  0.1717  0.2040
36169ION     CL49583   5.000   1.548   0.901 -0.0047 -0.0403  0.5808
36170ION     CL49584  11.780  12.603  16.286 -0.0926 -0.1398 -0.0161
36171ION     CL49585  16.821  15.822   0.269 -0.3021 -0.0279 -0.2520
36172ION     CL49586  12.250   8.756  12.433 -0.2289 -0.2720 -0.1818
36173ION     CL49587  10.166   8.478   3.890  0.0808 -0.3018  0.1032
36174ION     CL49588  10.331  13.725  12.675  0.1747 -0.2308  0.0913
36175ION     CL49589   4.362   2.783   1.303 -0.0035 -0.0818  0.1880
36176ION     CL49590  17.881   8.611   3.721  0.1364 -0.1037  0.0002
36177ION     CL49591  11.054   1.812  13.749 -0.0873  0.2387  0.2204
36178ION     CL49592  16.107   2.919   1.195 -0.2096  0.0751 -0.0505
  18.25681  18.25681  16.49627
